<event>
 7    1  0.5748623E-013  0.5052886E+02  0.7816164E-02  0.1300439E+00
        -11   -1    0    0    0    0  0.00000000000E+00  0.00000000000E+00  0.45593999997E+02  0.45594000000E+02  0.51100000000E-03 0.  1.
         11   -1    0    0    0    0 -0.00000000000E+00 -0.00000000000E+00 -0.45593999997E+02  0.45594000000E+02  0.51100000000E-03 0. -1.
    9900012    2    1    2    0    0  0.38401331794E+02 -0.13317395149E+02  0.10724990312E+01  0.50528861406E+02  0.30000004728E+02 0.  0.
         12    1    1    2    0    0 -0.38401331794E+02  0.13317395149E+02 -0.10724990312E+01  0.40659138594E+02  0.00000000000E+00 0. -1.
         11    1    3    3    0    0  0.22318816607E+02 -0.16735395698E+02  0.94475500897E+01  0.29452661117E+02  0.51100000000E-03 0. -1.
        -11    1    3    3    0    0  0.12050556133E+02  0.18789784539E+01 -0.63306202362E+00  0.12212584941E+02  0.51100000000E-03 0.  1.
         12    1    3    3    0    0  0.40319590534E+01  0.15390220956E+01 -0.77419890349E+01  0.88636153479E+01  0.00000000000E+00 0. -1.
</event>
<event>
 7    1  0.5748623E-013  0.5052886E+02  0.7816164E-02  0.1300439E+00
        -11   -1    0    0    0    0  0.00000000000E+00  0.00000000000E+00  0.45593999997E+02  0.45594000000E+02  0.51100000000E-03 0.  1.
         11   -1    0    0    0    0 -0.00000000000E+00 -0.00000000000E+00 -0.45593999997E+02  0.45594000000E+02  0.51100000000E-03 0. -1.
    9900012    2    1    2    0    0  0.47652022654E+01  0.31766703910E+02  0.24926599467E+02  0.50528855998E+02  0.29999988292E+02 0.  0.
         12    1    1    2    0    0 -0.47652022654E+01 -0.31766703910E+02 -0.24926599467E+02  0.40659144002E+02  0.00000000000E+00 0. -1.
         11    1    3    3    0    0  0.19624269462E+01  0.96186275409E+01  0.19477027848E+01  0.10008129780E+02  0.51100000000E-03 0. -1.
        -11    1    3    3    0    0 -0.70752995336E+01  0.18889051603E+01  0.14855520724E+02  0.16562437092E+02  0.51100000000E-03 0.  1.
        -12    1    3    3    0    0  0.98780748527E+01  0.20259171209E+02  0.81233759587E+01  0.23958289126E+02  0.00000000000E+00 0.  1.
</event>
<event>
 7    1  0.5748623E-013  0.5052886E+02  0.7816164E-02  0.1300439E+00
        -11   -1    0    0    0    0  0.00000000000E+00  0.00000000000E+00  0.45593999997E+02  0.45594000000E+02  0.51100000000E-03 0. -1.
         11   -1    0    0    0    0 -0.00000000000E+00 -0.00000000000E+00 -0.45593999997E+02  0.45594000000E+02  0.51100000000E-03 0.  1.
    9900012    2    1    2    0    0  0.23055964269E+02 -0.33477349340E+02  0.92497508658E+00  0.50528856058E+02  0.29999988473E+02 0.  0.
         12    1    1    2    0    0 -0.23055964269E+02  0.33477349340E+02 -0.92497508658E+00  0.40659143942E+02  0.00000000000E+00 0. -1.
         11    1    3    3    0    0  0.34464040745E+01 -0.17945875600E+01  0.26523641070E+01  0.47046021269E+01  0.51100000000E-03 0. -1.
        -11    1    3    3    0    0  0.98123452815E+01 -0.30149740126E+02 -0.96383201370E+01  0.33138892029E+02  0.51100000000E-03 0.  1.
        -12    1    3    3    0    0  0.97972149133E+01 -0.15330216541E+01  0.79109311166E+01  0.12685361902E+02  0.00000000000E+00 0.  1.
</event>
<event>
 7    1  0.5748623E-013  0.5052886E+02  0.7816164E-02  0.1300439E+00
        -11   -1    0    0    0    0  0.00000000000E+00  0.00000000000E+00  0.45593999997E+02  0.45594000000E+02  0.51100000000E-03 0.  1.
         11   -1    0    0    0    0 -0.00000000000E+00 -0.00000000000E+00 -0.45593999997E+02  0.45594000000E+02  0.51100000000E-03 0. -1.
    9900012    2    1    2    0    0  0.72017970738E+01 -0.15489295925E+02  0.36896899167E+02  0.50528864034E+02  0.30000012719E+02 0.  0.
         12    1    1    2    0    0 -0.72017970738E+01  0.15489295925E+02 -0.36896899167E+02  0.40659135966E+02  0.00000000000E+00 0. -1.
         11    1    3    3    0    0  0.89297446721E+01  0.95758131485E+00  0.31496572865E+01  0.95172287546E+01  0.51100000000E-03 0. -1.
        -11    1    3    3    0    0 -0.70425481189E+00 -0.15271655259E+02  0.12611229824E+02  0.19818237740E+02  0.51100000000E-03 0.  1.
        -12    1    3    3    0    0 -0.10236927865E+01 -0.11752219807E+01  0.21136012056E+02  0.21193397540E+02  0.00000000000E+00 0.  1.
</event>
<event>
 7    1  0.5748623E-013  0.5052886E+02  0.7816164E-02  0.1300439E+00
        -11   -1    0    0    0    0  0.00000000000E+00  0.00000000000E+00  0.45593999997E+02  0.45594000000E+02  0.51100000000E-03 0. -1.
         11   -1    0    0    0    0 -0.00000000000E+00 -0.00000000000E+00 -0.45593999997E+02  0.45594000000E+02  0.51100000000E-03 0.  1.
    9900012    2    1    2    0    0 -0.13586230908E+02  0.36808482922E+02 -0.10663759115E+02  0.50528857808E+02  0.29999993793E+02 0.  0.
         12    1    1    2    0    0  0.13586230908E+02 -0.36808482922E+02  0.10663759115E+02  0.40659142192E+02  0.00000000000E+00 0. -1.
         11    1    3    3    0    0 -0.15444537200E+02  0.89031246966E+01 -0.88377269236E+01  0.19897356008E+02  0.51100000000E-03 0. -1.
        -11    1    3    3    0    0  0.18396671505E+01  0.10014164928E+02 -0.65757300367E+01  0.12120565177E+02  0.51100000000E-03 0.  1.
         12    1    3    3    0    0  0.18639141088E-01  0.17891193297E+02  0.47496978452E+01  0.18510936622E+02  0.00000000000E+00 0. -1.
</event>
<event>
 7    1  0.5748623E-013  0.5052886E+02  0.7816164E-02  0.1300439E+00
        -11   -1    0    0    0    0  0.00000000000E+00  0.00000000000E+00  0.45593999997E+02  0.45594000000E+02  0.51100000000E-03 0.  1.
         11   -1    0    0    0    0 -0.00000000000E+00 -0.00000000000E+00 -0.45593999997E+02  0.45594000000E+02  0.51100000000E-03 0. -1.
    9900012    2    1    2    0    0  0.38341649050E+02 -0.36435417400E+00  0.13525925700E+02  0.50528862381E+02  0.30000007693E+02 0.  0.
         12    1    1    2    0    0 -0.38341649050E+02  0.36435417400E+00 -0.13525925700E+02  0.40659137619E+02  0.00000000000E+00 0. -1.
         11    1    3    3    0    0 -0.84317930209E+00 -0.60870618084E+01  0.57810338050E+00  0.61723153334E+01  0.51100000000E-03 0. -1.
        -11    1    3    3    0    0  0.17762427520E+02  0.80935588917E+01  0.11721557683E+02  0.22768496694E+02  0.51100000000E-03 0.  1.
         12    1    3    3    0    0  0.21422400833E+02 -0.23708512573E+01  0.12262646372E+01  0.21588050354E+02  0.00000000000E+00 0. -1.
</event>
<event>
 7    1  0.5748623E-013  0.5052880E+02  0.7816164E-02  0.1300439E+00
        -11   -1    0    0    0    0  0.00000000000E+00  0.00000000000E+00  0.45593999997E+02  0.45594000000E+02  0.51100000000E-03 0.  1.
         11   -1    0    0    0    0 -0.00000000000E+00 -0.00000000000E+00 -0.45593999997E+02  0.45594000000E+02  0.51100000000E-03 0. -1.
    9900012    2    1    2    0    0 -0.30566329094E+02  0.26811254584E+02 -0.16376716721E+00  0.50528798504E+02  0.29999813531E+02 0.  0.
         12    1    1    2    0    0  0.30566329094E+02 -0.26811254584E+02  0.16376716721E+00  0.40659201496E+02  0.00000000000E+00 0. -1.
         11    1    3    3    0    0 -0.17704485311E+02  0.12506442097E+02  0.12674356615E+02  0.25109743326E+02  0.51100000000E-03 0. -1.
        -11    1    3    3    0    0 -0.39547215145E+01  0.64857126583E-01 -0.62094058629E+01  0.73621158736E+01  0.51100000000E-03 0.  1.
        -12    1    3    3    0    0 -0.89071222682E+01  0.14239955360E+02 -0.66287179191E+01  0.18056939304E+02  0.00000000000E+00 0.  1.
</event>
<event>
 7    1  0.5748623E-013  0.5052886E+02  0.7816164E-02  0.1300439E+00
        -11   -1    0    0    0    0  0.00000000000E+00  0.00000000000E+00  0.45593999997E+02  0.45594000000E+02  0.51100000000E-03 0.  1.
         11   -1    0    0    0    0 -0.00000000000E+00 -0.00000000000E+00 -0.45593999997E+02  0.45594000000E+02  0.51100000000E-03 0. -1.
    9900012    2    1    2    0    0  0.37562479181E+02 -0.25292522163E+01 -0.15356709853E+02  0.50528862079E+02  0.30000006775E+02 0.  0.
         12    1    1    2    0    0 -0.37562479181E+02  0.25292522163E+01  0.15356709853E+02  0.40659137921E+02  0.00000000000E+00 0. -1.
         11    1    3    3    0    0  0.18160294039E+02 -0.78967404861E+01 -0.31176526248E+01  0.20046808924E+02  0.51100000000E-03 0. -1.
        -11    1    3    3    0    0  0.11762361314E+01  0.48834828840E+01 -0.11135835188E+02  0.12216331778E+02  0.51100000000E-03 0.  1.
        -12    1    3    3    0    0  0.18225949011E+02  0.48400538578E+00 -0.11032220403E+01  0.18265721377E+02  0.00000000000E+00 0.  1.
</event>
<event>
 7    1  0.5748623E-013  0.5052882E+02  0.7816164E-02  0.1300439E+00
        -11   -1    0    0    0    0  0.00000000000E+00  0.00000000000E+00  0.45593999997E+02  0.45594000000E+02  0.51100000000E-03 0. -1.
         11   -1    0    0    0    0 -0.00000000000E+00 -0.00000000000E+00 -0.45593999997E+02  0.45594000000E+02  0.51100000000E-03 0.  1.
    9900012    2    1    2    0    0 -0.36273355747E+02 -0.14528490392E+02 -0.11239923522E+02  0.50528815908E+02  0.29999866434E+02 0.  0.
         12    1    1    2    0    0  0.36273355747E+02  0.14528490392E+02  0.11239923522E+02  0.40659184092E+02  0.00000000000E+00 0. -1.
         11    1    3    3    0    0  0.25812781606E+01 -0.32743910160E-01 -0.56408006491E+01  0.62034426998E+01  0.51100000000E-03 0. -1.
        -11    1    3    3    0    0 -0.19045621801E+02 -0.70700065758E+01  0.46156173261E+01  0.20833257699E+02  0.51100000000E-03 0.  1.
         12    1    3    3    0    0 -0.19809012106E+02 -0.74257399062E+01 -0.10214740200E+02  0.23492115510E+02  0.00000000000E+00 0. -1.
</event>
<event>
 7    1  0.5748623E-013  0.5052886E+02  0.7816164E-02  0.1300439E+00
        -11   -1    0    0    0    0  0.00000000000E+00  0.00000000000E+00  0.45593999997E+02  0.45594000000E+02  0.51100000000E-03 0. -1.
         11   -1    0    0    0    0 -0.00000000000E+00 -0.00000000000E+00 -0.45593999997E+02  0.45594000000E+02  0.51100000000E-03 0.  1.
    9900012    2    1    2    0    0 -0.73055280844E+01  0.31114533194E+01 -0.39876233869E+02  0.50528856995E+02  0.29999991321E+02 0.  0.
         12    1    1    2    0    0  0.73055280844E+01 -0.31114533194E+01  0.39876233869E+02  0.40659143005E+02  0.00000000000E+00 0. -1.
         11    1    3    3    0    0 -0.36527943189E+01 -0.98108508066E+01 -0.23782415202E+02  0.25984591068E+02  0.51100000000E-03 0. -1.
        -11    1    3    3    0    0 -0.41503749830E+01  0.97985172270E+01 -0.17956960416E+02  0.20873164110E+02  0.51100000000E-03 0.  1.
         12    1    3    3    0    0  0.49764121751E+00  0.31237868990E+01  0.18631417484E+01  0.36711018164E+01  0.00000000000E+00 0. -1.
</event>
<event>
 7    1  0.5748623E-013  0.5052885E+02  0.7816164E-02  0.1300439E+00
        -11   -1    0    0    0    0  0.00000000000E+00  0.00000000000E+00  0.45593999997E+02  0.45594000000E+02  0.51100000000E-03 0. -1.
         11   -1    0    0    0    0 -0.00000000000E+00 -0.00000000000E+00 -0.45593999997E+02  0.45594000000E+02  0.51100000000E-03 0.  1.
    9900012    2    1    2    0    0 -0.27171338181E+02 -0.29581421271E+02 -0.63106408896E+01  0.50528852303E+02  0.29999977062E+02 0.  0.
         12    1    1    2    0    0  0.27171338181E+02  0.29581421271E+02  0.63106408896E+01  0.40659147697E+02  0.00000000000E+00 0. -1.
         11    1    3    3    0    0 -0.36198826016E+01 -0.36443690866E+01  0.36348146010E+01  0.62926030809E+01  0.51100000000E-03 0. -1.
        -11    1    3    3    0    0 -0.26755774039E+02 -0.25845101697E+02 -0.13384723746E+02  0.39534688012E+02  0.51100000000E-03 0.  1.
        -12    1    3    3    0    0  0.32043184597E+01 -0.91950487322E-01  0.34392682557E+01  0.47015612107E+01  0.00000000000E+00 0.  1.
</event>
<event>
 7    1  0.5748623E-013  0.5052886E+02  0.7816164E-02  0.1300439E+00
        -11   -1    0    0    0    0  0.00000000000E+00  0.00000000000E+00  0.45593999997E+02  0.45594000000E+02  0.51100000000E-03 0.  1.
         11   -1    0    0    0    0 -0.00000000000E+00 -0.00000000000E+00 -0.45593999997E+02  0.45594000000E+02  0.51100000000E-03 0. -1.
    9900012    2    1    2    0    0 -0.25905920023E+02 -0.19483470805E+02  0.24544728850E+02  0.50528855381E+02  0.29999986417E+02 0.  0.
         12    1    1    2    0    0  0.25905920023E+02  0.19483470805E+02 -0.24544728850E+02  0.40659144619E+02  0.00000000000E+00 0. -1.
         11    1    3    3    0    0 -0.33767214241E+01  0.24446011080E+01  0.46098780087E+01  0.62152471930E+01  0.51100000000E-03 0. -1.
        -11    1    3    3    0    0 -0.25902447630E+02 -0.14540786844E+02  0.20625512174E+02  0.36163282871E+02  0.51100000000E-03 0.  1.
        -12    1    3    3    0    0  0.33732490313E+01 -0.73872850682E+01 -0.69066133318E+00  0.81503253176E+01  0.00000000000E+00 0.  1.
</event>
<event>
 7    1  0.5748623E-013  0.5052886E+02  0.7816164E-02  0.1300439E+00
        -11   -1    0    0    0    0  0.00000000000E+00  0.00000000000E+00  0.45593999997E+02  0.45594000000E+02  0.51100000000E-03 0.  1.
         11   -1    0    0    0    0 -0.00000000000E+00 -0.00000000000E+00 -0.45593999997E+02  0.45594000000E+02  0.51100000000E-03 0. -1.
    9900012    2    1    2    0    0 -0.89291896615E+01  0.11439099243E+02  0.37981339814E+02  0.50528860885E+02  0.30000003147E+02 0.  0.
         12    1    1    2    0    0  0.89291896615E+01 -0.11439099243E+02 -0.37981339814E+02  0.40659139115E+02  0.00000000000E+00 0. -1.
         11    1    3    3    0    0 -0.98186671402E+01  0.42359585418E+01  0.22957733916E+01  0.10937099474E+02  0.51100000000E-03 0. -1.
        -11    1    3    3    0    0 -0.20870442877E+01  0.71910182811E+01  0.35837464227E+02  0.36611341689E+02  0.51100000000E-03 0.  1.
        -12    1    3    3    0    0  0.29765217665E+01  0.12122420268E-01 -0.15189780489E+00  0.29804197226E+01  0.00000000000E+00 0.  1.
</event>
<event>
 7    1  0.5748623E-013  0.5052887E+02  0.7816164E-02  0.1300439E+00
        -11   -1    0    0    0    0  0.00000000000E+00  0.00000000000E+00  0.45593999997E+02  0.45594000000E+02  0.51100000000E-03 0. -1.
         11   -1    0    0    0    0 -0.00000000000E+00 -0.00000000000E+00 -0.45593999997E+02  0.45594000000E+02  0.51100000000E-03 0.  1.
    9900012    2    1    2    0    0 -0.38696114271E+02  0.12453141813E+02  0.83373020080E+00  0.50528866872E+02  0.30000021343E+02 0.  0.
         12    1    1    2    0    0  0.38696114271E+02 -0.12453141813E+02 -0.83373020080E+00  0.40659133128E+02  0.00000000000E+00 0. -1.
         11    1    3    3    0    0  0.10567615039E+01  0.50642497493E+01  0.44742161715E+01  0.68397354488E+01  0.51100000000E-03 0. -1.
        -11    1    3    3    0    0 -0.24769475025E+02 -0.14675586259E+01  0.31381356320E+01  0.25010568104E+02  0.51100000000E-03 0.  1.
         12    1    3    3    0    0 -0.14983400750E+02  0.88564506894E+01 -0.67786216027E+01  0.18678563319E+02  0.00000000000E+00 0. -1.
</event>
<event>
 7    1  0.5748623E-013  0.5052886E+02  0.7816164E-02  0.1300439E+00
        -11   -1    0    0    0    0  0.00000000000E+00  0.00000000000E+00  0.45593999997E+02  0.45594000000E+02  0.51100000000E-03 0.  1.
         11   -1    0    0    0    0 -0.00000000000E+00 -0.00000000000E+00 -0.45593999997E+02  0.45594000000E+02  0.51100000000E-03 0. -1.
    9900012    2    1    2    0    0 -0.34838547639E+02 -0.15457997738E+02  0.14159497550E+02  0.50528862448E+02  0.30000007896E+02 0.  0.
         12    1    1    2    0    0  0.34838547639E+02  0.15457997738E+02 -0.14159497550E+02  0.40659137552E+02  0.00000000000E+00 0. -1.
         11    1    3    3    0    0 -0.17868087320E+02 -0.11145045414E+02  0.80144219240E+01  0.22532455276E+02  0.51100000000E-03 0. -1.
        -11    1    3    3    0    0 -0.65173611827E+01  0.68282866749E+01 -0.33415273743E+01  0.10013356138E+02  0.51100000000E-03 0.  1.
        -12    1    3    3    0    0 -0.10453099136E+02 -0.11141238999E+02  0.94866030001E+01  0.17983051033E+02  0.00000000000E+00 0.  1.
</event>
<event>
 7    1  0.5748623E-013  0.5052886E+02  0.7816164E-02  0.1300439E+00
        -11   -1    0    0    0    0  0.00000000000E+00  0.00000000000E+00  0.45593999997E+02  0.45594000000E+02  0.51100000000E-03 0.  1.
         11   -1    0    0    0    0 -0.00000000000E+00 -0.00000000000E+00 -0.45593999997E+02  0.45594000000E+02  0.51100000000E-03 0. -1.
    9900012    2    1    2    0    0 -0.11156125012E+02  0.43714423665E+00  0.39096231253E+02  0.50528861807E+02  0.30000005950E+02 0.  0.
         12    1    1    2    0    0  0.11156125012E+02 -0.43714423665E+00 -0.39096231253E+02  0.40659138193E+02  0.00000000000E+00 0. -1.
         11    1    3    3    0    0 -0.10511382153E+02  0.46055211772E+01  0.13565688676E+02  0.17768733483E+02  0.51100000000E-03 0. -1.
        -11    1    3    3    0    0  0.69261616850E+01 -0.87058858573E+01  0.10322332080E+02  0.15176122828E+02  0.51100000000E-03 0.  1.
        -12    1    3    3    0    0 -0.75709045442E+01  0.45375089168E+01  0.15208210497E+02  0.17584005497E+02  0.00000000000E+00 0.  1.
</event>
<event>
 7    1  0.5748623E-013  0.5052880E+02  0.7816164E-02  0.1300439E+00
        -11   -1    0    0    0    0  0.00000000000E+00  0.00000000000E+00  0.45593999997E+02  0.45594000000E+02  0.51100000000E-03 0.  1.
         11   -1    0    0    0    0 -0.00000000000E+00 -0.00000000000E+00 -0.45593999997E+02  0.45594000000E+02  0.51100000000E-03 0. -1.
    9900012    2    1    2    0    0 -0.25435532762E+02 -0.26764578757E+02  0.17025317002E+02  0.50528801508E+02  0.29999822664E+02 0.  0.
         12    1    1    2    0    0  0.25435532762E+02  0.26764578757E+02 -0.17025317002E+02  0.40659198492E+02  0.00000000000E+00 0. -1.
         11    1    3    3    0    0 -0.19705676492E+02 -0.24118656392E+01  0.18252008438E+01  0.19936452549E+02  0.51100000000E-03 0. -1.
        -11    1    3    3    0    0 -0.69677634693E+01 -0.17130252898E+02  0.13936418131E+02  0.23156403924E+02  0.51100000000E-03 0.  1.
         12    1    3    3    0    0  0.12379071985E+01 -0.72224602197E+01  0.12636980275E+01  0.74359450349E+01  0.00000000000E+00 0. -1.
</event>
<event>
 7    1  0.5748623E-013  0.5052888E+02  0.7816164E-02  0.1300439E+00
        -11   -1    0    0    0    0  0.00000000000E+00  0.00000000000E+00  0.45593999997E+02  0.45594000000E+02  0.51100000000E-03 0.  1.
         11   -1    0    0    0    0 -0.00000000000E+00 -0.00000000000E+00 -0.45593999997E+02  0.45594000000E+02  0.51100000000E-03 0. -1.
    9900012    2    1    2    0    0  0.23790095053E+02  0.17244866736E+00  0.32972193266E+02  0.50528881835E+02  0.30000066826E+02 0.  0.
         12    1    1    2    0    0 -0.23790095053E+02 -0.17244866736E+00 -0.32972193266E+02  0.40659118165E+02  0.00000000000E+00 0. -1.
         11    1    3    3    0    0  0.10502037478E+02  0.23326780767E+01  0.17246162377E+01  0.10895342107E+02  0.51100000000E-03 0. -1.
        -11    1    3    3    0    0  0.64190292784E+01 -0.80662577510E+01  0.28280985820E+02  0.30101206126E+02  0.51100000000E-03 0.  1.
        -12    1    3    3    0    0  0.68690282969E+01  0.59060283417E+01  0.29665912076E+01  0.95323336025E+01  0.00000000000E+00 0.  1.
</event>
<event>
 7    1  0.5748623E-013  0.5052886E+02  0.7816164E-02  0.1300439E+00
        -11   -1    0    0    0    0  0.00000000000E+00  0.00000000000E+00  0.45593999997E+02  0.45594000000E+02  0.51100000000E-03 0.  1.
         11   -1    0    0    0    0 -0.00000000000E+00 -0.00000000000E+00 -0.45593999997E+02  0.45594000000E+02  0.51100000000E-03 0. -1.
    9900012    2    1    2    0    0  0.98550653960E+01 -0.25233214033E+02  0.30320425149E+02  0.50528860983E+02  0.30000003444E+02 0.  0.
         12    1    1    2    0    0 -0.98550653960E+01  0.25233214033E+02 -0.30320425149E+02  0.40659139017E+02  0.00000000000E+00 0. -1.
         11    1    3    3    0    0  0.12950867434E+02 -0.72760242134E+01  0.45656685478E+01  0.15540618559E+02  0.51100000000E-03 0. -1.
        -11    1    3    3    0    0 -0.58939670615E+01 -0.72880346041E+01  0.20961684180E+02  0.22961848794E+02  0.51100000000E-03 0.  1.
         12    1    3    3    0    0  0.27981650235E+01 -0.10669155215E+02  0.47930724217E+01  0.12026393630E+02  0.00000000000E+00 0. -1.
</event>
<event>
 7    1  0.5748623E-013  0.5052886E+02  0.7816164E-02  0.1300439E+00
        -11   -1    0    0    0    0  0.00000000000E+00  0.00000000000E+00  0.45593999997E+02  0.45594000000E+02  0.51100000000E-03 0.  1.
         11   -1    0    0    0    0 -0.00000000000E+00 -0.00000000000E+00 -0.45593999997E+02  0.45594000000E+02  0.51100000000E-03 0. -1.
    9900012    2    1    2    0    0  0.20904129648E+02  0.14864226281E+02  0.31547389226E+02  0.50528860483E+02  0.30000001925E+02 0.  0.
         12    1    1    2    0    0 -0.20904129648E+02 -0.14864226281E+02 -0.31547389226E+02  0.40659139517E+02  0.00000000000E+00 0. -1.
         11    1    3    3    0    0 -0.11601236199E+01  0.51603569156E+01  0.35347503449E+01  0.63615745356E+01  0.51100000000E-03 0. -1.
        -11    1    3    3    0    0  0.27366634522E+02  0.89402920880E+01  0.23686370065E+02  0.37281438208E+02  0.51100000000E-03 0.  1.
        -12    1    3    3    0    0 -0.53023812548E+01  0.76357727712E+00  0.43262688161E+01  0.68858477400E+01  0.00000000000E+00 0.  1.
</event>
<event>
 7    1  0.5748623E-013  0.5052887E+02  0.7816164E-02  0.1300439E+00
        -11   -1    0    0    0    0  0.00000000000E+00  0.00000000000E+00  0.45593999997E+02  0.45594000000E+02  0.51100000000E-03 0.  1.
         11   -1    0    0    0    0 -0.00000000000E+00 -0.00000000000E+00 -0.45593999997E+02  0.45594000000E+02  0.51100000000E-03 0. -1.
    9900012    2    1    2    0    0 -0.41178087989E+01  0.24476700341E+02  0.32204036002E+02  0.50528866417E+02  0.30000019962E+02 0.  0.
         12    1    1    2    0    0  0.41178087989E+01 -0.24476700341E+02 -0.32204036002E+02  0.40659133583E+02  0.00000000000E+00 0. -1.
         11    1    3    3    0    0 -0.10185051693E+02  0.37320247409E+01  0.12778875017E+02  0.16761948980E+02  0.51100000000E-03 0. -1.
        -11    1    3    3    0    0  0.41890736050E+01  0.23692184450E+02  0.16152191403E+02  0.28978634010E+02  0.51100000000E-03 0.  1.
        -12    1    3    3    0    0  0.18781692887E+01 -0.29475088500E+01  0.32729695814E+01  0.47882834271E+01  0.00000000000E+00 0.  1.
</event>
<event>
 7    1  0.5748623E-013  0.5052886E+02  0.7816164E-02  0.1300439E+00
        -11   -1    0    0    0    0  0.00000000000E+00  0.00000000000E+00  0.45593999997E+02  0.45594000000E+02  0.51100000000E-03 0. -1.
         11   -1    0    0    0    0 -0.00000000000E+00 -0.00000000000E+00 -0.45593999997E+02  0.45594000000E+02  0.51100000000E-03 0.  1.
    9900012    2    1    2    0    0 -0.18506231392E+02 -0.27023826326E+02  0.24091447391E+02  0.50528860474E+02  0.30000001896E+02 0.  0.
         12    1    1    2    0    0  0.18506231392E+02  0.27023826326E+02 -0.24091447391E+02  0.40659139526E+02  0.00000000000E+00 0. -1.
         11    1    3    3    0    0  0.70434819018E+01 -0.97001181327E+01  0.83351336034E+01  0.14600595246E+02  0.51100000000E-03 0.  1.
        -11    1    3    3    0    0 -0.18800116012E+02 -0.11400616230E+02  0.15578732904E+02  0.26946527265E+02  0.51100000000E-03 0. -1.
        -12    1    3    3    0    0 -0.67495972816E+01 -0.59230919626E+01  0.17758088410E+00  0.89817379628E+01  0.00000000000E+00 0.  1.
</event>
<event>
 7    1  0.5748623E-013  0.5052888E+02  0.7816164E-02  0.1300439E+00
        -11   -1    0    0    0    0  0.00000000000E+00  0.00000000000E+00  0.45593999997E+02  0.45594000000E+02  0.51100000000E-03 0.  1.
         11   -1    0    0    0    0 -0.00000000000E+00 -0.00000000000E+00 -0.45593999997E+02  0.45594000000E+02  0.51100000000E-03 0. -1.
    9900012    2    1    2    0    0 -0.12746819908E+02 -0.29796330209E+02  0.24553236325E+02  0.50528878935E+02  0.30000058011E+02 0.  0.
         12    1    1    2    0    0  0.12746819908E+02  0.29796330209E+02 -0.24553236325E+02  0.40659121065E+02  0.00000000000E+00 0. -1.
         11    1    3    3    0    0 -0.11386362415E+01 -0.24077326233E+02  0.98893208498E+01  0.26054036120E+02  0.51100000000E-03 0. -1.
        -11    1    3    3    0    0 -0.54076482825E+01 -0.65363756096E+01  0.15972194721E+02  0.18085294316E+02  0.51100000000E-03 0.  1.
         12    1    3    3    0    0 -0.62005353839E+01  0.81737163306E+00 -0.13082792452E+01  0.63895484987E+01  0.00000000000E+00 0. -1.
</event>
<event>
 7    1  0.5748623E-013  0.5052886E+02  0.7816164E-02  0.1300439E+00
        -11   -1    0    0    0    0  0.00000000000E+00  0.00000000000E+00  0.45593999997E+02  0.45594000000E+02  0.51100000000E-03 0.  1.
         11   -1    0    0    0    0 -0.00000000000E+00 -0.00000000000E+00 -0.45593999997E+02  0.45594000000E+02  0.51100000000E-03 0. -1.
    9900012    2    1    2    0    0 -0.30100214139E+02 -0.26317967897E+02  0.73829053258E+01  0.50528860603E+02  0.30000002289E+02 0.  0.
         12    1    1    2    0    0  0.30100214139E+02  0.26317967897E+02 -0.73829053258E+01  0.40659139397E+02  0.00000000000E+00 0. -1.
         11    1    3    3    0    0 -0.25334734123E+02 -0.29933077361E+02  0.40744182117E+01  0.39426371344E+02  0.51100000000E-03 0. -1.
        -11    1    3    3    0    0 -0.20008683427E+01  0.33444787808E+00 -0.29102129293E+01  0.35474877115E+01  0.51100000000E-03 0.  1.
         12    1    3    3    0    0 -0.27646116739E+01  0.32806615858E+01  0.62187000434E+01  0.75550015472E+01  0.00000000000E+00 0. -1.
</event>
<event>
 7    1  0.5748623E-013  0.5052886E+02  0.7816164E-02  0.1300439E+00
        -11   -1    0    0    0    0  0.00000000000E+00  0.00000000000E+00  0.45593999997E+02  0.45594000000E+02  0.51100000000E-03 0. -1.
         11   -1    0    0    0    0 -0.00000000000E+00 -0.00000000000E+00 -0.45593999997E+02  0.45594000000E+02  0.51100000000E-03 0.  1.
    9900012    2    1    2    0    0  0.36423378915E+02 -0.11924489842E+02  0.13576072840E+02  0.50528859044E+02  0.29999997550E+02 0.  0.
         12    1    1    2    0    0 -0.36423378915E+02  0.11924489842E+02 -0.13576072840E+02  0.40659140956E+02  0.00000000000E+00 0. -1.
         11    1    3    3    0    0  0.74439806834E+01 -0.56172143649E+00 -0.80375859751E+01  0.10969556416E+02  0.51100000000E-03 0. -1.
        -11    1    3    3    0    0  0.18518739200E+02 -0.12170005401E+02  0.11412879969E+02  0.24926021794E+02  0.51100000000E-03 0.  1.
        -12    1    3    3    0    0  0.10460659031E+02  0.80723699561E+00  0.10200778845E+02  0.14633280835E+02  0.00000000000E+00 0.  1.
</event>
<event>
 7    1  0.5748623E-013  0.5052884E+02  0.7816164E-02  0.1300439E+00
        -11   -1    0    0    0    0  0.00000000000E+00  0.00000000000E+00  0.45593999997E+02  0.45594000000E+02  0.51100000000E-03 0.  1.
         11   -1    0    0    0    0 -0.00000000000E+00 -0.00000000000E+00 -0.45593999997E+02  0.45594000000E+02  0.51100000000E-03 0. -1.
    9900012    2    1    2    0    0 -0.24091139578E+02  0.32333381807E+02 -0.52284295595E+01  0.50528842841E+02  0.29999948300E+02 0.  0.
         12    1    1    2    0    0  0.24091139578E+02 -0.32333381807E+02  0.52284295595E+01  0.40659157159E+02  0.00000000000E+00 0. -1.
         11    1    3    3    0    0 -0.14632275007E+02  0.24108603951E+02 -0.16216394975E+02  0.32531518910E+02  0.51100000000E-03 0. -1.
        -11    1    3    3    0    0 -0.50507137355E+01  0.18181890784E+01  0.12077934188E+01  0.55022073721E+01  0.51100000000E-03 0.  1.
         12    1    3    3    0    0 -0.44081508353E+01  0.64065887770E+01  0.97801719966E+01  0.12495116559E+02  0.00000000000E+00 0. -1.
</event>
<event>
 7    1  0.5748623E-013  0.5052886E+02  0.7816164E-02  0.1300439E+00
        -11   -1    0    0    0    0  0.00000000000E+00  0.00000000000E+00  0.45593999997E+02  0.45594000000E+02  0.51100000000E-03 0.  1.
         11   -1    0    0    0    0 -0.00000000000E+00 -0.00000000000E+00 -0.45593999997E+02  0.45594000000E+02  0.51100000000E-03 0. -1.
    9900012    2    1    2    0    0 -0.30953613536E+02  0.76765773100E+01  0.25221217605E+02  0.50528857761E+02  0.29999993651E+02 0.  0.
         12    1    1    2    0    0  0.30953613536E+02 -0.76765773100E+01 -0.25221217605E+02  0.40659142239E+02  0.00000000000E+00 0. -1.
         11    1    3    3    0    0 -0.73715844404E+00  0.42676407283E+01 -0.15362365822E+01  0.45952348204E+01  0.51100000000E-03 0. -1.
        -11    1    3    3    0    0 -0.24672576638E+02  0.46450312323E+01  0.30214764116E+02  0.39284148507E+02  0.51100000000E-03 0.  1.
        -12    1    3    3    0    0 -0.55438784542E+01 -0.12360946505E+01 -0.34573099292E+01  0.66494744339E+01  0.00000000000E+00 0.  1.
</event>
<event>
 7    1  0.5748623E-013  0.5052880E+02  0.7816164E-02  0.1300439E+00
        -11   -1    0    0    0    0  0.00000000000E+00  0.00000000000E+00  0.45593999997E+02  0.45594000000E+02  0.51100000000E-03 0.  1.
         11   -1    0    0    0    0 -0.00000000000E+00 -0.00000000000E+00 -0.45593999997E+02  0.45594000000E+02  0.51100000000E-03 0. -1.
    9900012    2    1    2    0    0 -0.89111824628E+01  0.39521133027E+02  0.34411335143E+01  0.50528800198E+02  0.29999818683E+02 0.  0.
         12    1    1    2    0    0  0.89111824628E+01 -0.39521133027E+02 -0.34411335143E+01  0.40659199802E+02  0.00000000000E+00 0. -1.
         11    1    3    3    0    0 -0.16837711456E+02  0.31910063850E+02 -0.27824130572E+01  0.36187049129E+02  0.51100000000E-03 0. -1.
        -11    1    3    3    0    0  0.53703859398E+01  0.73359952748E+01  0.71941932168E+01  0.11593717614E+02  0.51100000000E-03 0.  1.
         12    1    3    3    0    0  0.25561430537E+01  0.27507390293E+00 -0.97064664524E+00  0.27480334555E+01  0.00000000000E+00 0. -1.
</event>
<event>
 7    1  0.5748623E-013  0.5052889E+02  0.7816164E-02  0.1300439E+00
        -11   -1    0    0    0    0  0.00000000000E+00  0.00000000000E+00  0.45593999997E+02  0.45594000000E+02  0.51100000000E-03 0. -1.
         11   -1    0    0    0    0 -0.00000000000E+00 -0.00000000000E+00 -0.45593999997E+02  0.45594000000E+02  0.51100000000E-03 0.  1.
    9900012    2    1    2    0    0  0.24494443399E+02 -0.29230213954E+02  0.14098933781E+02  0.50528891562E+02  0.30000096392E+02 0.  0.
         12    1    1    2    0    0 -0.24494443399E+02  0.29230213954E+02 -0.14098933781E+02  0.40659108438E+02  0.00000000000E+00 0. -1.
         11    1    3    3    0    0  0.25000674503E+02 -0.10956214267E+02  0.71858246288E+01  0.28226024030E+02  0.51100000000E-03 0. -1.
        -11    1    3    3    0    0 -0.44472487841E+01 -0.15171669358E+02  0.69908374035E+01  0.17286682178E+02  0.51100000000E-03 0.  1.
        -12    1    3    3    0    0  0.39410176802E+01 -0.31023303287E+01 -0.77728251747E-01  0.50161853539E+01  0.00000000000E+00 0.  1.
</event>
<event>
 7    1  0.5748623E-013  0.5052886E+02  0.7816164E-02  0.1300439E+00
        -11   -1    0    0    0    0  0.00000000000E+00  0.00000000000E+00  0.45593999997E+02  0.45594000000E+02  0.51100000000E-03 0. -1.
         11   -1    0    0    0    0 -0.00000000000E+00 -0.00000000000E+00 -0.45593999997E+02  0.45594000000E+02  0.51100000000E-03 0.  1.
    9900012    2    1    2    0    0 -0.36047112871E+02 -0.18690513170E+02 -0.21062238514E+01  0.50528858251E+02  0.29999995139E+02 0.  0.
         12    1    1    2    0    0  0.36047112871E+02  0.18690513170E+02  0.21062238514E+01  0.40659141749E+02  0.00000000000E+00 0. -1.
         11    1    3    3    0    0 -0.13255412719E+02 -0.28797880601E+01  0.89295492005E+01  0.16239950579E+02  0.51100000000E-03 0. -1.
        -11    1    3    3    0    0 -0.22248827877E+02 -0.75259939226E+01 -0.11118503226E+02  0.25985997011E+02  0.51100000000E-03 0.  1.
        -12    1    3    3    0    0 -0.54287227455E+00 -0.82847311873E+01  0.82730174136E-01  0.83029106604E+01  0.00000000000E+00 0.  1.
</event>
<event>
 7    1  0.5748623E-013  0.5052886E+02  0.7816164E-02  0.1300439E+00
        -11   -1    0    0    0    0  0.00000000000E+00  0.00000000000E+00  0.45593999997E+02  0.45594000000E+02  0.51100000000E-03 0. -1.
         11   -1    0    0    0    0 -0.00000000000E+00 -0.00000000000E+00 -0.45593999997E+02  0.45594000000E+02  0.51100000000E-03 0.  1.
    9900012    2    1    2    0    0 -0.15078327483E+02  0.28742764066E+01 -0.37650339827E+02  0.50528861868E+02  0.30000006134E+02 0.  0.
         12    1    1    2    0    0  0.15078327483E+02 -0.28742764066E+01  0.37650339827E+02  0.40659138132E+02  0.00000000000E+00 0. -1.
         11    1    3    3    0    0 -0.17515612665E+02  0.11924316175E+02 -0.16708462772E+02  0.26984416460E+02  0.51100000000E-03 0. -1.
        -11    1    3    3    0    0 -0.13520978001E+00 -0.38612737124E+01 -0.13899753749E+02  0.14426741521E+02  0.51100000000E-03 0.  1.
         12    1    3    3    0    0  0.25724949618E+01 -0.51887660556E+01 -0.70421233063E+01  0.91177038869E+01  0.00000000000E+00 0. -1.
</event>
<event>
 7    1  0.5748623E-013  0.5052884E+02  0.7816164E-02  0.1300439E+00
        -11   -1    0    0    0    0  0.00000000000E+00  0.00000000000E+00  0.45593999997E+02  0.45594000000E+02  0.51100000000E-03 0.  1.
         11   -1    0    0    0    0 -0.00000000000E+00 -0.00000000000E+00 -0.45593999997E+02  0.45594000000E+02  0.51100000000E-03 0. -1.
    9900012    2    1    2    0    0 -0.22844368978E+02  0.19807764749E+02  0.27183711523E+02  0.50528844690E+02  0.29999953920E+02 0.  0.
         12    1    1    2    0    0  0.22844368978E+02 -0.19807764749E+02 -0.27183711523E+02  0.40659155310E+02  0.00000000000E+00 0. -1.
         11    1    3    3    0    0  0.40542011027E+01  0.78419359723E+01  0.11074527324E+02  0.14162544336E+02  0.51100000000E-03 0. -1.
        -11    1    3    3    0    0 -0.19241087255E+02  0.23752798695E+01  0.55221876798E+01  0.20158272501E+02  0.51100000000E-03 0.  1.
         12    1    3    3    0    0 -0.76574828258E+01  0.95905489070E+01  0.10586996520E+02  0.16208027853E+02  0.00000000000E+00 0. -1.
</event>
<event>
 7    1  0.5748623E-013  0.5052888E+02  0.7816164E-02  0.1300439E+00
        -11   -1    0    0    0    0  0.00000000000E+00  0.00000000000E+00  0.45593999997E+02  0.45594000000E+02  0.51100000000E-03 0.  1.
         11   -1    0    0    0    0 -0.00000000000E+00 -0.00000000000E+00 -0.45593999997E+02  0.45594000000E+02  0.51100000000E-03 0. -1.
    9900012    2    1    2    0    0  0.65106732606E+01 -0.39345402109E+02  0.79192387087E+01  0.50528882017E+02  0.30000067379E+02 0.  0.
         12    1    1    2    0    0 -0.65106732606E+01  0.39345402109E+02 -0.79192387087E+01  0.40659117983E+02  0.00000000000E+00 0. -1.
         11    1    3    3    0    0 -0.24504328365E+01 -0.18445771977E+01 -0.68909039508E+01  0.75426549467E+01  0.51100000000E-03 0. -1.
        -11    1    3    3    0    0  0.14626337389E+01 -0.28316942390E+02  0.87695240642E+01  0.29679842930E+02  0.51100000000E-03 0.  1.
         12    1    3    3    0    0  0.74984723582E+01 -0.91838825212E+01  0.60406185953E+01  0.13306384140E+02  0.00000000000E+00 0. -1.
</event>
<event>
 7    1  0.5748623E-013  0.5052886E+02  0.7816164E-02  0.1300439E+00
        -11   -1    0    0    0    0  0.00000000000E+00  0.00000000000E+00  0.45593999997E+02  0.45594000000E+02  0.51100000000E-03 0. -1.
         11   -1    0    0    0    0 -0.00000000000E+00 -0.00000000000E+00 -0.45593999997E+02  0.45594000000E+02  0.51100000000E-03 0.  1.
    9900012    2    1    2    0    0 -0.27222990080E+02 -0.15270007974E+02 -0.26055731052E+02  0.50528862613E+02  0.30000008398E+02 0.  0.
         12    1    1    2    0    0  0.27222990080E+02  0.15270007974E+02  0.26055731052E+02  0.40659137387E+02  0.00000000000E+00 0. -1.
         11    1    3    3    0    0 -0.10951922945E+02  0.33552344761E+01 -0.11955283878E+02  0.16556902713E+02  0.51100000000E-03 0. -1.
        -11    1    3    3    0    0 -0.17508513434E+02 -0.19486533939E+02 -0.16628335199E+02  0.31028609047E+02  0.51100000000E-03 0.  1.
        -12    1    3    3    0    0  0.12374462992E+01  0.86129148868E+00  0.25278880256E+01  0.29433508527E+01  0.00000000000E+00 0.  1.
</event>
<event>
 7    1  0.5748623E-013  0.5052886E+02  0.7816164E-02  0.1300439E+00
        -11   -1    0    0    0    0  0.00000000000E+00  0.00000000000E+00  0.45593999997E+02  0.45594000000E+02  0.51100000000E-03 0.  1.
         11   -1    0    0    0    0 -0.00000000000E+00 -0.00000000000E+00 -0.45593999997E+02  0.45594000000E+02  0.51100000000E-03 0. -1.
    9900012    2    1    2    0    0  0.15161519268E+02  0.13110851765E+02  0.35375124515E+02  0.50528861605E+02  0.30000005336E+02 0.  0.
         12    1    1    2    0    0 -0.15161519268E+02 -0.13110851765E+02 -0.35375124515E+02  0.40659138395E+02  0.00000000000E+00 0. -1.
         11    1    3    3    0    0  0.17130719875E+02  0.45055006814E+01  0.29541979070E+02  0.34445458735E+02  0.51100000000E-03 0.  1.
        -11    1    3    3    0    0 -0.22030300335E+01  0.18084312018E+01  0.83566744276E+01  0.88293698806E+01  0.51100000000E-03 0. -1.
         12    1    3    3    0    0  0.23382942584E+00  0.67969198822E+01 -0.25235289827E+01  0.72540329895E+01  0.00000000000E+00 0. -1.
</event>
<event>
 7    1  0.5748623E-013  0.5052886E+02  0.7816164E-02  0.1300439E+00
        -11   -1    0    0    0    0  0.00000000000E+00  0.00000000000E+00  0.45593999997E+02  0.45594000000E+02  0.51100000000E-03 0.  1.
         11   -1    0    0    0    0 -0.00000000000E+00 -0.00000000000E+00 -0.45593999997E+02  0.45594000000E+02  0.51100000000E-03 0. -1.
    9900012    2    1    2    0    0  0.67453805892E+01 -0.39512104560E+02  0.68160662108E+01  0.50528864192E+02  0.30000013197E+02 0.  0.
         12    1    1    2    0    0 -0.67453805892E+01  0.39512104560E+02 -0.68160662108E+01  0.40659135808E+02  0.00000000000E+00 0. -1.
         11    1    3    3    0    0  0.56810204097E+01 -0.17626559125E+01 -0.63161562469E+01  0.86761038928E+01  0.51100000000E-03 0. -1.
        -11    1    3    3    0    0  0.58953676383E+01 -0.18191286600E+02  0.31896889077E+01  0.19386912682E+02  0.51100000000E-03 0.  1.
         12    1    3    3    0    0 -0.48310074588E+01 -0.19558162048E+02  0.99425335500E+01  0.22465847617E+02  0.00000000000E+00 0. -1.
</event>
<event>
 7    1  0.5748623E-013  0.5052888E+02  0.7816164E-02  0.1300439E+00
        -11   -1    0    0    0    0  0.00000000000E+00  0.00000000000E+00  0.45593999997E+02  0.45594000000E+02  0.51100000000E-03 0. -1.
         11   -1    0    0    0    0 -0.00000000000E+00 -0.00000000000E+00 -0.45593999997E+02  0.45594000000E+02  0.51100000000E-03 0.  1.
    9900012    2    1    2    0    0  0.16247789097E+02  0.26532159044E+02 -0.26176669904E+02  0.50528878498E+02  0.30000056681E+02 0.  0.
         12    1    1    2    0    0 -0.16247789097E+02 -0.26532159044E+02  0.26176669904E+02  0.40659121502E+02  0.00000000000E+00 0. -1.
         11    1    3    3    0    0  0.41256746830E+01  0.51656567183E+01  0.30772204809E+01  0.72920838634E+01  0.51100000000E-03 0. -1.
        -11    1    3    3    0    0 -0.47064309992E+00  0.17748435434E+02 -0.21965684492E+02  0.28243933167E+02  0.51100000000E-03 0.  1.
        -12    1    3    3    0    0  0.12592757514E+02  0.36180668912E+01 -0.72882058935E+01  0.14992861467E+02  0.00000000000E+00 0.  1.
</event>
<event>
 7    1  0.5748623E-013  0.5052889E+02  0.7816164E-02  0.1300439E+00
        -11   -1    0    0    0    0  0.00000000000E+00  0.00000000000E+00  0.45593999997E+02  0.45594000000E+02  0.51100000000E-03 0.  1.
         11   -1    0    0    0    0 -0.00000000000E+00 -0.00000000000E+00 -0.45593999997E+02  0.45594000000E+02  0.51100000000E-03 0. -1.
    9900012    2    1    2    0    0  0.15178207243E+02  0.26445509356E+02  0.26896473644E+02  0.50528889893E+02  0.30000091317E+02 0.  0.
         12    1    1    2    0    0 -0.15178207243E+02 -0.26445509356E+02 -0.26896473644E+02  0.40659110107E+02  0.00000000000E+00 0. -1.
         11    1    3    3    0    0  0.10261888483E+02  0.12211774194E+02  0.21167465548E+01  0.16090817271E+02  0.51100000000E-03 0. -1.
        -11    1    3    3    0    0  0.72144693043E-01  0.17631210280E+02  0.20986176498E+02  0.27409567400E+02  0.51100000000E-03 0.  1.
        -12    1    3    3    0    0  0.48441740668E+01 -0.33974751174E+01  0.37935505911E+01  0.70285052216E+01  0.00000000000E+00 0.  1.
</event>
<event>
 7    1  0.5748623E-013  0.5052887E+02  0.7816164E-02  0.1300439E+00
        -11   -1    0    0    0    0  0.00000000000E+00  0.00000000000E+00  0.45593999997E+02  0.45594000000E+02  0.51100000000E-03 0.  1.
         11   -1    0    0    0    0 -0.00000000000E+00 -0.00000000000E+00 -0.45593999997E+02  0.45594000000E+02  0.51100000000E-03 0. -1.
    9900012    2    1    2    0    0 -0.36230595055E+02  0.83475705045E+01  0.16456818512E+02  0.50528870313E+02  0.30000031803E+02 0.  0.
         12    1    1    2    0    0  0.36230595055E+02 -0.83475705045E+01 -0.16456818512E+02  0.40659129687E+02  0.00000000000E+00 0. -1.
         11    1    3    3    0    0  0.17464336184E+01 -0.89447121650E+00  0.36112349215E+01  0.41098816358E+01  0.51100000000E-03 0. -1.
        -11    1    3    3    0    0 -0.31251649448E+02  0.15845468269E+02  0.11612758341E+02  0.36913420519E+02  0.51100000000E-03 0.  1.
        -12    1    3    3    0    0 -0.67253792256E+01 -0.66034265483E+01  0.12328252500E+01  0.95055681578E+01  0.00000000000E+00 0.  1.
</event>
<event>
 7    1  0.5748623E-013  0.5052886E+02  0.7816164E-02  0.1300439E+00
        -11   -1    0    0    0    0  0.00000000000E+00  0.00000000000E+00  0.45593999997E+02  0.45594000000E+02  0.51100000000E-03 0. -1.
         11   -1    0    0    0    0 -0.00000000000E+00 -0.00000000000E+00 -0.45593999997E+02  0.45594000000E+02  0.51100000000E-03 0.  1.
    9900012    2    1    2    0    0 -0.11344948154E+02  0.37740716338E+02  0.10004810132E+02  0.50528859033E+02  0.29999997518E+02 0.  0.
         12    1    1    2    0    0  0.11344948154E+02 -0.37740716338E+02 -0.10004810132E+02  0.40659140967E+02  0.00000000000E+00 0. -1.
         11    1    3    3    0    0  0.21265266541E+01 -0.35615195327E+01 -0.37298547351E+00  0.41648115704E+01  0.51100000000E-03 0. -1.
        -11    1    3    3    0    0 -0.44694365723E+01  0.30233640265E+02  0.43275418151E+01  0.30867077694E+02  0.51100000000E-03 0.  1.
        -12    1    3    3    0    0 -0.90020382362E+01  0.11068595606E+02  0.60502537900E+01  0.15496969769E+02  0.00000000000E+00 0.  1.
</event>
<event>
 7    1  0.5748623E-013  0.5052887E+02  0.7816164E-02  0.1300439E+00
        -11   -1    0    0    0    0  0.00000000000E+00  0.00000000000E+00  0.45593999997E+02  0.45594000000E+02  0.51100000000E-03 0. -1.
         11   -1    0    0    0    0 -0.00000000000E+00 -0.00000000000E+00 -0.45593999997E+02  0.45594000000E+02  0.51100000000E-03 0.  1.
    9900012    2    1    2    0    0  0.83606379066E+01 -0.39227544235E+02 -0.66681639670E+01  0.50528869369E+02  0.30000028935E+02 0.  0.
         12    1    1    2    0    0 -0.83606379066E+01  0.39227544235E+02  0.66681639670E+01  0.40659130631E+02  0.00000000000E+00 0. -1.
         11    1    3    3    0    0  0.15823698196E+02 -0.19120079600E+02  0.39404424700E+01  0.25129543482E+02  0.51100000000E-03 0. -1.
        -11    1    3    3    0    0  0.14031385660E+01 -0.61394067502E+01 -0.45953543007E+01  0.77960499287E+01  0.51100000000E-03 0.  1.
         12    1    3    3    0    0 -0.88661988552E+01 -0.13968057885E+02 -0.60132521363E+01  0.17603275958E+02  0.00000000000E+00 0. -1.
</event>
<event>
 7    1  0.5748623E-013  0.5052886E+02  0.7816164E-02  0.1300439E+00
        -11   -1    0    0    0    0  0.00000000000E+00  0.00000000000E+00  0.45593999997E+02  0.45594000000E+02  0.51100000000E-03 0.  1.
         11   -1    0    0    0    0 -0.00000000000E+00 -0.00000000000E+00 -0.45593999997E+02  0.45594000000E+02  0.51100000000E-03 0. -1.
    9900012    2    1    2    0    0 -0.28097059089E+02 -0.29152749617E+02  0.37200169289E+01  0.50528855079E+02  0.29999985499E+02 0.  0.
         12    1    1    2    0    0  0.28097059089E+02  0.29152749617E+02 -0.37200169289E+01  0.40659144921E+02  0.00000000000E+00 0. -1.
         11    1    3    3    0    0 -0.22899694404E+02 -0.14688779368E+02  0.95792523873E+01  0.28842994291E+02  0.51100000000E-03 0. -1.
        -11    1    3    3    0    0 -0.10113900958E+01 -0.15087747282E+02 -0.87457755415E+00  0.15146878033E+02  0.51100000000E-03 0.  1.
        -12    1    3    3    0    0 -0.41859745901E+01  0.62377703341E+00 -0.49846579043E+01  0.65389827557E+01  0.00000000000E+00 0.  1.
</event>
<event>
 7    1  0.5748623E-013  0.5052888E+02  0.7816164E-02  0.1300439E+00
        -11   -1    0    0    0    0  0.00000000000E+00  0.00000000000E+00  0.45593999997E+02  0.45594000000E+02  0.51100000000E-03 0. -1.
         11   -1    0    0    0    0 -0.00000000000E+00 -0.00000000000E+00 -0.45593999997E+02  0.45594000000E+02  0.51100000000E-03 0.  1.
    9900012    2    1    2    0    0  0.26869546986E+02 -0.15884835797E+02 -0.26055011415E+02  0.50528878226E+02  0.30000055857E+02 0.  0.
         12    1    1    2    0    0 -0.26869546986E+02  0.15884835797E+02  0.26055011415E+02  0.40659121774E+02  0.00000000000E+00 0. -1.
         11    1    3    3    0    0  0.21600805987E+01  0.71983389112E+01 -0.88387842808E+01  0.11601988584E+02  0.51100000000E-03 0. -1.
        -11    1    3    3    0    0  0.18006066995E+02 -0.13581945639E+02 -0.74832900137E+01  0.23763150584E+02  0.51100000000E-03 0.  1.
         12    1    3    3    0    0  0.67033993925E+01 -0.95012290696E+01 -0.97329371209E+01  0.15163739059E+02  0.00000000000E+00 0. -1.
</event>
<event>
 7    1  0.5748623E-013  0.5052886E+02  0.7816164E-02  0.1300439E+00
        -11   -1    0    0    0    0  0.00000000000E+00  0.00000000000E+00  0.45593999997E+02  0.45594000000E+02  0.51100000000E-03 0.  1.
         11   -1    0    0    0    0 -0.00000000000E+00 -0.00000000000E+00 -0.45593999997E+02  0.45594000000E+02  0.51100000000E-03 0. -1.
    9900012    2    1    2    0    0  0.28382477039E+01  0.86272054620E+01  0.39631823794E+02  0.50528858576E+02  0.29999996127E+02 0.  0.
         12    1    1    2    0    0 -0.28382477039E+01 -0.86272054620E+01 -0.39631823794E+02  0.40659141424E+02  0.00000000000E+00 0. -1.
         11    1    3    3    0    0  0.97046733964E+01 -0.68023213052E+01  0.14066955805E+02  0.18393789896E+02  0.51100000000E-03 0. -1.
        -11    1    3    3    0    0 -0.13558114785E+01  0.13395203777E+02  0.16006261448E+02  0.20915786259E+02  0.51100000000E-03 0.  1.
         12    1    3    3    0    0 -0.55106142139E+01  0.20343229901E+01  0.95586065409E+01  0.11219282421E+02  0.00000000000E+00 0. -1.
</event>
<event>
 7    1  0.5748623E-013  0.5052886E+02  0.7816164E-02  0.1300439E+00
        -11   -1    0    0    0    0  0.00000000000E+00  0.00000000000E+00  0.45593999997E+02  0.45594000000E+02  0.51100000000E-03 0.  1.
         11   -1    0    0    0    0 -0.00000000000E+00 -0.00000000000E+00 -0.45593999997E+02  0.45594000000E+02  0.51100000000E-03 0. -1.
    9900012    2    1    2    0    0  0.18730985783E+02  0.18565526932E+02  0.30945708102E+02  0.50528862422E+02  0.30000007818E+02 0.  0.
         12    1    1    2    0    0 -0.18730985783E+02 -0.18565526932E+02 -0.30945708102E+02  0.40659137578E+02  0.00000000000E+00 0. -1.
         11    1    3    3    0    0 -0.63056924086E+01  0.11330672282E+01  0.10490313633E+02  0.12291959912E+02  0.51100000000E-03 0. -1.
        -11    1    3    3    0    0  0.12250785445E+02  0.86654727511E+01  0.16365439656E+02  0.22203598299E+02  0.51100000000E-03 0.  1.
         12    1    3    3    0    0  0.12785892747E+02  0.87669869532E+01  0.40899548121E+01  0.16033304211E+02  0.00000000000E+00 0. -1.
</event>
<event>
 7    1  0.5748623E-013  0.5052891E+02  0.7816164E-02  0.1300439E+00
        -11   -1    0    0    0    0  0.00000000000E+00  0.00000000000E+00  0.45593999997E+02  0.45594000000E+02  0.51100000000E-03 0.  1.
         11   -1    0    0    0    0 -0.00000000000E+00 -0.00000000000E+00 -0.45593999997E+02  0.45594000000E+02  0.51100000000E-03 0. -1.
    9900012    2    1    2    0    0  0.38468730946E+02 -0.48901882226E+01  0.12223123092E+02  0.50528905820E+02  0.30000139729E+02 0.  0.
         12    1    1    2    0    0 -0.38468730946E+02  0.48901882226E+01 -0.12223123092E+02  0.40659094180E+02  0.00000000000E+00 0. -1.
         11    1    3    3    0    0 -0.32646722472E+01  0.12798201855E+01  0.31288774327E+01  0.46995636860E+01  0.51100000000E-03 0. -1.
        -11    1    3    3    0    0  0.36689947177E+02 -0.76664410625E+01  0.12558633336E+02  0.39530315125E+02  0.51100000000E-03 0.  1.
        -12    1    3    3    0    0  0.50434560166E+01  0.14964326544E+01 -0.34643876762E+01  0.62990270083E+01  0.00000000000E+00 0.  1.
</event>
<event>
 7    1  0.5748623E-013  0.5052887E+02  0.7816164E-02  0.1300439E+00
        -11   -1    0    0    0    0  0.00000000000E+00  0.00000000000E+00  0.45593999997E+02  0.45594000000E+02  0.51100000000E-03 0.  1.
         11   -1    0    0    0    0 -0.00000000000E+00 -0.00000000000E+00 -0.45593999997E+02  0.45594000000E+02  0.51100000000E-03 0. -1.
    9900012    2    1    2    0    0 -0.18750350522E+02 -0.34390874841E+02  0.10902170310E+02  0.50528865301E+02  0.30000016569E+02 0.  0.
         12    1    1    2    0    0  0.18750350522E+02  0.34390874841E+02 -0.10902170310E+02  0.40659134699E+02  0.00000000000E+00 0. -1.
         11    1    3    3    0    0 -0.16102774652E+02 -0.93324517401E+01  0.46105334609E+01  0.19174228173E+02  0.51100000000E-03 0. -1.
        -11    1    3    3    0    0  0.20450688197E+00 -0.15890852657E+02  0.12240823315E+02  0.20059879784E+02  0.51100000000E-03 0.  1.
         12    1    3    3    0    0 -0.28520827521E+01 -0.91675704433E+01 -0.59491864667E+01  0.11294757345E+02  0.00000000000E+00 0. -1.
</event>
<event>
 7    1  0.5748623E-013  0.5052888E+02  0.7816164E-02  0.1300439E+00
        -11   -1    0    0    0    0  0.00000000000E+00  0.00000000000E+00  0.45593999997E+02  0.45594000000E+02  0.51100000000E-03 0.  1.
         11   -1    0    0    0    0 -0.00000000000E+00 -0.00000000000E+00 -0.45593999997E+02  0.45594000000E+02  0.51100000000E-03 0. -1.
    9900012    2    1    2    0    0 -0.25033479659E+02 -0.70904410835E+00  0.32031015846E+02  0.50528882652E+02  0.30000069310E+02 0.  0.
         12    1    1    2    0    0  0.25033479659E+02  0.70904410835E+00 -0.32031015846E+02  0.40659117348E+02  0.00000000000E+00 0. -1.
         11    1    3    3    0    0 -0.17688176747E+02  0.93352495412E+01  0.27562627557E+02  0.34054616702E+02  0.51100000000E-03 0.  1.
        -11    1    3    3    0    0 -0.32261568278E+01 -0.10634209017E+02  0.51662431472E+01  0.12254980939E+02  0.51100000000E-03 0. -1.
        -12    1    3    3    0    0 -0.41191460838E+01  0.58991536749E+00 -0.69785485840E+00  0.42192850110E+01  0.00000000000E+00 0.  1.
</event>
<event>
 7    1  0.5748623E-013  0.5052883E+02  0.7816164E-02  0.1300439E+00
        -11   -1    0    0    0    0  0.00000000000E+00  0.00000000000E+00  0.45593999997E+02  0.45594000000E+02  0.51100000000E-03 0. -1.
         11   -1    0    0    0    0 -0.00000000000E+00 -0.00000000000E+00 -0.45593999997E+02  0.45594000000E+02  0.51100000000E-03 0.  1.
    9900012    2    1    2    0    0  0.32482458214E+02 -0.22212436024E+02 -0.10230637984E+02  0.50528826874E+02  0.29999899765E+02 0.  0.
         12    1    1    2    0    0 -0.32482458214E+02  0.22212436024E+02  0.10230637984E+02  0.40659173126E+02  0.00000000000E+00 0. -1.
         11    1    3    3    0    0  0.44270082468E+01 -0.15099221771E+01 -0.94153527380E+01  0.10513188595E+02  0.51100000000E-03 0. -1.
        -11    1    3    3    0    0  0.24477792727E+02 -0.24587977047E+02 -0.12391555709E+01  0.34716947717E+02  0.51100000000E-03 0.  1.
        -12    1    3    3    0    0  0.35776572409E+01  0.38854631999E+01  0.42387032452E+00  0.52986905612E+01  0.00000000000E+00 0.  1.
</event>
<event>
 7    1  0.5748623E-013  0.5052887E+02  0.7816164E-02  0.1300439E+00
        -11   -1    0    0    0    0  0.00000000000E+00  0.00000000000E+00  0.45593999997E+02  0.45594000000E+02  0.51100000000E-03 0. -1.
         11   -1    0    0    0    0 -0.00000000000E+00 -0.00000000000E+00 -0.45593999997E+02  0.45594000000E+02  0.51100000000E-03 0.  1.
    9900012    2    1    2    0    0 -0.17820307336E+02 -0.19361735635E+02 -0.30995557835E+02  0.50528871063E+02  0.30000034084E+02 0.  0.
         12    1    1    2    0    0  0.17820307336E+02  0.19361735635E+02  0.30995557835E+02  0.40659128937E+02  0.00000000000E+00 0. -1.
         11    1    3    3    0    0 -0.62319124821E+00 -0.95159754258E+01  0.31331668436E+01  0.10037872801E+02  0.51100000000E-03 0. -1.
        -11    1    3    3    0    0 -0.38220820771E+01 -0.21592652673E+01 -0.16461099290E+02  0.17036388349E+02  0.51100000000E-03 0.  1.
         12    1    3    3    0    0 -0.13375034011E+02 -0.76864949421E+01 -0.17667625389E+02  0.23454609913E+02  0.00000000000E+00 0. -1.
</event>
<event>
 7    1  0.5748623E-013  0.5052885E+02  0.7816164E-02  0.1300439E+00
        -11   -1    0    0    0    0  0.00000000000E+00  0.00000000000E+00  0.45593999997E+02  0.45594000000E+02  0.51100000000E-03 0.  1.
         11   -1    0    0    0    0 -0.00000000000E+00 -0.00000000000E+00 -0.45593999997E+02  0.45594000000E+02  0.51100000000E-03 0. -1.
    9900012    2    1    2    0    0 -0.36211612023E+02 -0.79642679094E+01  0.16687000473E+02  0.50528851050E+02  0.29999973250E+02 0.  0.
         12    1    1    2    0    0  0.36211612023E+02  0.79642679094E+01 -0.16687000473E+02  0.40659148950E+02  0.00000000000E+00 0. -1.
         11    1    3    3    0    0 -0.15136242517E+02 -0.69219629852E+01 -0.54997987600E+01  0.17529038644E+02  0.51100000000E-03 0. -1.
        -11    1    3    3    0    0 -0.13577082145E+02 -0.44508659913E+01  0.19813782040E+02  0.24428125729E+02  0.51100000000E-03 0.  1.
         12    1    3    3    0    0 -0.74982873605E+01  0.34085610672E+01  0.23730171926E+01  0.85716866768E+01  0.00000000000E+00 0. -1.
</event>
<event>
 7    1  0.5748623E-013  0.5052887E+02  0.7816164E-02  0.1300439E+00
        -11   -1    0    0    0    0  0.00000000000E+00  0.00000000000E+00  0.45593999997E+02  0.45594000000E+02  0.51100000000E-03 0.  1.
         11   -1    0    0    0    0 -0.00000000000E+00 -0.00000000000E+00 -0.45593999997E+02  0.45594000000E+02  0.51100000000E-03 0. -1.
    9900012    2    1    2    0    0  0.13415770567E+02  0.36626254444E+02  0.11476053464E+02  0.50528865508E+02  0.30000017199E+02 0.  0.
         12    1    1    2    0    0 -0.13415770567E+02 -0.36626254444E+02 -0.11476053464E+02  0.40659134492E+02  0.00000000000E+00 0. -1.
         11    1    3    3    0    0  0.54923077959E+01  0.14291528504E+02 -0.26198539080E+01  0.15533089411E+02  0.51100000000E-03 0. -1.
        -11    1    3    3    0    0 -0.22747161115E+01 -0.16810790390E+01  0.75980034579E+01  0.81074050677E+01  0.51100000000E-03 0.  1.
        -12    1    3    3    0    0  0.10198178882E+02  0.24015804980E+02  0.64979039138E+01  0.26888371029E+02  0.00000000000E+00 0.  1.
</event>
<event>
 7    1  0.5748623E-013  0.5052892E+02  0.7816164E-02  0.1300439E+00
        -11   -1    0    0    0    0  0.00000000000E+00  0.00000000000E+00  0.45593999997E+02  0.45594000000E+02  0.51100000000E-03 0. -1.
         11   -1    0    0    0    0 -0.00000000000E+00 -0.00000000000E+00 -0.45593999997E+02  0.45594000000E+02  0.51100000000E-03 0.  1.
    9900012    2    1    2    0    0 -0.66770893327E+00 -0.31315952886E+02 -0.25923471646E+02  0.50528915867E+02  0.30000170268E+02 0.  0.
         12    1    1    2    0    0  0.66770893327E+00  0.31315952886E+02  0.25923471646E+02  0.40659084133E+02  0.00000000000E+00 0. -1.
         11    1    3    3    0    0 -0.91579944810E+00 -0.14238020545E+01  0.31676994636E+01  0.35916877749E+01  0.51100000000E-03 0. -1.
        -11    1    3    3    0    0  0.17778957391E+01 -0.10239315022E+02 -0.24620938978E+02  0.26724429307E+02  0.51100000000E-03 0.  1.
        -12    1    3    3    0    0 -0.15298052242E+01 -0.19652835810E+02 -0.44702321316E+01  0.20212798785E+02  0.00000000000E+00 0.  1.
</event>
<event>
 7    1  0.5748623E-013  0.5052887E+02  0.7816164E-02  0.1300439E+00
        -11   -1    0    0    0    0  0.00000000000E+00  0.00000000000E+00  0.45593999997E+02  0.45594000000E+02  0.51100000000E-03 0.  1.
         11   -1    0    0    0    0 -0.00000000000E+00 -0.00000000000E+00 -0.45593999997E+02  0.45594000000E+02  0.51100000000E-03 0. -1.
    9900012    2    1    2    0    0 -0.34054868836E+02  0.22152037913E+02  0.16486666433E+01  0.50528868470E+02  0.30000026200E+02 0.  0.
         12    1    1    2    0    0  0.34054868836E+02 -0.22152037913E+02 -0.16486666433E+01  0.40659131530E+02  0.00000000000E+00 0. -1.
         11    1    3    3    0    0 -0.39467781932E+01  0.72539684653E+00  0.48135839827E+01  0.62668851682E+01  0.51100000000E-03 0. -1.
        -11    1    3    3    0    0 -0.12227021700E+02  0.73132211663E+01 -0.13151443370E+02  0.19389268332E+02  0.51100000000E-03 0.  1.
        -12    1    3    3    0    0 -0.17881068943E+02  0.14113419900E+02  0.99865260302E+01  0.24872714970E+02  0.00000000000E+00 0.  1.
</event>
<event>
 7    1  0.5748623E-013  0.5052886E+02  0.7816164E-02  0.1300439E+00
        -11   -1    0    0    0    0  0.00000000000E+00  0.00000000000E+00  0.45593999997E+02  0.45594000000E+02  0.51100000000E-03 0.  1.
         11   -1    0    0    0    0 -0.00000000000E+00 -0.00000000000E+00 -0.45593999997E+02  0.45594000000E+02  0.51100000000E-03 0. -1.
    9900012    2    1    2    0    0 -0.32995301680E+02  0.23757989896E+02 -0.18343043418E+00  0.50528860024E+02  0.30000000529E+02 0.  0.
         12    1    1    2    0    0  0.32995301680E+02 -0.23757989896E+02  0.18343043418E+00  0.40659139976E+02  0.00000000000E+00 0. -1.
         11    1    3    3    0    0 -0.13330554094E+01 -0.77496055025E+00 -0.54232915219E+01  0.56382348099E+01  0.51100000000E-03 0. -1.
        -11    1    3    3    0    0 -0.29352979089E+02  0.21450421446E+02 -0.22956501975E+01  0.36427846103E+02  0.51100000000E-03 0.  1.
        -12    1    3    3    0    0 -0.23092671811E+01  0.30825290009E+01  0.75355112852E+01  0.84627791111E+01  0.00000000000E+00 0.  1.
</event>
<event>
 7    1  0.5748623E-013  0.5052886E+02  0.7816164E-02  0.1300439E+00
        -11   -1    0    0    0    0  0.00000000000E+00  0.00000000000E+00  0.45593999997E+02  0.45594000000E+02  0.51100000000E-03 0. -1.
         11   -1    0    0    0    0 -0.00000000000E+00 -0.00000000000E+00 -0.45593999997E+02  0.45594000000E+02  0.51100000000E-03 0.  1.
    9900012    2    1    2    0    0 -0.19042976533E+02 -0.25013641696E+02 -0.25784655640E+02  0.50528859667E+02  0.29999999443E+02 0.  0.
         12    1    1    2    0    0  0.19042976533E+02  0.25013641696E+02  0.25784655640E+02  0.40659140333E+02  0.00000000000E+00 0. -1.
         11    1    3    3    0    0  0.26597428465E+01 -0.10394150939E+01  0.16576946079E+01  0.33019036056E+01  0.51100000000E-03 0. -1.
        -11    1    3    3    0    0 -0.16978447526E+02 -0.34202102597E+01 -0.13244042215E+02  0.21802985416E+02  0.51100000000E-03 0.  1.
        -12    1    3    3    0    0 -0.47242718538E+01 -0.20554016342E+02 -0.14198308033E+02  0.25423970645E+02  0.00000000000E+00 0.  1.
</event>
<event>
 7    1  0.7600783E-013  0.5052886E+02  0.7816164E-02  0.1300439E+00
        -11   -1    0    0    0    0  0.00000000000E+00  0.00000000000E+00  0.45593999997E+02  0.45594000000E+02  0.51100000000E-03 0. -1.
         11   -1    0    0    0    0 -0.00000000000E+00 -0.00000000000E+00 -0.45593999997E+02  0.45594000000E+02  0.51100000000E-03 0.  1.
    9900012    2    1    2    0    0 -0.24699938291E+02  0.14148012146E+02 -0.29032961035E+02  0.50528855571E+02  0.29999986993E+02 0.  0.
         12    1    1    2    0    0  0.24699938291E+02 -0.14148012146E+02  0.29032961035E+02  0.40659144429E+02  0.00000000000E+00 0. -1.
         11    1    3    3    0    0 -0.11157428265E+02  0.16377140659E+01 -0.94186445597E-01  0.11277374881E+02  0.51100000000E-03 0. -1.
        -11    1    3    3    0    0  0.37299231798E+01  0.77390808276E+01 -0.98346126693E+01  0.13058533823E+02  0.51100000000E-03 0.  1.
        -12    1    3    3    0    0 -0.17272433206E+02  0.47712172528E+01 -0.19104161920E+02  0.26192946867E+02  0.00000000000E+00 0.  1.
</event>
<event>
 7    1  0.5748623E-013  0.5052885E+02  0.7816164E-02  0.1300439E+00
        -11   -1    0    0    0    0  0.00000000000E+00  0.00000000000E+00  0.45593999997E+02  0.45594000000E+02  0.51100000000E-03 0.  1.
         11   -1    0    0    0    0 -0.00000000000E+00 -0.00000000000E+00 -0.45593999997E+02  0.45594000000E+02  0.51100000000E-03 0. -1.
    9900012    2    1    2    0    0  0.17536499731E+02  0.36635202178E+02 -0.18706309483E+01  0.50528854392E+02  0.29999983410E+02 0.  0.
         12    1    1    2    0    0 -0.17536499731E+02 -0.36635202178E+02  0.18706309483E+01  0.40659145608E+02  0.00000000000E+00 0. -1.
         11    1    3    3    0    0  0.13345310071E+02  0.22705237429E+02 -0.41047342447E+01  0.26654717239E+02  0.51100000000E-03 0. -1.
        -11    1    3    3    0    0 -0.62658517883E+01  0.72151086469E+01 -0.35141578413E+01  0.10181748230E+02  0.51100000000E-03 0.  1.
        -12    1    3    3    0    0  0.10457041448E+02  0.67148561023E+01  0.57482611378E+01  0.13692388924E+02  0.00000000000E+00 0.  1.
</event>
<event>
 7    1  0.5748623E-013  0.5052886E+02  0.7816164E-02  0.1300439E+00
        -11   -1    0    0    0    0  0.00000000000E+00  0.00000000000E+00  0.45593999997E+02  0.45594000000E+02  0.51100000000E-03 0. -1.
         11   -1    0    0    0    0 -0.00000000000E+00 -0.00000000000E+00 -0.45593999997E+02  0.45594000000E+02  0.51100000000E-03 0.  1.
    9900012    2    1    2    0    0  0.37506789597E+02 -0.13753528681E+02 -0.75661707923E+01  0.50528858869E+02  0.29999997018E+02 0.  0.
         12    1    1    2    0    0 -0.37506789597E+02  0.13753528681E+02  0.75661707923E+01  0.40659141131E+02  0.00000000000E+00 0. -1.
         11    1    3    3    0    0  0.39680944903E+01 -0.39400713376E+01  0.86525100660E+01  0.10302226300E+02  0.51100000000E-03 0. -1.
        -11    1    3    3    0    0  0.22849298230E+02 -0.20629371204E+01 -0.65418499333E+01  0.23856695914E+02  0.51100000000E-03 0.  1.
         12    1    3    3    0    0  0.10689396877E+02 -0.77505202233E+01 -0.96768309250E+01  0.16369936655E+02  0.00000000000E+00 0. -1.
</event>
<event>
 7    1  0.5748623E-013  0.5052887E+02  0.7816164E-02  0.1300439E+00
        -11   -1    0    0    0    0  0.00000000000E+00  0.00000000000E+00  0.45593999997E+02  0.45594000000E+02  0.51100000000E-03 0.  1.
         11   -1    0    0    0    0 -0.00000000000E+00 -0.00000000000E+00 -0.45593999997E+02  0.45594000000E+02  0.51100000000E-03 0. -1.
    9900012    2    1    2    0    0  0.40065848390E+02 -0.60031897450E+01  0.34430584741E+01  0.50528866390E+02  0.30000019878E+02 0.  0.
         12    1    1    2    0    0 -0.40065848390E+02  0.60031897450E+01 -0.34430584741E+01  0.40659133610E+02  0.00000000000E+00 0. -1.
         11    1    3    3    0    0  0.29496907880E+01 -0.72415956899E+01  0.51203222305E+01  0.93466081487E+01  0.51100000000E-03 0. -1.
        -11    1    3    3    0    0  0.24455379896E+02  0.47740462139E+01 -0.85572546335E+01  0.26345468875E+02  0.51100000000E-03 0.  1.
        -12    1    3    3    0    0  0.12660777706E+02 -0.35356402690E+01  0.68799908771E+01  0.14836789366E+02  0.00000000000E+00 0.  1.
</event>
<event>
 7    1  0.5748623E-013  0.5052886E+02  0.7816164E-02  0.1300439E+00
        -11   -1    0    0    0    0  0.00000000000E+00  0.00000000000E+00  0.45593999997E+02  0.45594000000E+02  0.51100000000E-03 0. -1.
         11   -1    0    0    0    0 -0.00000000000E+00 -0.00000000000E+00 -0.45593999997E+02  0.45594000000E+02  0.51100000000E-03 0.  1.
    9900012    2    1    2    0    0  0.28272010165E+02 -0.14854150546E+02 -0.25163734195E+02  0.50528857537E+02  0.29999992970E+02 0.  0.
         12    1    1    2    0    0 -0.28272010165E+02  0.14854150546E+02  0.25163734195E+02  0.40659142463E+02  0.00000000000E+00 0. -1.
         11    1    3    3    0    0  0.36668961853E+01 -0.47945480235E+01  0.14412823031E+01  0.62057322954E+01  0.51100000000E-03 0. -1.
        -11    1    3    3    0    0  0.55638758931E+01 -0.30894629431E+01 -0.22826681287E+02  0.23697233490E+02  0.51100000000E-03 0.  1.
        -12    1    3    3    0    0  0.19041238086E+02 -0.69701395794E+01 -0.37783352107E+01  0.20625891752E+02  0.00000000000E+00 0.  1.
</event>
<event>
 7    1  0.5748623E-013  0.5052887E+02  0.7816164E-02  0.1300439E+00
        -11   -1    0    0    0    0  0.00000000000E+00  0.00000000000E+00  0.45593999997E+02  0.45594000000E+02  0.51100000000E-03 0.  1.
         11   -1    0    0    0    0 -0.00000000000E+00 -0.00000000000E+00 -0.45593999997E+02  0.45594000000E+02  0.51100000000E-03 0. -1.
    9900012    2    1    2    0    0 -0.21324600870E+02 -0.18623264353E+02  0.29182186841E+02  0.50528873026E+02  0.30000040051E+02 0.  0.
         12    1    1    2    0    0  0.21324600870E+02  0.18623264353E+02 -0.29182186841E+02  0.40659126974E+02  0.00000000000E+00 0. -1.
         11    1    3    3    0    0 -0.21022561932E+02 -0.44252312797E+01  0.13246041207E+02  0.25238628924E+02  0.51100000000E-03 0. -1.
        -11    1    3    3    0    0  0.25745635771E+01 -0.66544589965E+01  0.15663653367E+02  0.17212211921E+02  0.51100000000E-03 0.  1.
        -12    1    3    3    0    0 -0.28766025154E+01 -0.75435740767E+01  0.27249226698E+00  0.80780321811E+01  0.00000000000E+00 0.  1.
</event>
<event>
 7    1  0.5748623E-013  0.5052880E+02  0.7816164E-02  0.1300439E+00
        -11   -1    0    0    0    0  0.00000000000E+00  0.00000000000E+00  0.45593999997E+02  0.45594000000E+02  0.51100000000E-03 0.  1.
         11   -1    0    0    0    0 -0.00000000000E+00 -0.00000000000E+00 -0.45593999997E+02  0.45594000000E+02  0.51100000000E-03 0. -1.
    9900012    2    1    2    0    0  0.89118077068E+01 -0.38028136053E+02  0.11296497668E+02  0.50528802912E+02  0.29999826932E+02 0.  0.
         12    1    1    2    0    0 -0.89118077068E+01  0.38028136053E+02 -0.11296497668E+02  0.40659197088E+02  0.00000000000E+00 0. -1.
         11    1    3    3    0    0  0.23153011851E+01 -0.49574987270E+01 -0.81154590491E+01  0.97876498224E+01  0.51100000000E-03 0. -1.
        -11    1    3    3    0    0 -0.31438545018E+00 -0.21465841990E+02  0.75254911679E+01  0.22748939055E+02  0.51100000000E-03 0.  1.
         12    1    3    3    0    0  0.69108919719E+01 -0.11604795336E+02  0.11886465550E+02  0.17992214035E+02  0.00000000000E+00 0. -1.
</event>
<event>
 7    1  0.5748623E-013  0.5052885E+02  0.7816164E-02  0.1300439E+00
        -11   -1    0    0    0    0  0.00000000000E+00  0.00000000000E+00  0.45593999997E+02  0.45594000000E+02  0.51100000000E-03 0.  1.
         11   -1    0    0    0    0 -0.00000000000E+00 -0.00000000000E+00 -0.45593999997E+02  0.45594000000E+02  0.51100000000E-03 0. -1.
    9900012    2    1    2    0    0 -0.36488259300E+01 -0.38219017891E+02 -0.13385025479E+02  0.50528853842E+02  0.29999981737E+02 0.  0.
         12    1    1    2    0    0  0.36488259300E+01  0.38219017891E+02  0.13385025479E+02  0.40659146158E+02  0.00000000000E+00 0. -1.
         11    1    3    3    0    0 -0.47915510410E-01 -0.10785202131E+02 -0.90269055900E+01  0.14064419849E+02  0.51100000000E-03 0. -1.
        -11    1    3    3    0    0 -0.10793937109E+02 -0.15137909697E+02  0.52049245904E+01  0.19306906240E+02  0.51100000000E-03 0.  1.
        -12    1    3    3    0    0  0.71930266892E+01 -0.12295906064E+02 -0.95630444792E+01  0.17157527753E+02  0.00000000000E+00 0.  1.
</event>
<event>
 7    1  0.5748623E-013  0.5052886E+02  0.7816164E-02  0.1300439E+00
        -11   -1    0    0    0    0  0.00000000000E+00  0.00000000000E+00  0.45593999997E+02  0.45594000000E+02  0.51100000000E-03 0. -1.
         11   -1    0    0    0    0 -0.00000000000E+00 -0.00000000000E+00 -0.45593999997E+02  0.45594000000E+02  0.51100000000E-03 0.  1.
    9900012    2    1    2    0    0 -0.23649291039E+02 -0.17654372017E+02 -0.27967836740E+02  0.50528859455E+02  0.29999998798E+02 0.  0.
         12    1    1    2    0    0  0.23649291039E+02  0.17654372017E+02  0.27967836740E+02  0.40659140545E+02  0.00000000000E+00 0. -1.
         11    1    3    3    0    0 -0.27559986981E+00 -0.34621379923E+01 -0.19486991515E+02  0.19794069651E+02  0.51100000000E-03 0. -1.
        -11    1    3    3    0    0 -0.19451099348E+02 -0.60692122221E+01 -0.44584357179E+01  0.20858050056E+02  0.51100000000E-03 0.  1.
         12    1    3    3    0    0 -0.39225918217E+01 -0.81230218027E+01 -0.40224095073E+01  0.98767397480E+01  0.00000000000E+00 0. -1.
</event>
<event>
 7    1  0.5748623E-013  0.5052886E+02  0.7816164E-02  0.1300439E+00
        -11   -1    0    0    0    0  0.00000000000E+00  0.00000000000E+00  0.45593999997E+02  0.45594000000E+02  0.51100000000E-03 0.  1.
         11   -1    0    0    0    0 -0.00000000000E+00 -0.00000000000E+00 -0.45593999997E+02  0.45594000000E+02  0.51100000000E-03 0. -1.
    9900012    2    1    2    0    0 -0.25194471337E+02  0.19949439239E+02 -0.24908319281E+02  0.50528857347E+02  0.29999992391E+02 0.  0.
         12    1    1    2    0    0  0.25194471337E+02 -0.19949439239E+02  0.24908319281E+02  0.40659142653E+02  0.00000000000E+00 0. -1.
         11    1    3    3    0    0  0.58306087694E+01  0.32234199796E+01 -0.43816983553E+01  0.79740651944E+01  0.51100000000E-03 0. -1.
        -11    1    3    3    0    0 -0.23994610046E+02  0.64864517491E+01 -0.13756038740E+02  0.28408519314E+02  0.51100000000E-03 0.  1.
        -12    1    3    3    0    0 -0.70304700602E+01  0.10239567511E+02 -0.67705821856E+01  0.14146272838E+02  0.00000000000E+00 0.  1.
</event>
<event>
 7    1  0.5748623E-013  0.5052884E+02  0.7816164E-02  0.1300439E+00
        -11   -1    0    0    0    0  0.00000000000E+00  0.00000000000E+00  0.45593999997E+02  0.45594000000E+02  0.51100000000E-03 0.  1.
         11   -1    0    0    0    0 -0.00000000000E+00 -0.00000000000E+00 -0.45593999997E+02  0.45594000000E+02  0.51100000000E-03 0. -1.
    9900012    2    1    2    0    0  0.24077270049E+02 -0.32724124503E+02 -0.16075532227E+01  0.50528837627E+02  0.29999932452E+02 0.  0.
         12    1    1    2    0    0 -0.24077270049E+02  0.32724124503E+02  0.16075532227E+01  0.40659162373E+02  0.00000000000E+00 0. -1.
         11    1    3    3    0    0 -0.45790726937E+01 -0.14984165125E+01  0.22159625578E+01  0.53031734930E+01  0.51100000000E-03 0. -1.
        -11    1    3    3    0    0  0.99949844221E+01 -0.17207181383E+02  0.45783008976E+01  0.20419295877E+02  0.51100000000E-03 0.  1.
         12    1    3    3    0    0  0.18661358321E+02 -0.14018526607E+02 -0.84018166781E+01  0.24806368257E+02  0.00000000000E+00 0. -1.
</event>
<event>
 7    1  0.5748623E-013  0.5052886E+02  0.7816164E-02  0.1300439E+00
        -11   -1    0    0    0    0  0.00000000000E+00  0.00000000000E+00  0.45593999997E+02  0.45594000000E+02  0.51100000000E-03 0. -1.
         11   -1    0    0    0    0 -0.00000000000E+00 -0.00000000000E+00 -0.45593999997E+02  0.45594000000E+02  0.51100000000E-03 0.  1.
    9900012    2    1    2    0    0  0.23604893501E+02  0.29750310787E+02 -0.14522171242E+02  0.50528862691E+02  0.30000008637E+02 0.  0.
         12    1    1    2    0    0 -0.23604893501E+02 -0.29750310787E+02  0.14522171242E+02  0.40659137309E+02  0.00000000000E+00 0. -1.
         11    1    3    3    0    0  0.99211451709E+00  0.19474958231E+02  0.10184274736E+01  0.19526788884E+02  0.51100000000E-03 0. -1.
        -11    1    3    3    0    0  0.14627761997E+02  0.94380942643E+01 -0.57346143476E+01  0.18328525482E+02  0.51100000000E-03 0.  1.
         12    1    3    3    0    0  0.79850169873E+01  0.83725829078E+00 -0.98059843681E+01  0.12673548326E+02  0.00000000000E+00 0. -1.
</event>
<event>
 7    1  0.5748623E-013  0.5052885E+02  0.7816164E-02  0.1300439E+00
        -11   -1    0    0    0    0  0.00000000000E+00  0.00000000000E+00  0.45593999997E+02  0.45594000000E+02  0.51100000000E-03 0.  1.
         11   -1    0    0    0    0 -0.00000000000E+00 -0.00000000000E+00 -0.45593999997E+02  0.45594000000E+02  0.51100000000E-03 0. -1.
    9900012    2    1    2    0    0  0.36403580307E+02  0.77735636003E+01  0.16355954972E+02  0.50528853264E+02  0.29999979982E+02 0.  0.
         12    1    1    2    0    0 -0.36403580307E+02 -0.77735636003E+01 -0.16355954972E+02  0.40659146736E+02  0.00000000000E+00 0. -1.
         11    1    3    3    0    0  0.42430091284E+01 -0.89591740921E+00  0.63365842082E+01  0.76784174253E+01  0.51100000000E-03 0. -1.
        -11    1    3    3    0    0  0.14447982505E+02  0.16793747419E+02  0.46311628083E+01  0.22632318044E+02  0.51100000000E-03 0.  1.
        -12    1    3    3    0    0  0.17712588674E+02 -0.81242664090E+01  0.53882079551E+01  0.20218117795E+02  0.00000000000E+00 0.  1.
</event>
<event>
 7    1  0.5748623E-013  0.5052885E+02  0.7816164E-02  0.1300439E+00
        -11   -1    0    0    0    0  0.00000000000E+00  0.00000000000E+00  0.45593999997E+02  0.45594000000E+02  0.51100000000E-03 0.  1.
         11   -1    0    0    0    0 -0.00000000000E+00 -0.00000000000E+00 -0.45593999997E+02  0.45594000000E+02  0.51100000000E-03 0. -1.
    9900012    2    1    2    0    0  0.16293310944E+02  0.89348240226E+01  0.36164395779E+02  0.50528848707E+02  0.29999966129E+02 0.  0.
         12    1    1    2    0    0 -0.16293310944E+02 -0.89348240226E+01 -0.36164395779E+02  0.40659151293E+02  0.00000000000E+00 0. -1.
         11    1    3    3    0    0 -0.34706508718E+01 -0.24554720186E+01  0.17990419364E+02  0.18485939237E+02  0.51100000000E-03 0. -1.
        -11    1    3    3    0    0  0.12354043701E+02 -0.23425794151E+00  0.64081138635E+01  0.13919094658E+02  0.51100000000E-03 0.  1.
         12    1    3    3    0    0  0.74099181156E+01  0.11624553983E+02  0.11765862551E+02  0.18123814812E+02  0.00000000000E+00 0. -1.
</event>
<event>
 7    1  0.5748623E-013  0.5052886E+02  0.7816164E-02  0.1300439E+00
        -11   -1    0    0    0    0  0.00000000000E+00  0.00000000000E+00  0.45593999997E+02  0.45594000000E+02  0.51100000000E-03 0.  1.
         11   -1    0    0    0    0 -0.00000000000E+00 -0.00000000000E+00 -0.45593999997E+02  0.45594000000E+02  0.51100000000E-03 0. -1.
    9900012    2    1    2    0    0  0.28831074411E+02 -0.22084888367E+02  0.18280933396E+02  0.50528859924E+02  0.30000000226E+02 0.  0.
         12    1    1    2    0    0 -0.28831074411E+02  0.22084888367E+02 -0.18280933396E+02  0.40659140076E+02  0.00000000000E+00 0. -1.
         11    1    3    3    0    0 -0.41443369438E+00  0.21141130264E+01  0.11509834561E+02  0.11709719085E+02  0.51100000000E-03 0. -1.
        -11    1    3    3    0    0  0.95145243954E+01 -0.10693258938E+02  0.25784340273E+01  0.14543736916E+02  0.51100000000E-03 0.  1.
         12    1    3    3    0    0  0.19730983710E+02 -0.13505742456E+02  0.41926648075E+01  0.24275403923E+02  0.00000000000E+00 0. -1.
</event>
<event>
 7    1  0.5748623E-013  0.5052886E+02  0.7816164E-02  0.1300439E+00
        -11   -1    0    0    0    0  0.00000000000E+00  0.00000000000E+00  0.45593999997E+02  0.45594000000E+02  0.51100000000E-03 0.  1.
         11   -1    0    0    0    0 -0.00000000000E+00 -0.00000000000E+00 -0.45593999997E+02  0.45594000000E+02  0.51100000000E-03 0. -1.
    9900012    2    1    2    0    0 -0.16343080490E+01  0.73292046688E+01  0.39959697496E+02  0.50528860463E+02  0.30000001864E+02 0.  0.
         12    1    1    2    0    0  0.16343080490E+01 -0.73292046688E+01 -0.39959697496E+02  0.40659139537E+02  0.00000000000E+00 0. -1.
         11    1    3    3    0    0 -0.74302891051E+01 -0.53689997817E+01  0.34170435415E+02  0.35378722583E+02  0.51100000000E-03 0.  1.
        -11    1    3    3    0    0  0.34877406121E+01  0.85237599727E+01  0.34218669257E+01  0.98248660127E+01  0.51100000000E-03 0. -1.
        -12    1    3    3    0    0  0.23082404440E+01  0.41744444777E+01  0.23673951553E+01  0.53252718678E+01  0.00000000000E+00 0.  1.
</event>
<event>
 7    1  0.5748623E-013  0.5052875E+02  0.7816164E-02  0.1300439E+00
        -11   -1    0    0    0    0  0.00000000000E+00  0.00000000000E+00  0.45593999997E+02  0.45594000000E+02  0.51100000000E-03 0.  1.
         11   -1    0    0    0    0 -0.00000000000E+00 -0.00000000000E+00 -0.45593999997E+02  0.45594000000E+02  0.51100000000E-03 0. -1.
    9900012    2    1    2    0    0  0.24029254475E+02 -0.84720891263E+01  0.31685846967E+02  0.50528754277E+02  0.29999679098E+02 0.  0.
         12    1    1    2    0    0 -0.24029254475E+02  0.84720891263E+01 -0.31685846967E+02  0.40659245723E+02  0.00000000000E+00 0. -1.
         11    1    3    3    0    0 -0.41166681711E+01 -0.26866445752E+00  0.55283310396E+01  0.68979404003E+01  0.51100000000E-03 0. -1.
        -11    1    3    3    0    0  0.11328606369E+02 -0.81257376982E+01  0.18370046290E+01  0.14061988539E+02  0.51100000000E-03 0.  1.
        -12    1    3    3    0    0  0.16817316277E+02 -0.77686970638E-01  0.24320511299E+02  0.29568825338E+02  0.00000000000E+00 0.  1.
</event>
<event>
 7    1  0.5748623E-013  0.5052886E+02  0.7816164E-02  0.1300439E+00
        -11   -1    0    0    0    0  0.00000000000E+00  0.00000000000E+00  0.45593999997E+02  0.45594000000E+02  0.51100000000E-03 0. -1.
         11   -1    0    0    0    0 -0.00000000000E+00 -0.00000000000E+00 -0.45593999997E+02  0.45594000000E+02  0.51100000000E-03 0.  1.
    9900012    2    1    2    0    0 -0.23453060809E+01  0.37602436034E+02 -0.15287972042E+02  0.50528859017E+02  0.29999997469E+02 0.  0.
         12    1    1    2    0    0  0.23453060809E+01 -0.37602436034E+02  0.15287972042E+02  0.40659140983E+02  0.00000000000E+00 0. -1.
         11    1    3    3    0    0  0.19805450648E+01  0.99492656376E+01 -0.14969271391E+02  0.18082851869E+02  0.51100000000E-03 0. -1.
        -11    1    3    3    0    0 -0.64310141282E+01  0.29033190840E+02  0.66265946629E+00  0.29744297451E+02  0.51100000000E-03 0.  1.
        -12    1    3    3    0    0  0.21051629826E+01 -0.13800204433E+01 -0.98136011688E+00  0.27017096969E+01  0.00000000000E+00 0.  1.
</event>
<event>
 7    1  0.5748623E-013  0.5052887E+02  0.7816164E-02  0.1300439E+00
        -11   -1    0    0    0    0  0.00000000000E+00  0.00000000000E+00  0.45593999997E+02  0.45594000000E+02  0.51100000000E-03 0.  1.
         11   -1    0    0    0    0 -0.00000000000E+00 -0.00000000000E+00 -0.45593999997E+02  0.45594000000E+02  0.51100000000E-03 0. -1.
    9900012    2    1    2    0    0 -0.23723895490E+00  0.22800490162E+02  0.33663725289E+02  0.50528867763E+02  0.30000024052E+02 0.  0.
         12    1    1    2    0    0  0.23723895490E+00 -0.22800490162E+02 -0.33663725289E+02  0.40659132237E+02  0.00000000000E+00 0. -1.
         11    1    3    3    0    0 -0.21919951345E+01 -0.16249547886E+01  0.37203776202E+01  0.46137328306E+01  0.51100000000E-03 0. -1.
        -11    1    3    3    0    0  0.97460890850E+01  0.17604433739E+02  0.29294350978E+02  0.35539574269E+02  0.51100000000E-03 0.  1.
        -12    1    3    3    0    0 -0.77913329054E+01  0.68210112110E+01  0.64899669119E+00  0.10375560664E+02  0.00000000000E+00 0.  1.
</event>
<event>
 7    1  0.5748623E-013  0.5052886E+02  0.7816164E-02  0.1300439E+00
        -11   -1    0    0    0    0  0.00000000000E+00  0.00000000000E+00  0.45593999997E+02  0.45594000000E+02  0.51100000000E-03 0. -1.
         11   -1    0    0    0    0 -0.00000000000E+00 -0.00000000000E+00 -0.45593999997E+02  0.45594000000E+02  0.51100000000E-03 0.  1.
    9900012    2    1    2    0    0 -0.29315259129E+01  0.35351524746E+02 -0.19870612440E+02  0.50528863452E+02  0.30000010950E+02 0.  0.
         12    1    1    2    0    0  0.29315259129E+01 -0.35351524746E+02  0.19870612440E+02  0.40659136548E+02  0.00000000000E+00 0. -1.
         11    1    3    3    0    0 -0.29502042713E+01 -0.34955162423E+01 -0.50352267909E+01  0.68026353820E+01  0.51100000000E-03 0. -1.
        -11    1    3    3    0    0  0.51063969490E+01  0.30680927081E+02 -0.86325389489E+01  0.32278712882E+02  0.51100000000E-03 0.  1.
         12    1    3    3    0    0 -0.50877185905E+01  0.81661139081E+01 -0.62028466999E+01  0.11447515189E+02  0.00000000000E+00 0. -1.
</event>
<event>
 7    1  0.5748623E-013  0.5052887E+02  0.7816164E-02  0.1300439E+00
        -11   -1    0    0    0    0  0.00000000000E+00  0.00000000000E+00  0.45593999997E+02  0.45594000000E+02  0.51100000000E-03 0.  1.
         11   -1    0    0    0    0 -0.00000000000E+00 -0.00000000000E+00 -0.45593999997E+02  0.45594000000E+02  0.51100000000E-03 0. -1.
    9900012    2    1    2    0    0 -0.67110746168E+01 -0.32323473520E+02  0.23734358973E+02  0.50528865002E+02  0.30000015659E+02 0.  0.
         12    1    1    2    0    0  0.67110746168E+01  0.32323473520E+02 -0.23734358973E+02  0.40659134998E+02  0.00000000000E+00 0. -1.
         11    1    3    3    0    0 -0.66247086753E+01 -0.28505445446E-01  0.15003808371E+01  0.67925488965E+01  0.51100000000E-03 0. -1.
        -11    1    3    3    0    0  0.58178266764E+00 -0.31505089194E+02  0.25357189075E+02  0.40446213101E+02  0.51100000000E-03 0.  1.
        -12    1    3    3    0    0 -0.66814860910E+00 -0.78987888137E+00 -0.31232109387E+01  0.32901030043E+01  0.00000000000E+00 0.  1.
</event>
<event>
 7    1  0.5748623E-013  0.5052887E+02  0.7816164E-02  0.1300439E+00
        -11   -1    0    0    0    0  0.00000000000E+00  0.00000000000E+00  0.45593999997E+02  0.45594000000E+02  0.51100000000E-03 0. -1.
         11   -1    0    0    0    0 -0.00000000000E+00 -0.00000000000E+00 -0.45593999997E+02  0.45594000000E+02  0.51100000000E-03 0.  1.
    9900012    2    1    2    0    0 -0.35254039528E+01  0.40493610186E+02 -0.10020726508E+01  0.50528867095E+02  0.30000022023E+02 0.  0.
         12    1    1    2    0    0  0.35254039528E+01 -0.40493610186E+02  0.10020726508E+01  0.40659132905E+02  0.00000000000E+00 0. -1.
         11    1    3    3    0    0 -0.57418939276E+01  0.42259435689E+01  0.41391695324E+01  0.82438261506E+01  0.51100000000E-03 0. -1.
        -11    1    3    3    0    0  0.18213909093E+01  0.37951895112E+02 -0.12381452962E+01  0.38015744258E+02  0.51100000000E-03 0.  1.
         12    1    3    3    0    0  0.39509906540E+00 -0.16842284944E+01 -0.39030968870E+01  0.42692966871E+01  0.00000000000E+00 0. -1.
</event>
<event>
 7    1  0.5748623E-013  0.5052886E+02  0.7816164E-02  0.1300439E+00
        -11   -1    0    0    0    0  0.00000000000E+00  0.00000000000E+00  0.45593999997E+02  0.45594000000E+02  0.51100000000E-03 0. -1.
         11   -1    0    0    0    0 -0.00000000000E+00 -0.00000000000E+00 -0.45593999997E+02  0.45594000000E+02  0.51100000000E-03 0.  1.
    9900012    2    1    2    0    0  0.14063841801E+02 -0.19407671826E+02 -0.32843817803E+02  0.50528859087E+02  0.29999997682E+02 0.  0.
         12    1    1    2    0    0 -0.14063841801E+02  0.19407671826E+02  0.32843817803E+02  0.40659140913E+02  0.00000000000E+00 0. -1.
         11    1    3    3    0    0 -0.60776307328E+00 -0.29275014293E+01 -0.28681329422E+00  0.30036482316E+01  0.51100000000E-03 0. -1.
        -11    1    3    3    0    0  0.21420758394E+02 -0.67504965793E+01 -0.24299363446E+02  0.33088928033E+02  0.51100000000E-03 0.  1.
        -12    1    3    3    0    0 -0.67491535193E+01 -0.97296738175E+01 -0.82576410625E+01  0.14436282823E+02  0.00000000000E+00 0.  1.
</event>
<event>
 7    1  0.5748623E-013  0.5052886E+02  0.7816164E-02  0.1300439E+00
        -11   -1    0    0    0    0  0.00000000000E+00  0.00000000000E+00  0.45593999997E+02  0.45594000000E+02  0.51100000000E-03 0.  1.
         11   -1    0    0    0    0 -0.00000000000E+00 -0.00000000000E+00 -0.45593999997E+02  0.45594000000E+02  0.51100000000E-03 0. -1.
    9900012    2    1    2    0    0 -0.31038163336E+02 -0.85395726744E+01  0.24836943141E+02  0.50528860445E+02  0.30000001809E+02 0.  0.
         12    1    1    2    0    0  0.31038163336E+02  0.85395726744E+01 -0.24836943141E+02  0.40659139555E+02  0.00000000000E+00 0. -1.
         11    1    3    3    0    0  0.17857010776E+01  0.67289090660E+01  0.33232115259E+01  0.77143166038E+01  0.51100000000E-03 0. -1.
        -11    1    3    3    0    0 -0.19236430420E+02 -0.12699585941E+02  0.15217219001E+02  0.27620345631E+02  0.51100000000E-03 0.  1.
         12    1    3    3    0    0 -0.13587433994E+02 -0.25688957992E+01  0.62965126136E+01  0.15194198210E+02  0.00000000000E+00 0. -1.
</event>
<event>
 7    1  0.5748623E-013  0.5052888E+02  0.7816164E-02  0.1300439E+00
        -11   -1    0    0    0    0  0.00000000000E+00  0.00000000000E+00  0.45593999997E+02  0.45594000000E+02  0.51100000000E-03 0.  1.
         11   -1    0    0    0    0 -0.00000000000E+00 -0.00000000000E+00 -0.45593999997E+02  0.45594000000E+02  0.51100000000E-03 0. -1.
    9900012    2    1    2    0    0 -0.13466475153E+02  0.76288699451E+01  0.37598120499E+02  0.50528877103E+02  0.30000052443E+02 0.  0.
         12    1    1    2    0    0  0.13466475153E+02 -0.76288699451E+01 -0.37598120499E+02  0.40659122897E+02  0.00000000000E+00 0. -1.
         11    1    3    3    0    0  0.30652337019E+01 -0.12853716041E+01  0.75953240104E+01  0.82907650366E+01  0.51100000000E-03 0. -1.
        -11    1    3    3    0    0 -0.12207642681E+02  0.32418344537E+01  0.13405168322E+01  0.12701693434E+02  0.51100000000E-03 0.  1.
        -12    1    3    3    0    0 -0.43240661732E+01  0.56724070956E+01  0.28662279656E+02  0.29536418632E+02  0.00000000000E+00 0.  1.
</event>
<event>
 7    1  0.5748623E-013  0.5052886E+02  0.7816164E-02  0.1300439E+00
        -11   -1    0    0    0    0  0.00000000000E+00  0.00000000000E+00  0.45593999997E+02  0.45594000000E+02  0.51100000000E-03 0. -1.
         11   -1    0    0    0    0 -0.00000000000E+00 -0.00000000000E+00 -0.45593999997E+02  0.45594000000E+02  0.51100000000E-03 0.  1.
    9900012    2    1    2    0    0  0.25761619147E+02 -0.31300494200E+02 -0.31279482939E+01  0.50528855656E+02  0.29999987253E+02 0.  0.
         12    1    1    2    0    0 -0.25761619147E+02  0.31300494200E+02  0.31279482939E+01  0.40659144344E+02  0.00000000000E+00 0. -1.
         11    1    3    3    0    0 -0.26887201474E+01 -0.44731898836E+00  0.18847794298E+01  0.33138654271E+01  0.51100000000E-03 0. -1.
        -11    1    3    3    0    0  0.18097994345E+02 -0.19668065271E+02  0.72048498171E+01  0.27681763888E+02  0.51100000000E-03 0.  1.
        -12    1    3    3    0    0  0.10352344949E+02 -0.11185109941E+02 -0.12217577541E+02  0.19533226341E+02  0.00000000000E+00 0.  1.
</event>
<event>
 7    1  0.5748623E-013  0.5052886E+02  0.7816164E-02  0.1300439E+00
        -11   -1    0    0    0    0  0.00000000000E+00  0.00000000000E+00  0.45593999997E+02  0.45594000000E+02  0.51100000000E-03 0. -1.
         11   -1    0    0    0    0 -0.00000000000E+00 -0.00000000000E+00 -0.45593999997E+02  0.45594000000E+02  0.51100000000E-03 0.  1.
    9900012    2    1    2    0    0 -0.25601214613E+02  0.25020109892E+02 -0.19280498468E+02  0.50528859455E+02  0.29999998799E+02 0.  0.
         12    1    1    2    0    0  0.25601214613E+02 -0.25020109892E+02  0.19280498468E+02  0.40659140545E+02  0.00000000000E+00 0. -1.
         11    1    3    3    0    0  0.46302098414E+00  0.77314557502E+01  0.49036691029E+00  0.77608154479E+01  0.51100000000E-03 0. -1.
        -11    1    3    3    0    0 -0.10864632479E+02 -0.21872668196E+01  0.68826615573E-01  0.11082829621E+02  0.51100000000E-03 0.  1.
        -12    1    3    3    0    0 -0.15199603118E+02  0.19475920961E+02 -0.19839691994E+02  0.31685214386E+02  0.00000000000E+00 0.  1.
</event>
<event>
 7    1  0.5748623E-013  0.5052886E+02  0.7816164E-02  0.1300439E+00
        -11   -1    0    0    0    0  0.00000000000E+00  0.00000000000E+00  0.45593999997E+02  0.45594000000E+02  0.51100000000E-03 0. -1.
         11   -1    0    0    0    0 -0.00000000000E+00 -0.00000000000E+00 -0.45593999997E+02  0.45594000000E+02  0.51100000000E-03 0.  1.
    9900012    2    1    2    0    0  0.27572579095E+02  0.15242806872E+02 -0.25701667314E+02  0.50528856108E+02  0.29999988627E+02 0.  0.
         12    1    1    2    0    0 -0.27572579095E+02 -0.15242806872E+02  0.25701667314E+02  0.40659143892E+02  0.00000000000E+00 0. -1.
         11    1    3    3    0    0  0.16014841371E+02  0.10416297051E+02 -0.65808560186E+00  0.19115634055E+02  0.51100000000E-03 0. -1.
        -11    1    3    3    0    0  0.81367487405E+01  0.95765300748E+01 -0.13336713872E+02  0.18324424834E+02  0.51100000000E-03 0.  1.
         12    1    3    3    0    0  0.34209889831E+01 -0.47500202534E+01 -0.11706867840E+02  0.13088797220E+02  0.00000000000E+00 0. -1.
</event>
<event>
 7    1  0.5748623E-013  0.5052885E+02  0.7816164E-02  0.1300439E+00
        -11   -1    0    0    0    0  0.00000000000E+00  0.00000000000E+00  0.45593999997E+02  0.45594000000E+02  0.51100000000E-03 0.  1.
         11   -1    0    0    0    0 -0.00000000000E+00 -0.00000000000E+00 -0.45593999997E+02  0.45594000000E+02  0.51100000000E-03 0. -1.
    9900012    2    1    2    0    0  0.24185052750E+02  0.22861578468E+02  0.23358039414E+02  0.50528849101E+02  0.29999967328E+02 0.  0.
         12    1    1    2    0    0 -0.24185052750E+02 -0.22861578468E+02 -0.23358039414E+02  0.40659150899E+02  0.00000000000E+00 0. -1.
         11    1    3    3    0    0  0.16069424530E+02  0.16795216842E+02  0.46878352923E+01  0.23712475904E+02  0.51100000000E-03 0. -1.
        -11    1    3    3    0    0 -0.13951862605E+01  0.69805293681E+00  0.15310822229E+02  0.15390097472E+02  0.51100000000E-03 0.  1.
         12    1    3    3    0    0  0.95108144798E+01  0.53683086887E+01  0.33593818922E+01  0.11426275725E+02  0.00000000000E+00 0. -1.
</event>
<event>
 7    1  0.5748623E-013  0.5052885E+02  0.7816164E-02  0.1300439E+00
        -11   -1    0    0    0    0  0.00000000000E+00  0.00000000000E+00  0.45593999997E+02  0.45594000000E+02  0.51100000000E-03 0.  1.
         11   -1    0    0    0    0 -0.00000000000E+00 -0.00000000000E+00 -0.45593999997E+02  0.45594000000E+02  0.51100000000E-03 0. -1.
    9900012    2    1    2    0    0 -0.10340307168E+02 -0.25208172218E+02  0.30179342424E+02  0.50528848409E+02  0.29999965225E+02 0.  0.
         12    1    1    2    0    0  0.10340307168E+02  0.25208172218E+02 -0.30179342424E+02  0.40659151591E+02  0.00000000000E+00 0. -1.
         11    1    3    3    0    0  0.21073939823E+00 -0.10507268692E+02  0.23684307221E+02  0.25911262325E+02  0.51100000000E-03 0. -1.
        -11    1    3    3    0    0 -0.51905456384E+01 -0.16919397060E+02  0.63876661685E+01  0.18815154536E+02  0.51100000000E-03 0.  1.
         12    1    3    3    0    0 -0.53605009282E+01  0.22184935341E+01  0.10736903488E+00  0.58024315482E+01  0.00000000000E+00 0. -1.
</event>
<event>
 7    1  0.5748623E-013  0.5052886E+02  0.7816164E-02  0.1300439E+00
        -11   -1    0    0    0    0  0.00000000000E+00  0.00000000000E+00  0.45593999997E+02  0.45594000000E+02  0.51100000000E-03 0. -1.
         11   -1    0    0    0    0 -0.00000000000E+00 -0.00000000000E+00 -0.45593999997E+02  0.45594000000E+02  0.51100000000E-03 0.  1.
    9900012    2    1    2    0    0  0.29295957451E+02 -0.27969329664E+02 -0.35537973085E+01  0.50528855886E+02  0.29999987950E+02 0.  0.
         12    1    1    2    0    0 -0.29295957451E+02  0.27969329664E+02  0.35537973085E+01  0.40659144114E+02  0.00000000000E+00 0. -1.
         11    1    3    3    0    0  0.72229945434E+01 -0.42839448786E+01 -0.13238357829E+02  0.15677306917E+02  0.51100000000E-03 0. -1.
        -11    1    3    3    0    0  0.15578722133E+02 -0.17658540836E+02  0.29701511476E+01  0.23734836125E+02  0.51100000000E-03 0.  1.
         12    1    3    3    0    0  0.64942407745E+01 -0.60268439487E+01  0.67144093731E+01  0.11116712844E+02  0.00000000000E+00 0. -1.
</event>
<event>
 7    1  0.5748623E-013  0.5052877E+02  0.7816164E-02  0.1300439E+00
        -11   -1    0    0    0    0  0.00000000000E+00  0.00000000000E+00  0.45593999997E+02  0.45594000000E+02  0.51100000000E-03 0.  1.
         11   -1    0    0    0    0 -0.00000000000E+00 -0.00000000000E+00 -0.45593999997E+02  0.45594000000E+02  0.51100000000E-03 0. -1.
    9900012    2    1    2    0    0 -0.25682421175E+02  0.31350645740E+02  0.32746506254E+01  0.50528768792E+02  0.29999723219E+02 0.  0.
         12    1    1    2    0    0  0.25682421175E+02 -0.31350645740E+02 -0.32746506254E+01  0.40659231208E+02  0.00000000000E+00 0. -1.
         11    1    3    3    0    0 -0.17432396793E+02  0.17950684046E+02 -0.64807152084E+01  0.25847924201E+02  0.51100000000E-03 0. -1.
        -11    1    3    3    0    0 -0.83263695463E+00 -0.12725268098E+00  0.92052313629E+01  0.92436876975E+01  0.51100000000E-03 0.  1.
        -12    1    3    3    0    0 -0.74173874273E+01  0.13527214375E+02  0.55013447091E+00  0.15437156893E+02  0.00000000000E+00 0.  1.
</event>
<event>
 7    1  0.5748623E-013  0.5052887E+02  0.7816164E-02  0.1300439E+00
        -11   -1    0    0    0    0  0.00000000000E+00  0.00000000000E+00  0.45593999997E+02  0.45594000000E+02  0.51100000000E-03 0.  1.
         11   -1    0    0    0    0 -0.00000000000E+00 -0.00000000000E+00 -0.45593999997E+02  0.45594000000E+02  0.51100000000E-03 0. -1.
    9900012    2    1    2    0    0  0.23994048552E+02 -0.25659494649E+02  0.20470496251E+02  0.50528865131E+02  0.30000016051E+02 0.  0.
         12    1    1    2    0    0 -0.23994048552E+02  0.25659494649E+02 -0.20470496251E+02  0.40659134869E+02  0.00000000000E+00 0. -1.
         11    1    3    3    0    0  0.25905075229E+01 -0.10387505545E+02 -0.39891368403E+01  0.11424719413E+02  0.51100000000E-03 0. -1.
        -11    1    3    3    0    0  0.22480714711E+02 -0.15403223869E+02  0.25698404094E+02  0.37457306532E+02  0.51100000000E-03 0.  1.
        -12    1    3    3    0    0 -0.10771736816E+01  0.13123476476E+00 -0.12387710026E+01  0.16468391848E+01  0.00000000000E+00 0.  1.
</event>
<event>
 7    1  0.5748623E-013  0.5052886E+02  0.7816164E-02  0.1300439E+00
        -11   -1    0    0    0    0  0.00000000000E+00  0.00000000000E+00  0.45593999997E+02  0.45594000000E+02  0.51100000000E-03 0. -1.
         11   -1    0    0    0    0 -0.00000000000E+00 -0.00000000000E+00 -0.45593999997E+02  0.45594000000E+02  0.51100000000E-03 0.  1.
    9900012    2    1    2    0    0 -0.42213388719E+01 -0.40093047855E+02 -0.52814048472E+01  0.50528862954E+02  0.30000009436E+02 0.  0.
         12    1    1    2    0    0  0.42213388719E+01  0.40093047855E+02  0.52814048472E+01  0.40659137046E+02  0.00000000000E+00 0. -1.
         11    1    3    3    0    0  0.72139185734E+01 -0.26393694362E+02  0.59091452782E+01  0.27992601191E+02  0.51100000000E-03 0. -1.
        -11    1    3    3    0    0 -0.23314277339E+01 -0.82482055330E+01 -0.28274971706E+01  0.90256961119E+01  0.51100000000E-03 0.  1.
         12    1    3    3    0    0 -0.91038297114E+01 -0.54511479596E+01 -0.83630529547E+01  0.13510565651E+02  0.00000000000E+00 0. -1.
</event>
<event>
 7    1  0.5748623E-013  0.5052886E+02  0.7816164E-02  0.1300439E+00
        -11   -1    0    0    0    0  0.00000000000E+00  0.00000000000E+00  0.45593999997E+02  0.45594000000E+02  0.51100000000E-03 0. -1.
         11   -1    0    0    0    0 -0.00000000000E+00 -0.00000000000E+00 -0.45593999997E+02  0.45594000000E+02  0.51100000000E-03 0.  1.
    9900012    2    1    2    0    0 -0.25077673781E+02  0.11859557483E+02 -0.29725861262E+02  0.50528860145E+02  0.30000000898E+02 0.  0.
         12    1    1    2    0    0  0.25077673781E+02 -0.11859557483E+02  0.29725861262E+02  0.40659139855E+02  0.00000000000E+00 0. -1.
         11    1    3    3    0    0 -0.55141137875E+01 -0.54013222529E-01 -0.61591832000E+00  0.55486686626E+01  0.51100000000E-03 0. -1.
        -11    1    3    3    0    0 -0.66918439628E+01 -0.19126350205E+01 -0.24590913144E+02  0.25556837790E+02  0.51100000000E-03 0.  1.
        -12    1    3    3    0    0 -0.12871716031E+02  0.13826205726E+02 -0.45190297984E+01  0.19423353692E+02  0.00000000000E+00 0.  1.
</event>
<event>
 7    1  0.5748623E-013  0.5052886E+02  0.7816164E-02  0.1300439E+00
        -11   -1    0    0    0    0  0.00000000000E+00  0.00000000000E+00  0.45593999997E+02  0.45594000000E+02  0.51100000000E-03 0. -1.
         11   -1    0    0    0    0 -0.00000000000E+00 -0.00000000000E+00 -0.45593999997E+02  0.45594000000E+02  0.51100000000E-03 0.  1.
    9900012    2    1    2    0    0 -0.26236689093E+02  0.74430145692E+01 -0.30156309121E+02  0.50528864492E+02  0.30000014109E+02 0.  0.
         12    1    1    2    0    0  0.26236689093E+02 -0.74430145692E+01  0.30156309121E+02  0.40659135508E+02  0.00000000000E+00 0. -1.
         11    1    3    3    0    0  0.98409339010E+00 -0.70157493210E+01 -0.90690403606E+00  0.71422442920E+01  0.51100000000E-03 0. -1.
        -11    1    3    3    0    0 -0.26544384800E+02  0.12784319938E+02 -0.24543634098E+02  0.38346227660E+02  0.51100000000E-03 0.  1.
        -12    1    3    3    0    0 -0.67639768290E+00  0.16744439520E+01 -0.47057709873E+01  0.50403925401E+01  0.00000000000E+00 0.  1.
</event>
<event>
 7    1  0.5748623E-013  0.5052886E+02  0.7816164E-02  0.1300439E+00
        -11   -1    0    0    0    0  0.00000000000E+00  0.00000000000E+00  0.45593999997E+02  0.45594000000E+02  0.51100000000E-03 0. -1.
         11   -1    0    0    0    0 -0.00000000000E+00 -0.00000000000E+00 -0.45593999997E+02  0.45594000000E+02  0.51100000000E-03 0.  1.
    9900012    2    1    2    0    0  0.26277725694E+02 -0.31024940108E+02 -0.31610350252E+00  0.50528859604E+02  0.29999999252E+02 0.  0.
         12    1    1    2    0    0 -0.26277725694E+02  0.31024940108E+02  0.31610350252E+00  0.40659140396E+02  0.00000000000E+00 0. -1.
         11    1    3    3    0    0 -0.18920079153E+01 -0.56064823161E+01 -0.50287870297E+01  0.77653742449E+01  0.51100000000E-03 0. -1.
        -11    1    3    3    0    0  0.30387233845E+02 -0.25334166228E+02  0.25184497796E+01  0.39642736394E+02  0.51100000000E-03 0.  1.
        -12    1    3    3    0    0 -0.22175002360E+01 -0.84291563220E-01  0.21942337476E+01  0.31207489651E+01  0.00000000000E+00 0.  1.
</event>
<event>
 7    1  0.5748623E-013  0.5052886E+02  0.7816164E-02  0.1300439E+00
        -11   -1    0    0    0    0  0.00000000000E+00  0.00000000000E+00  0.45593999997E+02  0.45594000000E+02  0.51100000000E-03 0.  1.
         11   -1    0    0    0    0 -0.00000000000E+00 -0.00000000000E+00 -0.45593999997E+02  0.45594000000E+02  0.51100000000E-03 0. -1.
    9900012    2    1    2    0    0  0.33236607590E+01 -0.24875557408E+02  0.31989462651E+02  0.50528858373E+02  0.29999995509E+02 0.  0.
         12    1    1    2    0    0 -0.33236607590E+01  0.24875557408E+02 -0.31989462651E+02  0.40659141627E+02  0.00000000000E+00 0. -1.
         11    1    3    3    0    0  0.13077156480E+02 -0.15987392237E+02  0.77994556496E+01  0.22078048845E+02  0.51100000000E-03 0. -1.
        -11    1    3    3    0    0 -0.50641931902E+01 -0.72351003897E+01  0.96353654222E+01  0.13070309767E+02  0.51100000000E-03 0.  1.
         12    1    3    3    0    0 -0.46893025304E+01 -0.16530647815E+01  0.14554641579E+02  0.15380499760E+02  0.00000000000E+00 0. -1.
</event>
<event>
 7    1  0.5748623E-013  0.5052885E+02  0.7816164E-02  0.1300439E+00
        -11   -1    0    0    0    0  0.00000000000E+00  0.00000000000E+00  0.45593999997E+02  0.45594000000E+02  0.51100000000E-03 0.  1.
         11   -1    0    0    0    0 -0.00000000000E+00 -0.00000000000E+00 -0.45593999997E+02  0.45594000000E+02  0.51100000000E-03 0. -1.
    9900012    2    1    2    0    0  0.11024681258E+02  0.37650953966E+02  0.10678400931E+02  0.50528853700E+02  0.29999981308E+02 0.  0.
         12    1    1    2    0    0 -0.11024681258E+02 -0.37650953966E+02 -0.10678400931E+02  0.40659146300E+02  0.00000000000E+00 0. -1.
         11    1    3    3    0    0  0.69877407136E+01 -0.21532609408E+01  0.46645886809E+01  0.86731448035E+01  0.51100000000E-03 0. -1.
        -11    1    3    3    0    0  0.35688669788E+01  0.29611841341E+02  0.91216326619E+01  0.31189776238E+02  0.51100000000E-03 0.  1.
         12    1    3    3    0    0  0.46807356537E+00  0.10192373566E+02 -0.31078204120E+01  0.10665932659E+02  0.00000000000E+00 0. -1.
</event>
<event>
 7    1  0.5748623E-013  0.5052886E+02  0.7816164E-02  0.1300439E+00
        -11   -1    0    0    0    0  0.00000000000E+00  0.00000000000E+00  0.45593999997E+02  0.45594000000E+02  0.51100000000E-03 0.  1.
         11   -1    0    0    0    0 -0.00000000000E+00 -0.00000000000E+00 -0.45593999997E+02  0.45594000000E+02  0.51100000000E-03 0. -1.
    9900012    2    1    2    0    0  0.12412272242E+02  0.35482351526E+02  0.15495297529E+02  0.50528855671E+02  0.29999987298E+02 0.  0.
         12    1    1    2    0    0 -0.12412272242E+02 -0.35482351526E+02 -0.15495297529E+02  0.40659144329E+02  0.00000000000E+00 0. -1.
         11    1    3    3    0    0  0.38756249458E+00 -0.98384595173E+00 -0.26890152910E+01  0.28894568764E+01  0.51100000000E-03 0. -1.
        -11    1    3    3    0    0  0.72647452963E+01  0.35665394401E+02  0.21029757919E+02  0.42036265300E+02  0.51100000000E-03 0.  1.
        -12    1    3    3    0    0  0.47599644509E+01  0.80080307694E+00 -0.28454450994E+01  0.56031334944E+01  0.00000000000E+00 0.  1.
</event>
<event>
 7    1  0.8764976E-013  0.5052886E+02  0.7816164E-02  0.1300439E+00
        -11   -1    0    0    0    0  0.00000000000E+00  0.00000000000E+00  0.45593999997E+02  0.45594000000E+02  0.51100000000E-03 0. -1.
         11   -1    0    0    0    0 -0.00000000000E+00 -0.00000000000E+00 -0.45593999997E+02  0.45594000000E+02  0.51100000000E-03 0.  1.
    9900012    2    1    2    0    0  0.17093046793E+02  0.36329074524E+01 -0.36712331400E+02  0.50528861519E+02  0.30000005073E+02 0.  0.
         12    1    1    2    0    0 -0.17093046793E+02 -0.36329074524E+01  0.36712331400E+02  0.40659138481E+02  0.00000000000E+00 0. -1.
         11    1    3    3    0    0  0.27464788501E+01  0.29781077404E+01  0.25041572155E+01  0.47626752365E+01  0.51100000000E-03 0. -1.
        -11    1    3    3    0    0  0.13689548446E+02  0.81721008411E+01 -0.28556710325E+02  0.32705850755E+02  0.51100000000E-03 0.  1.
        -12    1    3    3    0    0  0.65701949689E+00 -0.75173011291E+01 -0.10659778290E+02  0.13060335527E+02  0.00000000000E+00 0.  1.
</event>
<event>
 7    1  0.5748623E-013  0.5052886E+02  0.7816164E-02  0.1300439E+00
        -11   -1    0    0    0    0  0.00000000000E+00  0.00000000000E+00  0.45593999997E+02  0.45594000000E+02  0.51100000000E-03 0.  1.
         11   -1    0    0    0    0 -0.00000000000E+00 -0.00000000000E+00 -0.45593999997E+02  0.45594000000E+02  0.51100000000E-03 0. -1.
    9900012    2    1    2    0    0 -0.89063931067E+01 -0.26629119648E+02  0.29406316708E+02  0.50528864326E+02  0.30000013606E+02 0.  0.
         12    1    1    2    0    0  0.89063931067E+01  0.26629119648E+02 -0.29406316708E+02  0.40659135674E+02  0.00000000000E+00 0. -1.
         11    1    3    3    0    0 -0.32991171883E+01 -0.41738948486E+01  0.22563430042E+02  0.23182190318E+02  0.51100000000E-03 0. -1.
        -11    1    3    3    0    0 -0.75569418058E+01 -0.89149988409E+01 -0.73157280190E+00  0.11709815234E+02  0.51100000000E-03 0.  1.
        -12    1    3    3    0    0  0.19496658875E+01 -0.13540225958E+02  0.75744594683E+01  0.15636858774E+02  0.00000000000E+00 0.  1.
</event>
<event>
 7    1  0.5748623E-013  0.5052886E+02  0.7816164E-02  0.1300439E+00
        -11   -1    0    0    0    0  0.00000000000E+00  0.00000000000E+00  0.45593999997E+02  0.45594000000E+02  0.51100000000E-03 0.  1.
         11   -1    0    0    0    0 -0.00000000000E+00 -0.00000000000E+00 -0.45593999997E+02  0.45594000000E+02  0.51100000000E-03 0. -1.
    9900012    2    1    2    0    0 -0.17103481291E+02 -0.38951819778E+01  0.36680565202E+02  0.50528863530E+02  0.30000011186E+02 0.  0.
         12    1    1    2    0    0  0.17103481291E+02  0.38951819778E+01 -0.36680565202E+02  0.40659136470E+02  0.00000000000E+00 0. -1.
         11    1    3    3    0    0  0.11925965853E+01  0.17276083160E+01 -0.39244398494E+01  0.44506342808E+01  0.51100000000E-03 0. -1.
        -11    1    3    3    0    0 -0.93842843997E+01 -0.22210861655E+01  0.94744117505E+01  0.13518967998E+02  0.51100000000E-03 0.  1.
         12    1    3    3    0    0 -0.89117934768E+01 -0.34017041283E+01  0.31130593301E+02  0.32559261251E+02  0.00000000000E+00 0. -1.
</event>
<event>
 7    1  0.5748623E-013  0.5052888E+02  0.7816164E-02  0.1300439E+00
        -11   -1    0    0    0    0  0.00000000000E+00  0.00000000000E+00  0.45593999997E+02  0.45594000000E+02  0.51100000000E-03 0.  1.
         11   -1    0    0    0    0 -0.00000000000E+00 -0.00000000000E+00 -0.45593999997E+02  0.45594000000E+02  0.51100000000E-03 0. -1.
    9900012    2    1    2    0    0  0.29291694985E+02  0.10492385651E+02  0.26173844526E+02  0.50528884306E+02  0.30000074337E+02 0.  0.
         12    1    1    2    0    0 -0.29291694985E+02 -0.10492385651E+02 -0.26173844526E+02  0.40659115694E+02  0.00000000000E+00 0. -1.
         11    1    3    3    0    0  0.17308291318E+01  0.23126867767E+01 -0.23388211867E+01  0.37167693519E+01  0.51100000000E-03 0. -1.
        -11    1    3    3    0    0  0.23181025539E+02  0.15610109763E+02  0.25006655276E+02  0.37501577036E+02  0.51100000000E-03 0.  1.
        -12    1    3    3    0    0  0.43798403144E+01 -0.74304108885E+01  0.35060104361E+01  0.93105379184E+01  0.00000000000E+00 0.  1.
</event>
<event>
 7    1  0.5748623E-013  0.5052886E+02  0.7816164E-02  0.1300439E+00
        -11   -1    0    0    0    0  0.00000000000E+00  0.00000000000E+00  0.45593999997E+02  0.45594000000E+02  0.51100000000E-03 0.  1.
         11   -1    0    0    0    0 -0.00000000000E+00 -0.00000000000E+00 -0.45593999997E+02  0.45594000000E+02  0.51100000000E-03 0. -1.
    9900012    2    1    2    0    0  0.12718974485E+01 -0.16583657378E+02  0.37101621002E+02  0.50528859624E+02  0.29999999312E+02 0.  0.
         12    1    1    2    0    0 -0.12718974485E+01  0.16583657378E+02 -0.37101621002E+02  0.40659140376E+02  0.00000000000E+00 0. -1.
         11    1    3    3    0    0 -0.36902191767E+01 -0.37380622157E+01  0.11020642740E+01  0.53670636875E+01  0.51100000000E-03 0. -1.
        -11    1    3    3    0    0  0.65837269141E+01 -0.15868270562E+01  0.32590916006E+02  0.33287103908E+02  0.51100000000E-03 0.  1.
        -12    1    3    3    0    0 -0.16216102889E+01 -0.11258768106E+02  0.34086407221E+01  0.11874692029E+02  0.00000000000E+00 0.  1.
</event>
<event>
 7    1  0.5748623E-013  0.5052884E+02  0.7816164E-02  0.1300439E+00
        -11   -1    0    0    0    0  0.00000000000E+00  0.00000000000E+00  0.45593999997E+02  0.45594000000E+02  0.51100000000E-03 0.  1.
         11   -1    0    0    0    0 -0.00000000000E+00 -0.00000000000E+00 -0.45593999997E+02  0.45594000000E+02  0.51100000000E-03 0. -1.
    9900012    2    1    2    0    0 -0.13974628894E+02  0.18876741768E+02  0.33189543781E+02  0.50528838069E+02  0.29999933795E+02 0.  0.
         12    1    1    2    0    0  0.13974628894E+02 -0.18876741768E+02 -0.33189543781E+02  0.40659161931E+02  0.00000000000E+00 0. -1.
         11    1    3    3    0    0 -0.98911149622E+01  0.11075767306E+02  0.62466599850E+01  0.16109858405E+02  0.51100000000E-03 0. -1.
        -11    1    3    3    0    0 -0.16679402809E+01  0.79642281368E+01  0.29673891164E+02  0.30769315424E+02  0.51100000000E-03 0.  1.
         12    1    3    3    0    0 -0.24155736513E+01 -0.16325367517E+00 -0.27310073670E+01  0.36496642402E+01  0.00000000000E+00 0. -1.
</event>
<event>
 7    1  0.5748623E-013  0.5052884E+02  0.7816164E-02  0.1300439E+00
        -11   -1    0    0    0    0  0.00000000000E+00  0.00000000000E+00  0.45593999997E+02  0.45594000000E+02  0.51100000000E-03 0.  1.
         11   -1    0    0    0    0 -0.00000000000E+00 -0.00000000000E+00 -0.45593999997E+02  0.45594000000E+02  0.51100000000E-03 0. -1.
    9900012    2    1    2    0    0  0.15070062614E+02  0.36606506247E+02  0.92749310717E+01  0.50528838262E+02  0.29999934382E+02 0.  0.
         12    1    1    2    0    0 -0.15070062614E+02 -0.36606506247E+02 -0.92749310717E+01  0.40659161738E+02  0.00000000000E+00 0. -1.
         11    1    3    3    0    0  0.18413126587E+02  0.36195732903E+02  0.48397908585E+00  0.40612911088E+02  0.51100000000E-03 0. -1.
        -11    1    3    3    0    0 -0.96713643584E+00  0.24226662329E+00  0.66151278082E+01  0.66898402210E+01  0.51100000000E-03 0.  1.
         12    1    3    3    0    0 -0.23759275368E+01  0.16850672135E+00  0.21758241777E+01  0.32260869529E+01  0.00000000000E+00 0. -1.
</event>
<event>
 7    1  0.5748623E-013  0.5052881E+02  0.7816164E-02  0.1300439E+00
        -11   -1    0    0    0    0  0.00000000000E+00  0.00000000000E+00  0.45593999997E+02  0.45594000000E+02  0.51100000000E-03 0. -1.
         11   -1    0    0    0    0 -0.00000000000E+00 -0.00000000000E+00 -0.45593999997E+02  0.45594000000E+02  0.51100000000E-03 0.  1.
    9900012    2    1    2    0    0  0.10760546558E+02  0.19204088510E+02 -0.34184554394E+02  0.50528805015E+02  0.29999833322E+02 0.  0.
         12    1    1    2    0    0 -0.10760546558E+02 -0.19204088510E+02  0.34184554394E+02  0.40659194985E+02  0.00000000000E+00 0. -1.
         11    1    3    3    0    0  0.49335355206E+01  0.26609597814E+01  0.21362089164E+01  0.59986555566E+01  0.51100000000E-03 0. -1.
        -11    1    3    3    0    0  0.12487152284E+02  0.13247666860E+02 -0.27723610401E+02  0.33166673384E+02  0.51100000000E-03 0.  1.
         12    1    3    3    0    0 -0.66601412466E+01  0.32954618684E+01 -0.85971529088E+01  0.11363476074E+02  0.00000000000E+00 0. -1.
</event>
<event>
 7    1  0.5748623E-013  0.5052886E+02  0.7816164E-02  0.1300439E+00
        -11   -1    0    0    0    0  0.00000000000E+00  0.00000000000E+00  0.45593999997E+02  0.45594000000E+02  0.51100000000E-03 0.  1.
         11   -1    0    0    0    0 -0.00000000000E+00 -0.00000000000E+00 -0.45593999997E+02  0.45594000000E+02  0.51100000000E-03 0. -1.
    9900012    2    1    2    0    0 -0.30694845852E+02  0.15741018404E+02  0.21522365522E+02  0.50528862774E+02  0.30000008889E+02 0.  0.
         12    1    1    2    0    0  0.30694845852E+02 -0.15741018404E+02 -0.21522365522E+02  0.40659137226E+02  0.00000000000E+00 0. -1.
         11    1    3    3    0    0 -0.11192459270E+02  0.12902466017E+02  0.21954990886E+02  0.27816656861E+02  0.51100000000E-03 0. -1.
        -11    1    3    3    0    0 -0.33753985314E+01  0.79816790711E+00 -0.47608166246E+01  0.58903108957E+01  0.51100000000E-03 0.  1.
        -12    1    3    3    0    0 -0.16126988051E+02  0.20403844795E+01  0.43281912605E+01  0.16821895018E+02  0.00000000000E+00 0.  1.
</event>
<event>
 7    1  0.5748623E-013  0.5052886E+02  0.7816164E-02  0.1300439E+00
        -11   -1    0    0    0    0  0.00000000000E+00  0.00000000000E+00  0.45593999997E+02  0.45594000000E+02  0.51100000000E-03 0.  1.
         11   -1    0    0    0    0 -0.00000000000E+00 -0.00000000000E+00 -0.45593999997E+02  0.45594000000E+02  0.51100000000E-03 0. -1.
    9900012    2    1    2    0    0 -0.93615671927E+01 -0.34215025096E+02  0.19871048791E+02  0.50528862494E+02  0.30000008038E+02 0.  0.
         12    1    1    2    0    0  0.93615671927E+01  0.34215025096E+02 -0.19871048791E+02  0.40659137506E+02  0.00000000000E+00 0. -1.
         11    1    3    3    0    0 -0.17521532695E+02 -0.16618500497E+02  0.13101822286E+02  0.27474286419E+02  0.51100000000E-03 0. -1.
        -11    1    3    3    0    0  0.43640414959E+01 -0.45966150726E+01  0.70872879465E+01  0.95080691521E+01  0.51100000000E-03 0.  1.
         12    1    3    3    0    0  0.37959240061E+01 -0.12999909526E+02 -0.31806144077E+00  0.13546506923E+02  0.00000000000E+00 0. -1.
</event>
<event>
 7    1  0.5748623E-013  0.5052882E+02  0.7816164E-02  0.1300439E+00
        -11   -1    0    0    0    0  0.00000000000E+00  0.00000000000E+00  0.45593999997E+02  0.45594000000E+02  0.51100000000E-03 0.  1.
         11   -1    0    0    0    0 -0.00000000000E+00 -0.00000000000E+00 -0.45593999997E+02  0.45594000000E+02  0.51100000000E-03 0. -1.
    9900012    2    1    2    0    0 -0.31673452434E+02 -0.19455230199E+02  0.16475893821E+02  0.50528823318E+02  0.29999888958E+02 0.  0.
         12    1    1    2    0    0  0.31673452434E+02  0.19455230199E+02 -0.16475893821E+02  0.40659176682E+02  0.00000000000E+00 0. -1.
         11    1    3    3    0    0 -0.69475713793E+01  0.30539077944E+01  0.51830763397E+01  0.91901785343E+01  0.51100000000E-03 0. -1.
        -11    1    3    3    0    0 -0.26170438419E+02 -0.23444895126E+02  0.14250905649E+02  0.37916266518E+02  0.51100000000E-03 0.  1.
         12    1    3    3    0    0  0.14445573643E+01  0.93575713263E+00 -0.29580881678E+01  0.34223782664E+01  0.00000000000E+00 0. -1.
</event>
<event>
 7    1  0.5748623E-013  0.5052886E+02  0.7816164E-02  0.1300439E+00
        -11   -1    0    0    0    0  0.00000000000E+00  0.00000000000E+00  0.45593999997E+02  0.45594000000E+02  0.51100000000E-03 0. -1.
         11   -1    0    0    0    0 -0.00000000000E+00 -0.00000000000E+00 -0.45593999997E+02  0.45594000000E+02  0.51100000000E-03 0.  1.
    9900012    2    1    2    0    0  0.14841371656E+02 -0.20846508766E+02 -0.31596240649E+02  0.50528860025E+02  0.30000000532E+02 0.  0.
         12    1    1    2    0    0 -0.14841371656E+02  0.20846508766E+02  0.31596240649E+02  0.40659139975E+02  0.00000000000E+00 0. -1.
         11    1    3    3    0    0 -0.47848213563E+01 -0.26107649513E+01 -0.90233085833E+01  0.10541855012E+02  0.51100000000E-03 0. -1.
        -11    1    3    3    0    0  0.11585689271E+02 -0.46737339036E+01 -0.48633255646E-01  0.12492972022E+02  0.51100000000E-03 0.  1.
        -12    1    3    3    0    0  0.80405037411E+01 -0.13562009912E+02 -0.22524298810E+02  0.27494032991E+02  0.00000000000E+00 0.  1.
</event>
<event>
 7    1  0.5748623E-013  0.5052887E+02  0.7816164E-02  0.1300439E+00
        -11   -1    0    0    0    0  0.00000000000E+00  0.00000000000E+00  0.45593999997E+02  0.45594000000E+02  0.51100000000E-03 0.  1.
         11   -1    0    0    0    0 -0.00000000000E+00 -0.00000000000E+00 -0.45593999997E+02  0.45594000000E+02  0.51100000000E-03 0. -1.
    9900012    2    1    2    0    0 -0.18637901120E+01  0.37130297091E+02  0.16463057791E+02  0.50528868830E+02  0.30000027296E+02 0.  0.
         12    1    1    2    0    0  0.18637901120E+01 -0.37130297091E+02 -0.16463057791E+02  0.40659131170E+02  0.00000000000E+00 0. -1.
         11    1    3    3    0    0 -0.58694205018E+01  0.22243104104E+02  0.13130344676E+02  0.26487954409E+02  0.51100000000E-03 0. -1.
        -11    1    3    3    0    0  0.83029118463E+01  0.13894681450E+01  0.49785600913E+01  0.97803388334E+01  0.51100000000E-03 0.  1.
         12    1    3    3    0    0 -0.42972814565E+01  0.13497724842E+02 -0.16458469761E+01  0.14260575587E+02  0.00000000000E+00 0. -1.
</event>
<event>
 7    1  0.5748623E-013  0.5052886E+02  0.7816164E-02  0.1300439E+00
        -11   -1    0    0    0    0  0.00000000000E+00  0.00000000000E+00  0.45593999997E+02  0.45594000000E+02  0.51100000000E-03 0.  1.
         11   -1    0    0    0    0 -0.00000000000E+00 -0.00000000000E+00 -0.45593999997E+02  0.45594000000E+02  0.51100000000E-03 0. -1.
    9900012    2    1    2    0    0  0.25247155631E+02  0.29712867809E+02  0.11527892562E+02  0.50528859726E+02  0.29999999624E+02 0.  0.
         12    1    1    2    0    0 -0.25247155631E+02 -0.29712867809E+02 -0.11527892562E+02  0.40659140274E+02  0.00000000000E+00 0. -1.
         11    1    3    3    0    0 -0.48669494709E+01 -0.16163809093E+01  0.11036458495E+01  0.52457524549E+01  0.51100000000E-03 0. -1.
        -11    1    3    3    0    0  0.19356021850E+02  0.17808950227E+02  0.95513964697E+01  0.27982913802E+02  0.51100000000E-03 0.  1.
         12    1    3    3    0    0  0.10758083252E+02  0.13520298491E+02  0.87285024234E+00  0.17300193470E+02  0.00000000000E+00 0. -1.
</event>
<event>
 7    1  0.5748623E-013  0.5052886E+02  0.7816164E-02  0.1300439E+00
        -11   -1    0    0    0    0  0.00000000000E+00  0.00000000000E+00  0.45593999997E+02  0.45594000000E+02  0.51100000000E-03 0. -1.
         11   -1    0    0    0    0 -0.00000000000E+00 -0.00000000000E+00 -0.45593999997E+02  0.45594000000E+02  0.51100000000E-03 0.  1.
    9900012    2    1    2    0    0  0.30944338887E+02  0.24923113246E+02 -0.86285484920E+01  0.50528861641E+02  0.30000005445E+02 0.  0.
         12    1    1    2    0    0 -0.30944338887E+02 -0.24923113246E+02  0.86285484920E+01  0.40659138359E+02  0.00000000000E+00 0. -1.
         11    1    3    3    0    0  0.66328606353E+01  0.18746857403E+02  0.29298028087E+01  0.20100329536E+02  0.51100000000E-03 0. -1.
        -11    1    3    3    0    0  0.24899855039E+02  0.34493846250E+01 -0.91759174669E+01  0.26760016758E+02  0.51100000000E-03 0.  1.
        -12    1    3    3    0    0 -0.58837678785E+00  0.27268712183E+01 -0.23824338338E+01  0.36685153479E+01  0.00000000000E+00 0.  1.
</event>
<event>
 7    1  0.5748623E-013  0.5052886E+02  0.7816164E-02  0.1300439E+00
        -11   -1    0    0    0    0  0.00000000000E+00  0.00000000000E+00  0.45593999997E+02  0.45594000000E+02  0.51100000000E-03 0.  1.
         11   -1    0    0    0    0 -0.00000000000E+00 -0.00000000000E+00 -0.45593999997E+02  0.45594000000E+02  0.51100000000E-03 0. -1.
    9900012    2    1    2    0    0  0.82514812300E+00  0.39026684658E+02  0.11375536248E+02  0.50528858226E+02  0.29999995064E+02 0.  0.
         12    1    1    2    0    0 -0.82514812300E+00 -0.39026684658E+02 -0.11375536248E+02  0.40659141774E+02  0.00000000000E+00 0. -1.
         11    1    3    3    0    0  0.59923464846E+01  0.11302938417E+02  0.15809286621E+02  0.20337113290E+02  0.51100000000E-03 0. -1.
        -11    1    3    3    0    0 -0.69621762906E+01  0.17095089202E+02  0.19822485910E+00  0.18459503430E+02  0.51100000000E-03 0.  1.
         12    1    3    3    0    0  0.17949779290E+01  0.10628657039E+02 -0.46319752313E+01  0.11732241506E+02  0.00000000000E+00 0. -1.
</event>
<event>
 7    1  0.5748623E-013  0.5052887E+02  0.7816164E-02  0.1300439E+00
        -11   -1    0    0    0    0  0.00000000000E+00  0.00000000000E+00  0.45593999997E+02  0.45594000000E+02  0.51100000000E-03 0.  1.
         11   -1    0    0    0    0 -0.00000000000E+00 -0.00000000000E+00 -0.45593999997E+02  0.45594000000E+02  0.51100000000E-03 0. -1.
    9900012    2    1    2    0    0  0.13274531288E+02  0.24839046120E+02  0.29325307219E+02  0.50528867734E+02  0.30000023965E+02 0.  0.
         12    1    1    2    0    0 -0.13274531288E+02 -0.24839046120E+02 -0.29325307219E+02  0.40659132266E+02  0.00000000000E+00 0. -1.
         11    1    3    3    0    0 -0.23147702574E+01  0.20201313415E+01 -0.17249552201E+01  0.35234305377E+01  0.51100000000E-03 0. -1.
        -11    1    3    3    0    0  0.82018698299E+01  0.12390160872E+02  0.30829380232E+02  0.34223346431E+02  0.51100000000E-03 0.  1.
        -12    1    3    3    0    0  0.73874317156E+01  0.10428753907E+02  0.22088220704E+00  0.12782090766E+02  0.00000000000E+00 0.  1.
</event>
<event>
 7    1  0.5748623E-013  0.5052886E+02  0.7816164E-02  0.1300439E+00
        -11   -1    0    0    0    0  0.00000000000E+00  0.00000000000E+00  0.45593999997E+02  0.45594000000E+02  0.51100000000E-03 0. -1.
         11   -1    0    0    0    0 -0.00000000000E+00 -0.00000000000E+00 -0.45593999997E+02  0.45594000000E+02  0.51100000000E-03 0.  1.
    9900012    2    1    2    0    0 -0.23113777127E+02  0.32679072320E+02  0.71412233280E+01  0.50528861650E+02  0.30000005470E+02 0.  0.
         12    1    1    2    0    0  0.23113777127E+02 -0.32679072320E+02 -0.71412233280E+01  0.40659138350E+02  0.00000000000E+00 0. -1.
         11    1    3    3    0    0 -0.17349180056E+02  0.19947922272E+02  0.14145856475E+02  0.29983643995E+02  0.51100000000E-03 0. -1.
        -11    1    3    3    0    0 -0.95710649080E+00  0.13956187736E+02 -0.68637161469E+01  0.15582099620E+02  0.51100000000E-03 0.  1.
        -12    1    3    3    0    0 -0.48074905805E+01 -0.12250376885E+01 -0.14091699978E+00  0.49631180341E+01  0.00000000000E+00 0.  1.
</event>
<event>
 7    1  0.5748623E-013  0.5052885E+02  0.7816164E-02  0.1300439E+00
        -11   -1    0    0    0    0  0.00000000000E+00  0.00000000000E+00  0.45593999997E+02  0.45594000000E+02  0.51100000000E-03 0.  1.
         11   -1    0    0    0    0 -0.00000000000E+00 -0.00000000000E+00 -0.45593999997E+02  0.45594000000E+02  0.51100000000E-03 0. -1.
    9900012    2    1    2    0    0  0.18040139952E+02  0.23272358970E+02  0.28037773462E+02  0.50528854876E+02  0.29999984881E+02 0.  0.
         12    1    1    2    0    0 -0.18040139952E+02 -0.23272358970E+02 -0.28037773462E+02  0.40659145124E+02  0.00000000000E+00 0. -1.
         11    1    3    3    0    0 -0.34330642920E+01  0.11084092900E+02  0.29021514195E+01  0.11961000333E+02  0.51100000000E-03 0. -1.
        -11    1    3    3    0    0  0.19315377402E+02  0.15734329712E+02  0.22968652606E+02  0.33885276131E+02  0.51100000000E-03 0.  1.
         12    1    3    3    0    0  0.21578268418E+01 -0.35460636429E+01  0.21669694365E+01  0.46825784113E+01  0.00000000000E+00 0. -1.
</event>
<event>
 7    1  0.5748623E-013  0.5052886E+02  0.7816164E-02  0.1300439E+00
        -11   -1    0    0    0    0  0.00000000000E+00  0.00000000000E+00  0.45593999997E+02  0.45594000000E+02  0.51100000000E-03 0. -1.
         11   -1    0    0    0    0 -0.00000000000E+00 -0.00000000000E+00 -0.45593999997E+02  0.45594000000E+02  0.51100000000E-03 0.  1.
    9900012    2    1    2    0    0  0.38434902829E+02 -0.90728357012E+01 -0.96751062274E+01  0.50528858547E+02  0.29999996041E+02 0.  0.
         12    1    1    2    0    0 -0.38434902829E+02  0.90728357012E+01  0.96751062274E+01  0.40659141453E+02  0.00000000000E+00 0. -1.
         11    1    3    3    0    0  0.23957655668E+02 -0.19070473070E+02 -0.57797307622E+01  0.31161795458E+02  0.51100000000E-03 0. -1.
        -11    1    3    3    0    0  0.87633970035E+01  0.95498485365E+01 -0.11505314903E+01  0.13012319435E+02  0.51100000000E-03 0.  1.
        -12    1    3    3    0    0  0.57138501581E+01  0.44778883259E+00 -0.27448439749E+01  0.63547436545E+01  0.00000000000E+00 0.  1.
</event>
<event>
 7    1  0.5748623E-013  0.5052885E+02  0.7816164E-02  0.1300439E+00
        -11   -1    0    0    0    0  0.00000000000E+00  0.00000000000E+00  0.45593999997E+02  0.45594000000E+02  0.51100000000E-03 0. -1.
         11   -1    0    0    0    0 -0.00000000000E+00 -0.00000000000E+00 -0.45593999997E+02  0.45594000000E+02  0.51100000000E-03 0.  1.
    9900012    2    1    2    0    0 -0.26034247418E+02 -0.30409917950E+02 -0.71148939913E+01  0.50528845252E+02  0.29999955628E+02 0.  0.
         12    1    1    2    0    0  0.26034247418E+02  0.30409917950E+02  0.71148939913E+01  0.40659154748E+02  0.00000000000E+00 0. -1.
         11    1    3    3    0    0 -0.49387676705E+01 -0.13385257254E+01  0.62998298516E+01  0.81160910321E+01  0.51100000000E-03 0. -1.
        -11    1    3    3    0    0 -0.33773301458E+01 -0.15644653223E+02 -0.12243562856E+02  0.20151088434E+02  0.51100000000E-03 0.  1.
         12    1    3    3    0    0 -0.17718149602E+02 -0.13426739001E+02 -0.11711609867E+01  0.22261665786E+02  0.00000000000E+00 0. -1.
</event>
<event>
 7    1  0.5748623E-013  0.5052880E+02  0.7816164E-02  0.1300439E+00
        -11   -1    0    0    0    0  0.00000000000E+00  0.00000000000E+00  0.45593999997E+02  0.45594000000E+02  0.51100000000E-03 0.  1.
         11   -1    0    0    0    0 -0.00000000000E+00 -0.00000000000E+00 -0.45593999997E+02  0.45594000000E+02  0.51100000000E-03 0. -1.
    9900012    2    1    2    0    0 -0.31482047439E+02  0.55419807994E+01  0.25126441395E+02  0.50528795392E+02  0.29999804074E+02 0.  0.
         12    1    1    2    0    0  0.31482047439E+02 -0.55419807994E+01 -0.25126441395E+02  0.40659204608E+02  0.00000000000E+00 0. -1.
         11    1    3    3    0    0 -0.11237062307E+02  0.93310438286E+01  0.62147888491E+00  0.14619377022E+02  0.51100000000E-03 0.  1.
        -11    1    3    3    0    0 -0.77964274244E+01 -0.95902205399E+01  0.13562278856E+02  0.18349169426E+02  0.51100000000E-03 0. -1.
         12    1    3    3    0    0 -0.12448557708E+02  0.58011575107E+01  0.10942683654E+02  0.17560248945E+02  0.00000000000E+00 0. -1.
</event>
<event>
 7    1  0.5748623E-013  0.5052886E+02  0.7816164E-02  0.1300439E+00
        -11   -1    0    0    0    0  0.00000000000E+00  0.00000000000E+00  0.45593999997E+02  0.45594000000E+02  0.51100000000E-03 0. -1.
         11   -1    0    0    0    0 -0.00000000000E+00 -0.00000000000E+00 -0.45593999997E+02  0.45594000000E+02  0.51100000000E-03 0.  1.
    9900012    2    1    2    0    0  0.64423018701E+01  0.37788799206E+02 -0.13552449462E+02  0.50528862217E+02  0.30000007196E+02 0.  0.
         12    1    1    2    0    0 -0.64423018701E+01 -0.37788799206E+02  0.13552449462E+02  0.40659137783E+02  0.00000000000E+00 0. -1.
         11    1    3    3    0    0 -0.32787797057E+01  0.12606437888E+02  0.58313026797E+01  0.14271536840E+02  0.51100000000E-03 0. -1.
        -11    1    3    3    0    0  0.26955490561E+01  0.83560279844E+01 -0.15193406737E+02  0.17547900072E+02  0.51100000000E-03 0.  1.
        -12    1    3    3    0    0  0.70255325197E+01  0.16826333334E+02 -0.41903454042E+01  0.18709425305E+02  0.00000000000E+00 0.  1.
</event>
<event>
 7    1  0.5748623E-013  0.5052885E+02  0.7816164E-02  0.1300439E+00
        -11   -1    0    0    0    0  0.00000000000E+00  0.00000000000E+00  0.45593999997E+02  0.45594000000E+02  0.51100000000E-03 0.  1.
         11   -1    0    0    0    0 -0.00000000000E+00 -0.00000000000E+00 -0.45593999997E+02  0.45594000000E+02  0.51100000000E-03 0. -1.
    9900012    2    1    2    0    0  0.42711994650E+01 -0.31868670705E+02  0.24885955973E+02  0.50528854386E+02  0.29999983393E+02 0.  0.
         12    1    1    2    0    0 -0.42711994650E+01  0.31868670705E+02 -0.24885955973E+02  0.40659145614E+02  0.00000000000E+00 0. -1.
         11    1    3    3    0    0 -0.78234477932E+01 -0.16624989941E+02  0.62963970528E+01  0.19422699144E+02  0.51100000000E-03 0. -1.
        -11    1    3    3    0    0  0.87992787297E+01 -0.52545088182E+01  0.17822972566E+02  0.20559560317E+02  0.51100000000E-03 0.  1.
        -12    1    3    3    0    0  0.32953685285E+01 -0.99891719452E+01  0.76658635439E+00  0.10546594926E+02  0.00000000000E+00 0.  1.
</event>
<event>
 7    1  0.5748623E-013  0.5052886E+02  0.7816164E-02  0.1300439E+00
        -11   -1    0    0    0    0  0.00000000000E+00  0.00000000000E+00  0.45593999997E+02  0.45594000000E+02  0.51100000000E-03 0.  1.
         11   -1    0    0    0    0 -0.00000000000E+00 -0.00000000000E+00 -0.45593999997E+02  0.45594000000E+02  0.51100000000E-03 0. -1.
    9900012    2    1    2    0    0  0.25495629259E+02 -0.22316382272E+01  0.31593647289E+02  0.50528857491E+02  0.29999992831E+02 0.  0.
         12    1    1    2    0    0 -0.25495629259E+02  0.22316382272E+01 -0.31593647289E+02  0.40659142509E+02  0.00000000000E+00 0. -1.
         11    1    3    3    0    0 -0.12677450273E+01  0.46357137991E+01  0.24286077517E+01  0.53847150114E+01  0.51100000000E-03 0. -1.
        -11    1    3    3    0    0  0.29406256501E+02 -0.76715149894E+01  0.22153293675E+02  0.37607824778E+02  0.51100000000E-03 0.  1.
         12    1    3    3    0    0 -0.26428822141E+01  0.80416296314E+00  0.70117458622E+01  0.75363177019E+01  0.00000000000E+00 0. -1.
</event>
<event>
 7    1  0.5748623E-013  0.5052885E+02  0.7816164E-02  0.1300439E+00
        -11   -1    0    0    0    0  0.00000000000E+00  0.00000000000E+00  0.45593999997E+02  0.45594000000E+02  0.51100000000E-03 0.  1.
         11   -1    0    0    0    0 -0.00000000000E+00 -0.00000000000E+00 -0.45593999997E+02  0.45594000000E+02  0.51100000000E-03 0. -1.
    9900012    2    1    2    0    0 -0.39860480986E+02  0.54452135552E+01  0.58871448135E+01  0.50528846428E+02  0.29999959203E+02 0.  0.
         12    1    1    2    0    0  0.39860480986E+02 -0.54452135552E+01 -0.58871448135E+01  0.40659153572E+02  0.00000000000E+00 0. -1.
         11    1    3    3    0    0  0.29288585848E+01  0.40669793058E+01 -0.12006246091E+00  0.50132772255E+01  0.51100000000E-03 0. -1.
        -11    1    3    3    0    0 -0.41918791921E+02 -0.12401130883E+01  0.40491814974E+01  0.42132159542E+02  0.51100000000E-03 0.  1.
        -12    1    3    3    0    0 -0.87054765023E+00  0.26183473376E+01  0.19580257770E+01  0.33834096612E+01  0.00000000000E+00 0.  1.
</event>
<event>
 7    1  0.5748623E-013  0.5052886E+02  0.7816164E-02  0.1300439E+00
        -11   -1    0    0    0    0  0.00000000000E+00  0.00000000000E+00  0.45593999997E+02  0.45594000000E+02  0.51100000000E-03 0. -1.
         11   -1    0    0    0    0 -0.00000000000E+00 -0.00000000000E+00 -0.45593999997E+02  0.45594000000E+02  0.51100000000E-03 0.  1.
    9900012    2    1    2    0    0  0.35749899951E+02  0.53773996311E+00 -0.19360296096E+02  0.50528861105E+02  0.30000003813E+02 0.  0.
         12    1    1    2    0    0 -0.35749899951E+02 -0.53773996311E+00  0.19360296096E+02  0.40659138895E+02  0.00000000000E+00 0. -1.
         11    1    3    3    0    0  0.14640577471E+02  0.63908889516E+01  0.32002843799E+01  0.16292077543E+02  0.51100000000E-03 0. -1.
        -11    1    3    3    0    0  0.21067530983E+02 -0.31786655025E+01 -0.14572678738E+02  0.25812937492E+02  0.51100000000E-03 0.  1.
         12    1    3    3    0    0  0.41791497607E-01 -0.26744834860E+01 -0.79879017375E+01  0.84238460702E+01  0.00000000000E+00 0. -1.
</event>
<event>
 7    1  0.5748623E-013  0.5052886E+02  0.7816164E-02  0.1300439E+00
        -11   -1    0    0    0    0  0.00000000000E+00  0.00000000000E+00  0.45593999997E+02  0.45594000000E+02  0.51100000000E-03 0.  1.
         11   -1    0    0    0    0 -0.00000000000E+00 -0.00000000000E+00 -0.45593999997E+02  0.45594000000E+02  0.51100000000E-03 0. -1.
    9900012    2    1    2    0    0  0.40393232450E+02 -0.11343705296E+01  0.45017557652E+01  0.50528857987E+02  0.29999994337E+02 0.  0.
         12    1    1    2    0    0 -0.40393232450E+02  0.11343705296E+01 -0.45017557652E+01  0.40659142013E+02  0.00000000000E+00 0. -1.
         11    1    3    3    0    0  0.15334977930E+01 -0.36305190049E+01 -0.46454963818E+01  0.60920374769E+01  0.51100000000E-03 0. -1.
        -11    1    3    3    0    0  0.14852887875E+02  0.10412976248E+02  0.26059663062E+01  0.18325649053E+02  0.51100000000E-03 0.  1.
        -12    1    3    3    0    0  0.24006846782E+02 -0.79168277723E+01  0.65412858408E+01  0.26111171457E+02  0.00000000000E+00 0.  1.
</event>
<event>
 7    1  0.5748623E-013  0.5052886E+02  0.7816164E-02  0.1300439E+00
        -11   -1    0    0    0    0  0.00000000000E+00  0.00000000000E+00  0.45593999997E+02  0.45594000000E+02  0.51100000000E-03 0.  1.
         11   -1    0    0    0    0 -0.00000000000E+00 -0.00000000000E+00 -0.45593999997E+02  0.45594000000E+02  0.51100000000E-03 0. -1.
    9900012    2    1    2    0    0  0.50281707606E+01 -0.38805699141E+02  0.11045388904E+02  0.50528863227E+02  0.30000010266E+02 0.  0.
         12    1    1    2    0    0 -0.50281707606E+01  0.38805699141E+02 -0.11045388904E+02  0.40659136773E+02  0.00000000000E+00 0. -1.
         11    1    3    3    0    0 -0.19412254237E+01  0.30753929021E+01 -0.19787253552E+01  0.41402598881E+01  0.51100000000E-03 0. -1.
        -11    1    3    3    0    0 -0.24751277143E+01 -0.16994177824E+02  0.92423896347E+01  0.19502566589E+02  0.51100000000E-03 0.  1.
         12    1    3    3    0    0  0.94445238985E+01 -0.24886914219E+02  0.37817246241E+01  0.26886036751E+02  0.00000000000E+00 0. -1.
</event>
<event>
 7    1  0.5748623E-013  0.5052886E+02  0.7816164E-02  0.1300439E+00
        -11   -1    0    0    0    0  0.00000000000E+00  0.00000000000E+00  0.45593999997E+02  0.45594000000E+02  0.51100000000E-03 0.  1.
         11   -1    0    0    0    0 -0.00000000000E+00 -0.00000000000E+00 -0.45593999997E+02  0.45594000000E+02  0.51100000000E-03 0. -1.
    9900012    2    1    2    0    0 -0.31725651245E+02  0.19953334027E+02  0.15764288985E+02  0.50528864583E+02  0.30000014386E+02 0.  0.
         12    1    1    2    0    0  0.31725651245E+02 -0.19953334027E+02 -0.15764288985E+02  0.40659135417E+02  0.00000000000E+00 0. -1.
         11    1    3    3    0    0 -0.32388661015E+01  0.79079002543E+01 -0.75954918971E+01  0.11433137692E+02  0.51100000000E-03 0. -1.
        -11    1    3    3    0    0 -0.20188566825E+02  0.59952167342E+01  0.16353074555E+02  0.26663531307E+02  0.51100000000E-03 0.  1.
         12    1    3    3    0    0 -0.82982183182E+01  0.60502170381E+01  0.70067063278E+01  0.12432195584E+02  0.00000000000E+00 0. -1.
</event>
<event>
 7    1  0.5748623E-013  0.5052885E+02  0.7816164E-02  0.1300439E+00
        -11   -1    0    0    0    0  0.00000000000E+00  0.00000000000E+00  0.45593999997E+02  0.45594000000E+02  0.51100000000E-03 0. -1.
         11   -1    0    0    0    0 -0.00000000000E+00 -0.00000000000E+00 -0.45593999997E+02  0.45594000000E+02  0.51100000000E-03 0.  1.
    9900012    2    1    2    0    0  0.27084147685E+02 -0.40035902122E+01 -0.30059714364E+02  0.50528853205E+02  0.29999979802E+02 0.  0.
         12    1    1    2    0    0 -0.27084147685E+02  0.40035902122E+01  0.30059714364E+02  0.40659146795E+02  0.00000000000E+00 0. -1.
         11    1    3    3    0    0  0.16534533239E+02 -0.80261497146E+01 -0.15686753213E+02  0.24163693742E+02  0.51100000000E-03 0. -1.
        -11    1    3    3    0    0 -0.49947869377E+01  0.19792764338E+01 -0.44001988160E+00  0.53906446286E+01  0.51100000000E-03 0.  1.
         12    1    3    3    0    0  0.15544401384E+02  0.20432830685E+01 -0.13932941270E+02  0.20974514834E+02  0.00000000000E+00 0. -1.
</event>
<event>
 7    1  0.5748623E-013  0.5052886E+02  0.7816164E-02  0.1300439E+00
        -11   -1    0    0    0    0  0.00000000000E+00  0.00000000000E+00  0.45593999997E+02  0.45594000000E+02  0.51100000000E-03 0.  1.
         11   -1    0    0    0    0 -0.00000000000E+00 -0.00000000000E+00 -0.45593999997E+02  0.45594000000E+02  0.51100000000E-03 0. -1.
    9900012    2    1    2    0    0 -0.37559189125E+02  0.12274855382E+02  0.95812921914E+01  0.50528856841E+02  0.29999990853E+02 0.  0.
         12    1    1    2    0    0  0.37559189125E+02 -0.12274855382E+02 -0.95812921914E+01  0.40659143159E+02  0.00000000000E+00 0. -1.
         11    1    3    3    0    0 -0.20406876702E+02 -0.45969183889E+01  0.17806380241E+01  0.20993878809E+02  0.51100000000E-03 0.  1.
        -11    1    3    3    0    0 -0.21752421164E+01  0.11666307597E+02  0.73963608292E-02  0.11867369809E+02  0.51100000000E-03 0. -1.
        -12    1    3    3    0    0 -0.14977070307E+02  0.52054661730E+01  0.77932578065E+01  0.17667608222E+02  0.00000000000E+00 0.  1.
</event>
<event>
 7    1  0.5748623E-013  0.5052887E+02  0.7816164E-02  0.1300439E+00
        -11   -1    0    0    0    0  0.00000000000E+00  0.00000000000E+00  0.45593999997E+02  0.45594000000E+02  0.51100000000E-03 0.  1.
         11   -1    0    0    0    0 -0.00000000000E+00 -0.00000000000E+00 -0.45593999997E+02  0.45594000000E+02  0.51100000000E-03 0. -1.
    9900012    2    1    2    0    0 -0.39138929503E+02  0.15392593631E+00  0.11012953269E+02  0.50528872666E+02  0.30000038955E+02 0.  0.
         12    1    1    2    0    0  0.39138929503E+02 -0.15392593631E+00 -0.11012953269E+02  0.40659127334E+02  0.00000000000E+00 0. -1.
         11    1    3    3    0    0 -0.37859936678E+02 -0.69350230017E+01  0.55506644235E+01  0.38888034472E+02  0.51100000000E-03 0. -1.
        -11    1    3    3    0    0  0.21508820563E+00  0.17900841750E+00  0.44969093698E+01  0.45056077382E+01  0.51100000000E-03 0.  1.
         12    1    3    3    0    0 -0.14940810311E+01  0.69099405206E+01  0.96537947561E+00  0.71352304558E+01  0.00000000000E+00 0. -1.
</event>
<event>
 7    1  0.5748623E-013  0.5052886E+02  0.7816164E-02  0.1300439E+00
        -11   -1    0    0    0    0  0.00000000000E+00  0.00000000000E+00  0.45593999997E+02  0.45594000000E+02  0.51100000000E-03 0.  1.
         11   -1    0    0    0    0 -0.00000000000E+00 -0.00000000000E+00 -0.45593999997E+02  0.45594000000E+02  0.51100000000E-03 0. -1.
    9900012    2    1    2    0    0  0.25067079061E+01 -0.27592048240E+02  0.29758378966E+02  0.50528857986E+02  0.29999994336E+02 0.  0.
         12    1    1    2    0    0 -0.25067079061E+01  0.27592048240E+02 -0.29758378966E+02  0.40659142014E+02  0.00000000000E+00 0. -1.
         11    1    3    3    0    0 -0.69303823164E+01 -0.23467225074E+02  0.24160668474E+02  0.34387188793E+02  0.51100000000E-03 0. -1.
        -11    1    3    3    0    0  0.59667812547E+01  0.32739466999E+01  0.37210283220E+01  0.77567556085E+01  0.51100000000E-03 0.  1.
        -12    1    3    3    0    0  0.34703089678E+01 -0.73987698660E+01  0.18766821703E+01  0.83849135851E+01  0.00000000000E+00 0.  1.
</event>
<event>
 7    1  0.5748623E-013  0.5052885E+02  0.7816164E-02  0.1300439E+00
        -11   -1    0    0    0    0  0.00000000000E+00  0.00000000000E+00  0.45593999997E+02  0.45594000000E+02  0.51100000000E-03 0. -1.
         11   -1    0    0    0    0 -0.00000000000E+00 -0.00000000000E+00 -0.45593999997E+02  0.45594000000E+02  0.51100000000E-03 0.  1.
    9900012    2    1    2    0    0 -0.74167535424E+01 -0.39798482476E+02 -0.37734333393E+01  0.50528852940E+02  0.29999978996E+02 0.  0.
         12    1    1    2    0    0  0.74167535424E+01  0.39798482476E+02  0.37734333393E+01  0.40659147060E+02  0.00000000000E+00 0. -1.
         11    1    3    3    0    0  0.68366935348E+01 -0.12194708712E+02 -0.16002902507E+01  0.14071681784E+02  0.51100000000E-03 0.  1.
        -11    1    3    3    0    0 -0.14485043402E+02 -0.10589383259E+02 -0.61770268334E+01  0.18976490216E+02  0.51100000000E-03 0. -1.
         12    1    3    3    0    0  0.23159632457E+00 -0.17014390504E+02  0.40038837448E+01  0.17480680940E+02  0.00000000000E+00 0. -1.
</event>
<event>
 7    1  0.5748623E-013  0.5052886E+02  0.7816164E-02  0.1300439E+00
        -11   -1    0    0    0    0  0.00000000000E+00  0.00000000000E+00  0.45593999997E+02  0.45594000000E+02  0.51100000000E-03 0.  1.
         11   -1    0    0    0    0 -0.00000000000E+00 -0.00000000000E+00 -0.45593999997E+02  0.45594000000E+02  0.51100000000E-03 0. -1.
    9900012    2    1    2    0    0  0.18641581074E+02 -0.23789986335E+02  0.27197314549E+02  0.50528856951E+02  0.29999991190E+02 0.  0.
         12    1    1    2    0    0 -0.18641581074E+02  0.23789986335E+02 -0.27197314549E+02  0.40659143049E+02  0.00000000000E+00 0. -1.
         11    1    3    3    0    0  0.34381814887E+01 -0.15317108101E+02 -0.20567410457E+01  0.15832405898E+02  0.51100000000E-03 0. -1.
        -11    1    3    3    0    0  0.70872180191E+01 -0.32743410769E+00  0.12563730103E+02  0.14428554561E+02  0.51100000000E-03 0.  1.
        -12    1    3    3    0    0  0.81161815663E+01 -0.81454441266E+01  0.16690325491E+02  0.20267896493E+02  0.00000000000E+00 0.  1.
</event>
<event>
 7    1  0.5748623E-013  0.5052886E+02  0.7816164E-02  0.1300439E+00
        -11   -1    0    0    0    0  0.00000000000E+00  0.00000000000E+00  0.45593999997E+02  0.45594000000E+02  0.51100000000E-03 0.  1.
         11   -1    0    0    0    0 -0.00000000000E+00 -0.00000000000E+00 -0.45593999997E+02  0.45594000000E+02  0.51100000000E-03 0. -1.
    9900012    2    1    2    0    0 -0.83955873200E+01  0.36056958968E+02  0.16809985559E+02  0.50528858458E+02  0.29999995769E+02 0.  0.
         12    1    1    2    0    0  0.83955873200E+01 -0.36056958968E+02 -0.16809985559E+02  0.40659141542E+02  0.00000000000E+00 0. -1.
         11    1    3    3    0    0 -0.14054355790E+02  0.16586930832E+02  0.89863301707E+01  0.23524568461E+02  0.51100000000E-03 0. -1.
        -11    1    3    3    0    0  0.58373440851E+01  0.20284373717E+02  0.20905281604E+01  0.21210863050E+02  0.51100000000E-03 0.  1.
         12    1    3    3    0    0 -0.17857561492E+00 -0.81434558159E+00  0.57331272277E+01  0.57934269466E+01  0.00000000000E+00 0. -1.
</event>
<event>
 7    1  0.5748623E-013  0.5052887E+02  0.7816164E-02  0.1300439E+00
        -11   -1    0    0    0    0  0.00000000000E+00  0.00000000000E+00  0.45593999997E+02  0.45594000000E+02  0.51100000000E-03 0.  1.
         11   -1    0    0    0    0 -0.00000000000E+00 -0.00000000000E+00 -0.45593999997E+02  0.45594000000E+02  0.51100000000E-03 0. -1.
    9900012    2    1    2    0    0 -0.11336832867E+02  0.14802229829E+02  0.36132190522E+02  0.50528868439E+02  0.30000026107E+02 0.  0.
         12    1    1    2    0    0  0.11336832867E+02 -0.14802229829E+02 -0.36132190522E+02  0.40659131561E+02  0.00000000000E+00 0. -1.
         11    1    3    3    0    0 -0.17909429232E+01  0.77020366142E+01  0.18322009243E+02  0.19955572343E+02  0.51100000000E-03 0. -1.
        -11    1    3    3    0    0 -0.69157384954E+01  0.52593159025E+01 -0.32451411064E+01  0.92746311927E+01  0.51100000000E-03 0.  1.
        -12    1    3    3    0    0 -0.26301514484E+01  0.18408773118E+01  0.21055322385E+02  0.21298664903E+02  0.00000000000E+00 0.  1.
</event>
<event>
 7    1  0.5748623E-013  0.5052886E+02  0.7816164E-02  0.1300439E+00
        -11   -1    0    0    0    0  0.00000000000E+00  0.00000000000E+00  0.45593999997E+02  0.45594000000E+02  0.51100000000E-03 0. -1.
         11   -1    0    0    0    0 -0.00000000000E+00 -0.00000000000E+00 -0.45593999997E+02  0.45594000000E+02  0.51100000000E-03 0.  1.
    9900012    2    1    2    0    0 -0.39142574329E+02  0.77580144953E+01 -0.77998780112E+01  0.50528855752E+02  0.29999987543E+02 0.  0.
         12    1    1    2    0    0  0.39142574329E+02 -0.77580144953E+01  0.77998780112E+01  0.40659144248E+02  0.00000000000E+00 0. -1.
         11    1    3    3    0    0 -0.29942863487E+01 -0.67212464116E+01 -0.52985107480E+00  0.73771028518E+01  0.51100000000E-03 0. -1.
        -11    1    3    3    0    0 -0.32386236479E+02  0.16921613661E+02 -0.10021383100E+02  0.37889806567E+02  0.51100000000E-03 0.  1.
        -12    1    3    3    0    0 -0.37620515014E+01 -0.24423527540E+01  0.27513561635E+01  0.52619463331E+01  0.00000000000E+00 0.  1.
</event>
<event>
 7    1  0.5748623E-013  0.5052887E+02  0.7816164E-02  0.1300439E+00
        -11   -1    0    0    0    0  0.00000000000E+00  0.00000000000E+00  0.45593999997E+02  0.45594000000E+02  0.51100000000E-03 0.  1.
         11   -1    0    0    0    0 -0.00000000000E+00 -0.00000000000E+00 -0.45593999997E+02  0.45594000000E+02  0.51100000000E-03 0. -1.
    9900012    2    1    2    0    0  0.35154474446E+02  0.55693406858E+01 -0.19654779276E+02  0.50528868459E+02  0.30000026169E+02 0.  0.
         12    1    1    2    0    0 -0.35154474446E+02 -0.55693406858E+01  0.19654779276E+02  0.40659131541E+02  0.00000000000E+00 0. -1.
         11    1    3    3    0    0  0.93353479871E+01  0.14791391456E+01 -0.10178082848E+02  0.13889922440E+02  0.51100000000E-03 0. -1.
        -11    1    3    3    0    0  0.79653309830E+01 -0.77004634622E+01  0.34961347268E+01  0.11617512362E+02  0.51100000000E-03 0.  1.
        -12    1    3    3    0    0  0.17853795476E+02  0.11790665002E+02 -0.12972831154E+02  0.25021433657E+02  0.00000000000E+00 0.  1.
</event>
<event>
 7    1  0.5748623E-013  0.5052887E+02  0.7816164E-02  0.1300439E+00
        -11   -1    0    0    0    0  0.00000000000E+00  0.00000000000E+00  0.45593999997E+02  0.45594000000E+02  0.51100000000E-03 0.  1.
         11   -1    0    0    0    0 -0.00000000000E+00 -0.00000000000E+00 -0.45593999997E+02  0.45594000000E+02  0.51100000000E-03 0. -1.
    9900012    2    1    2    0    0  0.83800736672E+00 -0.39804935156E+02  0.82479952862E+01  0.50528873775E+02  0.30000042327E+02 0.  0.
         12    1    1    2    0    0 -0.83800736672E+00  0.39804935156E+02 -0.82479952862E+01  0.40659126225E+02  0.00000000000E+00 0. -1.
         11    1    3    3    0    0 -0.61562808897E+01 -0.82811849228E+00  0.81916071526E+01  0.10280467044E+02  0.51100000000E-03 0. -1.
        -11    1    3    3    0    0  0.32483872332E+01 -0.30294305790E+02  0.22173124260E+01  0.30548542643E+02  0.51100000000E-03 0.  1.
        -12    1    3    3    0    0  0.37459010232E+01 -0.86825108737E+01 -0.21609242924E+01  0.96998640890E+01  0.00000000000E+00 0.  1.
</event>
<event>
 7    1  0.5748623E-013  0.5052886E+02  0.7816164E-02  0.1300439E+00
        -11   -1    0    0    0    0  0.00000000000E+00  0.00000000000E+00  0.45593999997E+02  0.45594000000E+02  0.51100000000E-03 0.  1.
         11   -1    0    0    0    0 -0.00000000000E+00 -0.00000000000E+00 -0.45593999997E+02  0.45594000000E+02  0.51100000000E-03 0. -1.
    9900012    2    1    2    0    0 -0.18019716303E+02 -0.33578155893E+02 -0.14176142013E+02  0.50528859193E+02  0.29999998002E+02 0.  0.
         12    1    1    2    0    0  0.18019716303E+02  0.33578155893E+02  0.14176142013E+02  0.40659140807E+02  0.00000000000E+00 0. -1.
         11    1    3    3    0    0 -0.16530425161E+02 -0.10683739173E+02 -0.15990721677E+02  0.25359424653E+02  0.51100000000E-03 0. -1.
        -11    1    3    3    0    0 -0.63910104751E+00 -0.18043314546E+02  0.56599411904E+01  0.18921009077E+02  0.51100000000E-03 0.  1.
        -12    1    3    3    0    0 -0.85019009502E+00 -0.48511021742E+01 -0.38453615261E+01  0.62484254632E+01  0.00000000000E+00 0.  1.
</event>
<event>
 7    1  0.5748623E-013  0.5052886E+02  0.7816164E-02  0.1300439E+00
        -11   -1    0    0    0    0  0.00000000000E+00  0.00000000000E+00  0.45593999997E+02  0.45594000000E+02  0.51100000000E-03 0.  1.
         11   -1    0    0    0    0 -0.00000000000E+00 -0.00000000000E+00 -0.45593999997E+02  0.45594000000E+02  0.51100000000E-03 0. -1.
    9900012    2    1    2    0    0 -0.28304020341E+02 -0.12500792260E+02  0.26377609483E+02  0.50528860110E+02  0.30000000789E+02 0.  0.
         12    1    1    2    0    0  0.28304020341E+02  0.12500792260E+02 -0.26377609483E+02  0.40659139890E+02  0.00000000000E+00 0. -1.
         11    1    3    3    0    0 -0.63733720662E+01 -0.14244055212E+02  0.69024073590E+01  0.17063300033E+02  0.51100000000E-03 0. -1.
        -11    1    3    3    0    0 -0.58924000724E+01  0.59449012481E+01  0.13417089030E+02  0.15813933975E+02  0.51100000000E-03 0.  1.
         12    1    3    3    0    0 -0.16038248203E+02 -0.42016382959E+01  0.60581130932E+01  0.17651626102E+02  0.00000000000E+00 0. -1.
</event>
<event>
 7    1  0.5748623E-013  0.5052886E+02  0.7816164E-02  0.1300439E+00
        -11   -1    0    0    0    0  0.00000000000E+00  0.00000000000E+00  0.45593999997E+02  0.45594000000E+02  0.51100000000E-03 0.  1.
         11   -1    0    0    0    0 -0.00000000000E+00 -0.00000000000E+00 -0.45593999997E+02  0.45594000000E+02  0.51100000000E-03 0. -1.
    9900012    2    1    2    0    0 -0.26666505745E+02 -0.17704472084E+02  0.25072198123E+02  0.50528856144E+02  0.29999988735E+02 0.  0.
         12    1    1    2    0    0  0.26666505745E+02  0.17704472084E+02 -0.25072198123E+02  0.40659143856E+02  0.00000000000E+00 0. -1.
         11    1    3    3    0    0 -0.12106777797E+02 -0.23777593039E+02  0.15102024744E+02  0.30659731750E+02  0.51100000000E-03 0. -1.
        -11    1    3    3    0    0 -0.87907310084E+01  0.58192537434E+01  0.33003323479E+01  0.11046848404E+02  0.51100000000E-03 0.  1.
         12    1    3    3    0    0 -0.57689969396E+01  0.25386721234E+00  0.66698410318E+01  0.88222759898E+01  0.00000000000E+00 0. -1.
</event>
<event>
 7    1  0.5748623E-013  0.5052882E+02  0.7816164E-02  0.1300439E+00
        -11   -1    0    0    0    0  0.00000000000E+00  0.00000000000E+00  0.45593999997E+02  0.45594000000E+02  0.51100000000E-03 0.  1.
         11   -1    0    0    0    0 -0.00000000000E+00 -0.00000000000E+00 -0.45593999997E+02  0.45594000000E+02  0.51100000000E-03 0. -1.
    9900012    2    1    2    0    0  0.38094705972E+02  0.52669719668E+01 -0.13199277384E+02  0.50528824649E+02  0.29999893002E+02 0.  0.
         12    1    1    2    0    0 -0.38094705972E+02 -0.52669719668E+01  0.13199277384E+02  0.40659175351E+02  0.00000000000E+00 0. -1.
         11    1    3    3    0    0 -0.42722593177E+01 -0.72733674856E-01  0.14444229412E+01  0.45104154752E+01  0.51100000000E-03 0. -1.
        -11    1    3    3    0    0  0.38809917521E+02  0.60834156926E+01 -0.15588418865E+02  0.42263653977E+02  0.51100000000E-03 0.  1.
        -12    1    3    3    0    0  0.35570477683E+01 -0.74371005103E+00  0.94471854010E+00  0.37547551966E+01  0.00000000000E+00 0.  1.
</event>
<event>
 7    1  0.5748623E-013  0.5052887E+02  0.7816164E-02  0.1300439E+00
        -11   -1    0    0    0    0  0.00000000000E+00  0.00000000000E+00  0.45593999997E+02  0.45594000000E+02  0.51100000000E-03 0.  1.
         11   -1    0    0    0    0 -0.00000000000E+00 -0.00000000000E+00 -0.45593999997E+02  0.45594000000E+02  0.51100000000E-03 0. -1.
    9900012    2    1    2    0    0 -0.19357980824E+02  0.13272851788E+02  0.33200377462E+02  0.50528867203E+02  0.30000022351E+02 0.  0.
         12    1    1    2    0    0  0.19357980824E+02 -0.13272851788E+02 -0.33200377462E+02  0.40659132797E+02  0.00000000000E+00 0. -1.
         11    1    3    3    0    0 -0.10760675288E+02 -0.25938242052E+01  0.65764441589E+01  0.12875157268E+02  0.51100000000E-03 0. -1.
        -11    1    3    3    0    0 -0.59250448835E+01  0.17309971284E+02  0.10191504082E+02  0.20942970621E+02  0.51100000000E-03 0.  1.
        -12    1    3    3    0    0 -0.26722606531E+01 -0.14432952911E+01  0.16432429221E+02  0.16710739314E+02  0.00000000000E+00 0.  1.
</event>
<event>
 7    1  0.5748623E-013  0.5052886E+02  0.7816164E-02  0.1300439E+00
        -11   -1    0    0    0    0  0.00000000000E+00  0.00000000000E+00  0.45593999997E+02  0.45594000000E+02  0.51100000000E-03 0. -1.
         11   -1    0    0    0    0 -0.00000000000E+00 -0.00000000000E+00 -0.45593999997E+02  0.45594000000E+02  0.51100000000E-03 0.  1.
    9900012    2    1    2    0    0 -0.27881544416E+02  0.23390060382E+02 -0.18129808555E+02  0.50528863241E+02  0.30000010308E+02 0.  0.
         12    1    1    2    0    0  0.27881544416E+02 -0.23390060382E+02  0.18129808555E+02  0.40659136759E+02  0.00000000000E+00 0. -1.
         11    1    3    3    0    0 -0.15065894356E+01  0.13642526990E+02  0.25674687038E+00  0.13727864860E+02  0.51100000000E-03 0. -1.
        -11    1    3    3    0    0 -0.25961945794E+02  0.44298490995E+01 -0.16788696027E+02  0.31233099542E+02  0.51100000000E-03 0.  1.
        -12    1    3    3    0    0 -0.41300918659E+00  0.53176842928E+01 -0.15978593987E+01  0.55678988392E+01  0.00000000000E+00 0.  1.
</event>
<event>
 7    1  0.5748623E-013  0.5052886E+02  0.7816164E-02  0.1300439E+00
        -11   -1    0    0    0    0  0.00000000000E+00  0.00000000000E+00  0.45593999997E+02  0.45594000000E+02  0.51100000000E-03 0.  1.
         11   -1    0    0    0    0 -0.00000000000E+00 -0.00000000000E+00 -0.45593999997E+02  0.45594000000E+02  0.51100000000E-03 0. -1.
    9900012    2    1    2    0    0 -0.34671425674E+02 -0.35981322731E+00  0.21235083089E+02  0.50528856162E+02  0.29999988791E+02 0.  0.
         12    1    1    2    0    0  0.34671425674E+02  0.35981322731E+00 -0.21235083089E+02  0.40659143838E+02  0.00000000000E+00 0. -1.
         11    1    3    3    0    0 -0.19526868643E+02 -0.31294087287E+01  0.97817025077E+01  0.22062944097E+02  0.51100000000E-03 0.  1.
        -11    1    3    3    0    0 -0.23865390392E+01  0.10600248118E+02  0.29896534934E+01  0.11269376958E+02  0.51100000000E-03 0. -1.
         12    1    3    3    0    0 -0.12758017991E+02 -0.78306526169E+01  0.84637270877E+01  0.17196535107E+02  0.00000000000E+00 0. -1.
</event>
<event>
 7    1  0.5748623E-013  0.5052886E+02  0.7816164E-02  0.1300439E+00
        -11   -1    0    0    0    0  0.00000000000E+00  0.00000000000E+00  0.45593999997E+02  0.45594000000E+02  0.51100000000E-03 0.  1.
         11   -1    0    0    0    0 -0.00000000000E+00 -0.00000000000E+00 -0.45593999997E+02  0.45594000000E+02  0.51100000000E-03 0. -1.
    9900012    2    1    2    0    0  0.39908284450E+02 -0.23941891856E+01  0.74001754865E+01  0.50528857033E+02  0.29999991437E+02 0.  0.
         12    1    1    2    0    0 -0.39908284450E+02  0.23941891856E+01 -0.74001754865E+01  0.40659142967E+02  0.00000000000E+00 0. -1.
         11    1    3    3    0    0  0.35201544604E+01  0.52225918273E+01 -0.42686739107E+01  0.76084512245E+01  0.51100000000E-03 0. -1.
        -11    1    3    3    0    0  0.81258900768E+01 -0.56104454726E+01  0.10714770956E+02  0.14570981602E+02  0.51100000000E-03 0.  1.
        -12    1    3    3    0    0  0.28262239913E+02 -0.20063355402E+01  0.95407844135E+00  0.28349424207E+02  0.00000000000E+00 0.  1.
</event>
<event>
 7    1  0.5748623E-013  0.5052886E+02  0.7816164E-02  0.1300439E+00
        -11   -1    0    0    0    0  0.00000000000E+00  0.00000000000E+00  0.45593999997E+02  0.45594000000E+02  0.51100000000E-03 0.  1.
         11   -1    0    0    0    0 -0.00000000000E+00 -0.00000000000E+00 -0.45593999997E+02  0.45594000000E+02  0.51100000000E-03 0. -1.
    9900012    2    1    2    0    0 -0.33931802141E+02  0.10163277055E+02  0.19962619558E+02  0.50528861093E+02  0.30000003779E+02 0.  0.
         12    1    1    2    0    0  0.33931802141E+02 -0.10163277055E+02 -0.19962619558E+02  0.40659138907E+02  0.00000000000E+00 0. -1.
         11    1    3    3    0    0 -0.49906862743E+01  0.13548923684E+02  0.11032439960E+02  0.18171268921E+02  0.51100000000E-03 0.  1.
        -11    1    3    3    0    0 -0.23572933512E+02 -0.69898578157E+01  0.63357109330E+01  0.25390599440E+02  0.51100000000E-03 0. -1.
         12    1    3    3    0    0 -0.53681823546E+01  0.36042111865E+01  0.25944686650E+01  0.69669927316E+01  0.00000000000E+00 0. -1.
</event>
<event>
 7    1  0.5748623E-013  0.5052886E+02  0.7816164E-02  0.1300439E+00
        -11   -1    0    0    0    0  0.00000000000E+00  0.00000000000E+00  0.45593999997E+02  0.45594000000E+02  0.51100000000E-03 0. -1.
         11   -1    0    0    0    0 -0.00000000000E+00 -0.00000000000E+00 -0.45593999997E+02  0.45594000000E+02  0.51100000000E-03 0.  1.
    9900012    2    1    2    0    0 -0.22224520842E+02 -0.30353470927E+02 -0.15424108138E+02  0.50528860365E+02  0.30000001566E+02 0.  0.
         12    1    1    2    0    0  0.22224520842E+02  0.30353470927E+02  0.15424108138E+02  0.40659139635E+02  0.00000000000E+00 0. -1.
         11    1    3    3    0    0  0.15691640140E+01 -0.41705536214E+01  0.41201948054E+01  0.60689207201E+01  0.51100000000E-03 0. -1.
        -11    1    3    3    0    0 -0.68153284733E+01 -0.77190014332E+01 -0.16142112046E+02  0.19146787378E+02  0.51100000000E-03 0.  1.
        -12    1    3    3    0    0 -0.16978356382E+02 -0.18463915873E+02 -0.34021908972E+01  0.25313152267E+02  0.00000000000E+00 0.  1.
</event>
<event>
 7    1  0.5748623E-013  0.5052887E+02  0.7816164E-02  0.1300439E+00
        -11   -1    0    0    0    0  0.00000000000E+00  0.00000000000E+00  0.45593999997E+02  0.45594000000E+02  0.51100000000E-03 0.  1.
         11   -1    0    0    0    0 -0.00000000000E+00 -0.00000000000E+00 -0.45593999997E+02  0.45594000000E+02  0.51100000000E-03 0. -1.
    9900012    2    1    2    0    0 -0.21076423740E+02 -0.45124116711E+01  0.34475892387E+02  0.50528872456E+02  0.30000038317E+02 0.  0.
         12    1    1    2    0    0  0.21076423740E+02  0.45124116711E+01 -0.34475892387E+02  0.40659127544E+02  0.00000000000E+00 0. -1.
         11    1    3    3    0    0  0.17006758538E+01 -0.11879045203E+00 -0.34886213719E+01  0.38828969686E+01  0.51100000000E-03 0. -1.
        -11    1    3    3    0    0 -0.10013604715E+02  0.24102986628E+01  0.25683407227E+02  0.27671632154E+02  0.51100000000E-03 0.  1.
        -12    1    3    3    0    0 -0.12763494879E+02 -0.68039198818E+01  0.12281106532E+02  0.18974343333E+02  0.00000000000E+00 0.  1.
</event>
<event>
 7    1  0.5748623E-013  0.5052878E+02  0.7816164E-02  0.1300439E+00
        -11   -1    0    0    0    0  0.00000000000E+00  0.00000000000E+00  0.45593999997E+02  0.45594000000E+02  0.51100000000E-03 0.  1.
         11   -1    0    0    0    0 -0.00000000000E+00 -0.00000000000E+00 -0.45593999997E+02  0.45594000000E+02  0.51100000000E-03 0. -1.
    9900012    2    1    2    0    0 -0.20236126838E+02  0.27827058724E+02  0.21663928591E+02  0.50528784210E+02  0.29999770085E+02 0.  0.
         12    1    1    2    0    0  0.20236126838E+02 -0.27827058724E+02 -0.21663928591E+02  0.40659215790E+02  0.00000000000E+00 0. -1.
         11    1    3    3    0    0 -0.50028482398E+01 -0.42772641008E+01  0.90505812583E+01  0.11190911494E+02  0.51100000000E-03 0. -1.
        -11    1    3    3    0    0 -0.14402661578E+02  0.19129320352E+02  0.57068140694E+01  0.24615752776E+02  0.51100000000E-03 0.  1.
         12    1    3    3    0    0 -0.83061701985E+00  0.12975002473E+02  0.69065332633E+01  0.14722119940E+02  0.00000000000E+00 0. -1.
</event>
<event>
 7    1  0.5748623E-013  0.5052886E+02  0.7816164E-02  0.1300439E+00
        -11   -1    0    0    0    0  0.00000000000E+00  0.00000000000E+00  0.45593999997E+02  0.45594000000E+02  0.51100000000E-03 0. -1.
         11   -1    0    0    0    0 -0.00000000000E+00 -0.00000000000E+00 -0.45593999997E+02  0.45594000000E+02  0.51100000000E-03 0.  1.
    9900012    2    1    2    0    0 -0.70988032008E+01  0.38320114750E+02 -0.11590593774E+02  0.50528855083E+02  0.29999985512E+02 0.  0.
         12    1    1    2    0    0  0.70988032008E+01 -0.38320114750E+02  0.11590593774E+02  0.40659144917E+02  0.00000000000E+00 0. -1.
         11    1    3    3    0    0 -0.42340791886E+01  0.28442889111E+02 -0.63033977595E+00  0.28763217763E+02  0.51100000000E-03 0. -1.
        -11    1    3    3    0    0 -0.32493817944E+01  0.11977441356E+02 -0.13573010746E+02  0.18391416597E+02  0.51100000000E-03 0.  1.
         12    1    3    3    0    0  0.38465778226E+00 -0.21002157177E+01  0.26127567475E+01  0.33742207237E+01  0.00000000000E+00 0. -1.
</event>
<event>
 7    1  0.5748623E-013  0.5052888E+02  0.7816164E-02  0.1300439E+00
        -11   -1    0    0    0    0  0.00000000000E+00  0.00000000000E+00  0.45593999997E+02  0.45594000000E+02  0.51100000000E-03 0. -1.
         11   -1    0    0    0    0 -0.00000000000E+00 -0.00000000000E+00 -0.45593999997E+02  0.45594000000E+02  0.51100000000E-03 0.  1.
    9900012    2    1    2    0    0 -0.16094362463E+02  0.33356292087E+02  0.16777768286E+02  0.50528877610E+02  0.30000053982E+02 0.  0.
         12    1    1    2    0    0  0.16094362463E+02 -0.33356292087E+02 -0.16777768286E+02  0.40659122390E+02  0.00000000000E+00 0. -1.
         11    1    3    3    0    0 -0.27223503785E+01  0.15659078445E+02  0.18626235256E+02  0.24485803425E+02  0.51100000000E-03 0. -1.
        -11    1    3    3    0    0 -0.81597247191E+01  0.15640897418E+02 -0.64591825134E+01  0.18786692592E+02  0.51100000000E-03 0.  1.
        -12    1    3    3    0    0 -0.52122873657E+01  0.20563162244E+01  0.46107155435E+01  0.72563815928E+01  0.00000000000E+00 0.  1.
</event>
<event>
 7    1  0.5748623E-013  0.5052885E+02  0.7816164E-02  0.1300439E+00
        -11   -1    0    0    0    0  0.00000000000E+00  0.00000000000E+00  0.45593999997E+02  0.45594000000E+02  0.51100000000E-03 0.  1.
         11   -1    0    0    0    0 -0.00000000000E+00 -0.00000000000E+00 -0.45593999997E+02  0.45594000000E+02  0.51100000000E-03 0. -1.
    9900012    2    1    2    0    0  0.26076863007E+02  0.29472043497E+02 -0.10225587648E+02  0.50528846357E+02  0.29999958987E+02 0.  0.
         12    1    1    2    0    0 -0.26076863007E+02 -0.29472043497E+02  0.10225587648E+02  0.40659153643E+02  0.00000000000E+00 0. -1.
         11    1    3    3    0    0  0.72078337001E+01  0.25849563736E+02 -0.13364846949E+02  0.29979525450E+02  0.51100000000E-03 0. -1.
        -11    1    3    3    0    0  0.13103616057E+02  0.46435454877E+01 -0.77210909846E-02  0.13902062017E+02  0.51100000000E-03 0.  1.
         12    1    3    3    0    0  0.57654132503E+01 -0.10210657261E+01  0.31469803913E+01  0.66472588898E+01  0.00000000000E+00 0. -1.
</event>
<event>
 7    1  0.5748623E-013  0.5052888E+02  0.7816164E-02  0.1300439E+00
        -11   -1    0    0    0    0  0.00000000000E+00  0.00000000000E+00  0.45593999997E+02  0.45594000000E+02  0.51100000000E-03 0.  1.
         11   -1    0    0    0    0 -0.00000000000E+00 -0.00000000000E+00 -0.45593999997E+02  0.45594000000E+02  0.51100000000E-03 0. -1.
    9900012    2    1    2    0    0 -0.54826584697E+01  0.26997115331E+02  0.29904188513E+02  0.50528877153E+02  0.30000052595E+02 0.  0.
         12    1    1    2    0    0  0.54826584697E+01 -0.26997115331E+02 -0.29904188513E+02  0.40659122847E+02  0.00000000000E+00 0. -1.
         11    1    3    3    0    0 -0.13414065922E+02  0.40007001779E+01  0.34039319232E+01  0.14405884883E+02  0.51100000000E-03 0. -1.
        -11    1    3    3    0    0  0.14212936467E+01  0.89811820576E+01  0.96130509724E+01  0.13232250604E+02  0.51100000000E-03 0.  1.
         12    1    3    3    0    0  0.65101138054E+01  0.14015233095E+02  0.16887205617E+02  0.22890741666E+02  0.00000000000E+00 0. -1.
</event>
<event>
 7    1  0.5748623E-013  0.5052887E+02  0.7816164E-02  0.1300439E+00
        -11   -1    0    0    0    0  0.00000000000E+00  0.00000000000E+00  0.45593999997E+02  0.45594000000E+02  0.51100000000E-03 0.  1.
         11   -1    0    0    0    0 -0.00000000000E+00 -0.00000000000E+00 -0.45593999997E+02  0.45594000000E+02  0.51100000000E-03 0. -1.
    9900012    2    1    2    0    0  0.14647097810E+02 -0.26685613950E+02  0.26953769737E+02  0.50528866104E+02  0.30000019010E+02 0.  0.
         12    1    1    2    0    0 -0.14647097810E+02  0.26685613950E+02 -0.26953769737E+02  0.40659133896E+02  0.00000000000E+00 0. -1.
         11    1    3    3    0    0  0.64241165297E+01 -0.55492160840E+01 -0.57287135087E+01  0.10241153795E+02  0.51100000000E-03 0. -1.
        -11    1    3    3    0    0  0.18538652014E+01 -0.74276651125E+01  0.16232856214E+02  0.17947496938E+02  0.51100000000E-03 0.  1.
         12    1    3    3    0    0  0.63691160792E+01 -0.13708732754E+02  0.16449627031E+02  0.22340215371E+02  0.00000000000E+00 0. -1.
</event>
<event>
 7    1  0.5748623E-013  0.5052886E+02  0.7816164E-02  0.1300439E+00
        -11   -1    0    0    0    0  0.00000000000E+00  0.00000000000E+00  0.45593999997E+02  0.45594000000E+02  0.51100000000E-03 0.  1.
         11   -1    0    0    0    0 -0.00000000000E+00 -0.00000000000E+00 -0.45593999997E+02  0.45594000000E+02  0.51100000000E-03 0. -1.
    9900012    2    1    2    0    0  0.33528301514E+02 -0.12161571229E+02  0.19522171758E+02  0.50528855797E+02  0.29999987680E+02 0.  0.
         12    1    1    2    0    0 -0.33528301514E+02  0.12161571229E+02 -0.19522171758E+02  0.40659144203E+02  0.00000000000E+00 0. -1.
         11    1    3    3    0    0  0.24492435103E+02  0.14120035686E+01  0.13511792560E+02  0.28007885850E+02  0.51100000000E-03 0.  1.
        -11    1    3    3    0    0  0.92206161944E+01 -0.12641996853E+02 -0.77779734455E+00  0.15666678538E+02  0.51100000000E-03 0. -1.
         12    1    3    3    0    0 -0.18474978290E+00 -0.93157794430E+00  0.67881765422E+01  0.68542914088E+01  0.00000000000E+00 0. -1.
</event>
<event>
 7    1  0.5748623E-013  0.5052886E+02  0.7816164E-02  0.1300439E+00
        -11   -1    0    0    0    0  0.00000000000E+00  0.00000000000E+00  0.45593999997E+02  0.45594000000E+02  0.51100000000E-03 0. -1.
         11   -1    0    0    0    0 -0.00000000000E+00 -0.00000000000E+00 -0.45593999997E+02  0.45594000000E+02  0.51100000000E-03 0.  1.
    9900012    2    1    2    0    0  0.11691958788E+02  0.63491255513E+00 -0.38936620509E+02  0.50528862885E+02  0.30000009226E+02 0.  0.
         12    1    1    2    0    0 -0.11691958788E+02 -0.63491255513E+00  0.38936620509E+02  0.40659137115E+02  0.00000000000E+00 0. -1.
         11    1    3    3    0    0  0.58521672715E+00 -0.10247161121E+02 -0.13664465577E+02  0.17089892025E+02  0.51100000000E-03 0. -1.
        -11    1    3    3    0    0  0.10094308622E+02  0.94979196296E+01 -0.78424884403E+01  0.15925142670E+02  0.51100000000E-03 0.  1.
        -12    1    3    3    0    0  0.10124334388E+01  0.13841540462E+01 -0.17429666492E+02  0.17513828191E+02  0.00000000000E+00 0.  1.
</event>
<event>
 7    1  0.5748623E-013  0.5052887E+02  0.7816164E-02  0.1300439E+00
        -11   -1    0    0    0    0  0.00000000000E+00  0.00000000000E+00  0.45593999997E+02  0.45594000000E+02  0.51100000000E-03 0.  1.
         11   -1    0    0    0    0 -0.00000000000E+00 -0.00000000000E+00 -0.45593999997E+02  0.45594000000E+02  0.51100000000E-03 0. -1.
    9900012    2    1    2    0    0  0.37677906780E+00  0.40425538524E+02 -0.43357648288E+01  0.50528868381E+02  0.30000025929E+02 0.  0.
         12    1    1    2    0    0 -0.37677906780E+00 -0.40425538524E+02  0.43357648288E+01  0.40659131619E+02  0.00000000000E+00 0. -1.
         11    1    3    3    0    0 -0.33491419604E+01  0.10527026283E+02 -0.10872819302E+02  0.15500104324E+02  0.51100000000E-03 0. -1.
        -11    1    3    3    0    0  0.63966438934E+01  0.18603635019E+02 -0.31347189925E+01  0.19920812043E+02  0.51100000000E-03 0.  1.
         12    1    3    3    0    0 -0.26707228652E+01  0.11294877221E+02  0.96717734654E+01  0.15107952013E+02  0.00000000000E+00 0. -1.
</event>
<event>
 7    1  0.5748623E-013  0.5052885E+02  0.7816164E-02  0.1300439E+00
        -11   -1    0    0    0    0  0.00000000000E+00  0.00000000000E+00  0.45593999997E+02  0.45594000000E+02  0.51100000000E-03 0. -1.
         11   -1    0    0    0    0 -0.00000000000E+00 -0.00000000000E+00 -0.45593999997E+02  0.45594000000E+02  0.51100000000E-03 0.  1.
    9900012    2    1    2    0    0  0.53612445855E+01 -0.39558750822E+02 -0.77154815295E+01  0.50528851394E+02  0.29999974297E+02 0.  0.
         12    1    1    2    0    0 -0.53612445855E+01  0.39558750822E+02  0.77154815295E+01  0.40659148606E+02  0.00000000000E+00 0. -1.
         11    1    3    3    0    0 -0.44553452842E+01 -0.64747124053E-01 -0.48110646672E+01  0.65574871166E+01  0.51100000000E-03 0. -1.
        -11    1    3    3    0    0  0.13661264641E+02 -0.29330715068E+02 -0.54475856686E+01  0.32811540468E+02  0.51100000000E-03 0.  1.
        -12    1    3    3    0    0 -0.38446747713E+01 -0.10163288630E+02  0.25431688064E+01  0.11159823809E+02  0.00000000000E+00 0.  1.
</event>
<event>
 7    1  0.5748623E-013  0.5052887E+02  0.7816164E-02  0.1300439E+00
        -11   -1    0    0    0    0  0.00000000000E+00  0.00000000000E+00  0.45593999997E+02  0.45594000000E+02  0.51100000000E-03 0.  1.
         11   -1    0    0    0    0 -0.00000000000E+00 -0.00000000000E+00 -0.45593999997E+02  0.45594000000E+02  0.51100000000E-03 0. -1.
    9900012    2    1    2    0    0  0.33120598320E+02 -0.84107057060E+01  0.22032945253E+02  0.50528872119E+02  0.30000037292E+02 0.  0.
         12    1    1    2    0    0 -0.33120598320E+02  0.84107057060E+01 -0.22032945253E+02  0.40659127881E+02  0.00000000000E+00 0. -1.
         11    1    3    3    0    0  0.28376790982E+02 -0.16236106619E+02  0.11855283320E+02  0.34776445584E+02  0.51100000000E-03 0. -1.
        -11    1    3    3    0    0  0.50081680837E+01  0.13508962214E+01  0.64492952994E+01  0.82764774074E+01  0.51100000000E-03 0.  1.
         12    1    3    3    0    0 -0.26436074532E+00  0.64745046917E+01  0.37283666333E+01  0.74759491276E+01  0.00000000000E+00 0. -1.
</event>
<event>
 7    1  0.5748623E-013  0.5052886E+02  0.7816164E-02  0.1300439E+00
        -11   -1    0    0    0    0  0.00000000000E+00  0.00000000000E+00  0.45593999997E+02  0.45594000000E+02  0.51100000000E-03 0.  1.
         11   -1    0    0    0    0 -0.00000000000E+00 -0.00000000000E+00 -0.45593999997E+02  0.45594000000E+02  0.51100000000E-03 0. -1.
    9900012    2    1    2    0    0  0.40050404725E+02 -0.22192273459E+01  0.66487478065E+01  0.50528859133E+02  0.29999997821E+02 0.  0.
         12    1    1    2    0    0 -0.40050404725E+02  0.22192273459E+01 -0.66487478065E+01  0.40659140867E+02  0.00000000000E+00 0. -1.
         11    1    3    3    0    0 -0.28885172150E+01 -0.13172621578E+01 -0.16520781733E+01  0.35788369403E+01  0.51100000000E-03 0. -1.
        -11    1    3    3    0    0  0.41659578576E+02 -0.47755599885E+01  0.87826094574E+01  0.42842276894E+02  0.51100000000E-03 0.  1.
         12    1    3    3    0    0  0.12793433640E+01  0.38735948004E+01 -0.48178347762E+00  0.41077452988E+01  0.00000000000E+00 0. -1.
</event>
<event>
 7    1  0.5748623E-013  0.5052879E+02  0.7816164E-02  0.1300439E+00
        -11   -1    0    0    0    0  0.00000000000E+00  0.00000000000E+00  0.45593999997E+02  0.45594000000E+02  0.51100000000E-03 0. -1.
         11   -1    0    0    0    0 -0.00000000000E+00 -0.00000000000E+00 -0.45593999997E+02  0.45594000000E+02  0.51100000000E-03 0.  1.
    9900012    2    1    2    0    0 -0.33376398940E+02  0.16120863529E+02 -0.16712433419E+02  0.50528786063E+02  0.29999775718E+02 0.  0.
         12    1    1    2    0    0  0.33376398940E+02 -0.16120863529E+02  0.16712433419E+02  0.40659213937E+02  0.00000000000E+00 0. -1.
         11    1    3    3    0    0 -0.20949011889E+02  0.20805562945E+01  0.12263106260E+01  0.21087760706E+02  0.51100000000E-03 0. -1.
        -11    1    3    3    0    0 -0.26675946365E+01  0.11285835444E+02 -0.14846700956E+02  0.18839073023E+02  0.51100000000E-03 0.  1.
        -12    1    3    3    0    0 -0.97597924153E+01  0.27544717907E+01 -0.30920430890E+01  0.10601952334E+02  0.00000000000E+00 0.  1.
</event>
<event>
 7    1  0.5748623E-013  0.5052886E+02  0.7816164E-02  0.1300439E+00
        -11   -1    0    0    0    0  0.00000000000E+00  0.00000000000E+00  0.45593999997E+02  0.45594000000E+02  0.51100000000E-03 0. -1.
         11   -1    0    0    0    0 -0.00000000000E+00 -0.00000000000E+00 -0.45593999997E+02  0.45594000000E+02  0.51100000000E-03 0.  1.
    9900012    2    1    2    0    0  0.15991133815E+02  0.15431385228E+02 -0.34048814363E+02  0.50528858712E+02  0.29999996541E+02 0.  0.
         12    1    1    2    0    0 -0.15991133815E+02 -0.15431385228E+02  0.34048814363E+02  0.40659141288E+02  0.00000000000E+00 0. -1.
         11    1    3    3    0    0  0.75669925667E+00  0.81880981967E+01 -0.11703805622E+02  0.14303727211E+02  0.51100000000E-03 0. -1.
        -11    1    3    3    0    0  0.17605701988E+02 -0.26413958520E+01 -0.17502497184E+02  0.24965478615E+02  0.51100000000E-03 0.  1.
        -12    1    3    3    0    0 -0.23712674294E+01  0.98846828833E+01 -0.48425115567E+01  0.11259652886E+02  0.00000000000E+00 0.  1.
</event>
<event>
 7    1  0.5748623E-013  0.5052886E+02  0.7816164E-02  0.1300439E+00
        -11   -1    0    0    0    0  0.00000000000E+00  0.00000000000E+00  0.45593999997E+02  0.45594000000E+02  0.51100000000E-03 0. -1.
         11   -1    0    0    0    0 -0.00000000000E+00 -0.00000000000E+00 -0.45593999997E+02  0.45594000000E+02  0.51100000000E-03 0.  1.
    9900012    2    1    2    0    0 -0.10842134162E+02 -0.38974663364E+02  0.40730442630E+01  0.50528856537E+02  0.29999989931E+02 0.  0.
         12    1    1    2    0    0  0.10842134162E+02  0.38974663364E+02 -0.40730442630E+01  0.40659143463E+02  0.00000000000E+00 0. -1.
         11    1    3    3    0    0  0.23853059738E+01 -0.57727870331E+01 -0.38377843852E+01  0.73309851976E+01  0.51100000000E-03 0. -1.
        -11    1    3    3    0    0 -0.10574151101E+02 -0.35921184694E+02  0.38591857042E+01  0.37643558491E+02  0.51100000000E-03 0.  1.
        -12    1    3    3    0    0 -0.26532890346E+01  0.27193083629E+01  0.40516429440E+01  0.55543128485E+01  0.00000000000E+00 0.  1.
</event>
<event>
 7    1  0.5748623E-013  0.5052886E+02  0.7816164E-02  0.1300439E+00
        -11   -1    0    0    0    0  0.00000000000E+00  0.00000000000E+00  0.45593999997E+02  0.45594000000E+02  0.51100000000E-03 0. -1.
         11   -1    0    0    0    0 -0.00000000000E+00 -0.00000000000E+00 -0.45593999997E+02  0.45594000000E+02  0.51100000000E-03 0.  1.
    9900012    2    1    2    0    0  0.23282065206E+02 -0.24887313504E+02 -0.22175043025E+02  0.50528862443E+02  0.30000007883E+02 0.  0.
         12    1    1    2    0    0 -0.23282065206E+02  0.24887313504E+02  0.22175043025E+02  0.40659137557E+02  0.00000000000E+00 0. -1.
         11    1    3    3    0    0  0.21288510503E+01 -0.37606494157E+01 -0.13560018630E+02  0.14231956869E+02  0.51100000000E-03 0. -1.
        -11    1    3    3    0    0  0.23401901963E+02 -0.21470042165E+02 -0.51820086129E+01  0.32178641046E+02  0.51100000000E-03 0.  1.
         12    1    3    3    0    0 -0.22486878074E+01  0.34337807723E+00 -0.34330157826E+01  0.41182645280E+01  0.00000000000E+00 0. -1.
</event>
<event>
 7    1  0.5748623E-013  0.5052887E+02  0.7816164E-02  0.1300439E+00
        -11   -1    0    0    0    0  0.00000000000E+00  0.00000000000E+00  0.45593999997E+02  0.45594000000E+02  0.51100000000E-03 0.  1.
         11   -1    0    0    0    0 -0.00000000000E+00 -0.00000000000E+00 -0.45593999997E+02  0.45594000000E+02  0.51100000000E-03 0. -1.
    9900012    2    1    2    0    0 -0.18766022822E+02  0.28316958215E+02  0.22341695117E+02  0.50528867252E+02  0.30000022500E+02 0.  0.
         12    1    1    2    0    0  0.18766022822E+02 -0.28316958215E+02 -0.22341695117E+02  0.40659132748E+02  0.00000000000E+00 0. -1.
         11    1    3    3    0    0  0.61372429167E+00  0.27208269678E+01 -0.28259349574E+01  0.39705749633E+01  0.51100000000E-03 0. -1.
        -11    1    3    3    0    0 -0.49005317794E+01  0.13917972671E+02  0.23674885682E+02  0.27896691333E+02  0.51100000000E-03 0.  1.
        -12    1    3    3    0    0 -0.14479215334E+02  0.11678158576E+02  0.14927443922E+01  0.18661600956E+02  0.00000000000E+00 0.  1.
</event>
<event>
 7    1  0.5748623E-013  0.5052886E+02  0.7816164E-02  0.1300439E+00
        -11   -1    0    0    0    0  0.00000000000E+00  0.00000000000E+00  0.45593999997E+02  0.45594000000E+02  0.51100000000E-03 0.  1.
         11   -1    0    0    0    0 -0.00000000000E+00 -0.00000000000E+00 -0.45593999997E+02  0.45594000000E+02  0.51100000000E-03 0. -1.
    9900012    2    1    2    0    0 -0.15061463273E+02  0.12774947580E+02  0.35540384687E+02  0.50528857051E+02  0.29999991494E+02 0.  0.
         12    1    1    2    0    0  0.15061463273E+02 -0.12774947580E+02 -0.35540384687E+02  0.40659142949E+02  0.00000000000E+00 0. -1.
         11    1    3    3    0    0 -0.43732332445E+01  0.13302813677E+02  0.15523930418E+02  0.20906516607E+02  0.51100000000E-03 0. -1.
        -11    1    3    3    0    0 -0.77368623187E+01 -0.75027401478E+01  0.19182854915E+02  0.22003001414E+02  0.51100000000E-03 0.  1.
         12    1    3    3    0    0 -0.29513677097E+01  0.69748740509E+01  0.83359935394E+00  0.76193390308E+01  0.00000000000E+00 0. -1.
</event>
<event>
 7    1  0.5748623E-013  0.5052887E+02  0.7816164E-02  0.1300439E+00
        -11   -1    0    0    0    0  0.00000000000E+00  0.00000000000E+00  0.45593999997E+02  0.45594000000E+02  0.51100000000E-03 0.  1.
         11   -1    0    0    0    0 -0.00000000000E+00 -0.00000000000E+00 -0.45593999997E+02  0.45594000000E+02  0.51100000000E-03 0. -1.
    9900012    2    1    2    0    0  0.10234927838E+02  0.67398946090E+01  0.38768349188E+02  0.50528870324E+02  0.30000031838E+02 0.  0.
         12    1    1    2    0    0 -0.10234927838E+02 -0.67398946090E+01 -0.38768349188E+02  0.40659129676E+02  0.00000000000E+00 0. -1.
         11    1    3    3    0    0  0.16301405365E+02 -0.46056148900E+01  0.12408160152E+02  0.20997855700E+02  0.51100000000E-03 0. -1.
        -11    1    3    3    0    0 -0.85494906349E+00  0.47806560891E+01  0.82100810160E+01  0.95389224283E+01  0.51100000000E-03 0.  1.
         12    1    3    3    0    0 -0.52115284633E+01  0.65648534099E+01  0.18150108021E+02  0.19992092196E+02  0.00000000000E+00 0. -1.
</event>
<event>
 7    1  0.5748623E-013  0.5052888E+02  0.7816164E-02  0.1300439E+00
        -11   -1    0    0    0    0  0.00000000000E+00  0.00000000000E+00  0.45593999997E+02  0.45594000000E+02  0.51100000000E-03 0. -1.
         11   -1    0    0    0    0 -0.00000000000E+00 -0.00000000000E+00 -0.45593999997E+02  0.45594000000E+02  0.51100000000E-03 0.  1.
    9900012    2    1    2    0    0 -0.11407785130E+02 -0.11901742904E+02 -0.37166857526E+02  0.50528876251E+02  0.30000049851E+02 0.  0.
         12    1    1    2    0    0  0.11407785130E+02  0.11901742904E+02  0.37166857526E+02  0.40659123749E+02  0.00000000000E+00 0. -1.
         11    1    3    3    0    0 -0.18281542990E+02 -0.12973740944E+02 -0.15951957268E+02  0.27513591352E+02  0.51100000000E-03 0. -1.
        -11    1    3    3    0    0  0.41455501795E+01 -0.17550927680E+01 -0.74864639741E+01  0.87357358025E+01  0.51100000000E-03 0.  1.
         12    1    3    3    0    0  0.27282076801E+01  0.28270908078E+01 -0.13728436284E+02  0.14279549096E+02  0.00000000000E+00 0. -1.
</event>
<event>
 7    1  0.5748623E-013  0.5052886E+02  0.7816164E-02  0.1300439E+00
        -11   -1    0    0    0    0  0.00000000000E+00  0.00000000000E+00  0.45593999997E+02  0.45594000000E+02  0.51100000000E-03 0. -1.
         11   -1    0    0    0    0 -0.00000000000E+00 -0.00000000000E+00 -0.45593999997E+02  0.45594000000E+02  0.51100000000E-03 0.  1.
    9900012    2    1    2    0    0 -0.17581097999E+02  0.34954929411E+02 -0.11055478307E+02  0.50528859606E+02  0.29999999259E+02 0.  0.
         12    1    1    2    0    0  0.17581097999E+02 -0.34954929411E+02  0.11055478307E+02  0.40659140394E+02  0.00000000000E+00 0. -1.
         11    1    3    3    0    0 -0.42264192705E+00  0.31735047773E+01  0.71490533015E+01  0.78331808443E+01  0.51100000000E-03 0. -1.
        -11    1    3    3    0    0 -0.73049855158E+01  0.22197804815E+02 -0.16998782089E+02  0.28897472982E+02  0.51100000000E-03 0.  1.
        -12    1    3    3    0    0 -0.98534705561E+01  0.95836198185E+01 -0.12057495198E+01  0.13798205779E+02  0.00000000000E+00 0.  1.
</event>
<event>
 7    1  0.5748623E-013  0.5052886E+02  0.7816164E-02  0.1300439E+00
        -11   -1    0    0    0    0  0.00000000000E+00  0.00000000000E+00  0.45593999997E+02  0.45594000000E+02  0.51100000000E-03 0.  1.
         11   -1    0    0    0    0 -0.00000000000E+00 -0.00000000000E+00 -0.45593999997E+02  0.45594000000E+02  0.51100000000E-03 0. -1.
    9900012    2    1    2    0    0 -0.18593060162E+01 -0.36540258873E+02  0.17734648128E+02  0.50528864721E+02  0.30000014806E+02 0.  0.
         12    1    1    2    0    0  0.18593060162E+01  0.36540258873E+02 -0.17734648128E+02  0.40659135279E+02  0.00000000000E+00 0. -1.
         11    1    3    3    0    0 -0.26109365353E+01 -0.20535264347E+02  0.30629792881E+01  0.20925962672E+02  0.51100000000E-03 0. -1.
        -11    1    3    3    0    0  0.39899002637E+01  0.26957089653E+01 -0.10846302460E+01  0.49358458214E+01  0.51100000000E-03 0.  1.
         12    1    3    3    0    0 -0.32382697446E+01 -0.18700703492E+02  0.15756299086E+02  0.24667056228E+02  0.00000000000E+00 0. -1.
</event>
<event>
 7    1  0.5748623E-013  0.5052887E+02  0.7816164E-02  0.1300439E+00
        -11   -1    0    0    0    0  0.00000000000E+00  0.00000000000E+00  0.45593999997E+02  0.45594000000E+02  0.51100000000E-03 0. -1.
         11   -1    0    0    0    0 -0.00000000000E+00 -0.00000000000E+00 -0.45593999997E+02  0.45594000000E+02  0.51100000000E-03 0.  1.
    9900012    2    1    2    0    0  0.17066174334E+01 -0.39558606042E+02  0.92395525099E+01  0.50528865902E+02  0.30000018395E+02 0.  0.
         12    1    1    2    0    0 -0.17066174334E+01  0.39558606042E+02 -0.92395525099E+01  0.40659134098E+02  0.00000000000E+00 0. -1.
         11    1    3    3    0    0  0.30247980448E+01 -0.29488538356E+02  0.19378548078E+02  0.35415412230E+02  0.51100000000E-03 0. -1.
        -11    1    3    3    0    0 -0.29646486942E+01 -0.53046267725E+01 -0.45865054701E+01  0.76134249694E+01  0.51100000000E-03 0.  1.
         12    1    3    3    0    0  0.16464680828E+01 -0.47654409133E+01 -0.55524900978E+01  0.75000287021E+01  0.00000000000E+00 0. -1.
</event>
<event>
 7    1  0.5748623E-013  0.5052887E+02  0.7816164E-02  0.1300439E+00
        -11   -1    0    0    0    0  0.00000000000E+00  0.00000000000E+00  0.45593999997E+02  0.45594000000E+02  0.51100000000E-03 0.  1.
         11   -1    0    0    0    0 -0.00000000000E+00 -0.00000000000E+00 -0.45593999997E+02  0.45594000000E+02  0.51100000000E-03 0. -1.
    9900012    2    1    2    0    0 -0.21374907695E+02  0.11457313497E+01  0.34568274997E+02  0.50528867993E+02  0.30000024752E+02 0.  0.
         12    1    1    2    0    0  0.21374907695E+02 -0.11457313497E+01 -0.34568274997E+02  0.40659132007E+02  0.00000000000E+00 0. -1.
         11    1    3    3    0    0 -0.43956087712E+01  0.20953145631E+01  0.78383519766E+00  0.49321514034E+01  0.51100000000E-03 0. -1.
        -11    1    3    3    0    0  0.37473464034E+01 -0.62191407008E+01  0.16748674878E+02  0.18254819269E+02  0.51100000000E-03 0.  1.
        -12    1    3    3    0    0 -0.20726645327E+02  0.52695574874E+01  0.17035764921E+02  0.27341897320E+02  0.00000000000E+00 0.  1.
</event>
<event>
 7    1  0.5748623E-013  0.5052885E+02  0.7816164E-02  0.1300439E+00
        -11   -1    0    0    0    0  0.00000000000E+00  0.00000000000E+00  0.45593999997E+02  0.45594000000E+02  0.51100000000E-03 0.  1.
         11   -1    0    0    0    0 -0.00000000000E+00 -0.00000000000E+00 -0.45593999997E+02  0.45594000000E+02  0.51100000000E-03 0. -1.
    9900012    2    1    2    0    0 -0.33067289007E+02  0.16993004071E+02  0.16460825993E+02  0.50528848730E+02  0.29999966200E+02 0.  0.
         12    1    1    2    0    0  0.33067289007E+02 -0.16993004071E+02 -0.16460825993E+02  0.40659151270E+02  0.00000000000E+00 0. -1.
         11    1    3    3    0    0  0.78481107106E+00  0.16062355051E+00 -0.61149044418E+01  0.61671537143E+01  0.51100000000E-03 0. -1.
        -11    1    3    3    0    0 -0.48155433951E+01  0.14662386062E+01  0.50376633157E+01  0.71216125831E+01  0.51100000000E-03 0.  1.
         12    1    3    3    0    0 -0.29036556683E+02  0.15366141914E+02  0.17538067119E+02  0.37240082433E+02  0.00000000000E+00 0. -1.
</event>
<event>
 7    1  0.5748623E-013  0.5052887E+02  0.7816164E-02  0.1300439E+00
        -11   -1    0    0    0    0  0.00000000000E+00  0.00000000000E+00  0.45593999997E+02  0.45594000000E+02  0.51100000000E-03 0.  1.
         11   -1    0    0    0    0 -0.00000000000E+00 -0.00000000000E+00 -0.45593999997E+02  0.45594000000E+02  0.51100000000E-03 0. -1.
    9900012    2    1    2    0    0 -0.22855616649E+02  0.32324862108E+02 -0.92676205950E+01  0.50528871699E+02  0.30000036016E+02 0.  0.
         12    1    1    2    0    0  0.22855616649E+02 -0.32324862108E+02  0.92676205950E+01  0.40659128301E+02  0.00000000000E+00 0. -1.
         11    1    3    3    0    0 -0.27850511703E+01  0.59947434090E+01 -0.14540383942E+02  0.15972358123E+02  0.51100000000E-03 0. -1.
        -11    1    3    3    0    0 -0.13424714959E+02  0.21640820927E+02  0.12879273158E+01  0.25499154086E+02  0.51100000000E-03 0.  1.
         12    1    3    3    0    0 -0.66458505198E+01  0.46892977728E+01  0.39848360311E+01  0.90573594898E+01  0.00000000000E+00 0. -1.
</event>
<event>
 7    1  0.5748623E-013  0.5052886E+02  0.7816164E-02  0.1300439E+00
        -11   -1    0    0    0    0  0.00000000000E+00  0.00000000000E+00  0.45593999997E+02  0.45594000000E+02  0.51100000000E-03 0.  1.
         11   -1    0    0    0    0 -0.00000000000E+00 -0.00000000000E+00 -0.45593999997E+02  0.45594000000E+02  0.51100000000E-03 0. -1.
    9900012    2    1    2    0    0  0.38897443346E+02  0.40534969246E+01 -0.11123100422E+02  0.50528864505E+02  0.30000014150E+02 0.  0.
         12    1    1    2    0    0 -0.38897443346E+02 -0.40534969246E+01  0.11123100422E+02  0.40659135495E+02  0.00000000000E+00 0. -1.
         11    1    3    3    0    0  0.37764768494E+02  0.86879781037E+01 -0.14103114023E+02  0.41237804601E+02  0.51100000000E-03 0. -1.
        -11    1    3    3    0    0  0.42524772524E+01 -0.21517218691E+01  0.11426063794E+01  0.49009202588E+01  0.51100000000E-03 0.  1.
         12    1    3    3    0    0 -0.31198023997E+01 -0.24827593100E+01  0.18374072221E+01  0.43901396452E+01  0.00000000000E+00 0. -1.
</event>
<event>
 7    1  0.5748623E-013  0.5052883E+02  0.7816164E-02  0.1300439E+00
        -11   -1    0    0    0    0  0.00000000000E+00  0.00000000000E+00  0.45593999997E+02  0.45594000000E+02  0.51100000000E-03 0.  1.
         11   -1    0    0    0    0 -0.00000000000E+00 -0.00000000000E+00 -0.45593999997E+02  0.45594000000E+02  0.51100000000E-03 0. -1.
    9900012    2    1    2    0    0 -0.31121600753E+01 -0.11414871052E+01  0.40523814591E+02  0.50528830282E+02  0.29999910126E+02 0.  0.
         12    1    1    2    0    0  0.31121600753E+01  0.11414871052E+01 -0.40523814591E+02  0.40659169718E+02  0.00000000000E+00 0. -1.
         11    1    3    3    0    0  0.37898512020E+01  0.60082093268E+01  0.23316896768E+02  0.24374971315E+02  0.51100000000E-03 0.  1.
        -11    1    3    3    0    0 -0.11354542792E+02 -0.65522908263E+00  0.73658730801E+01  0.13550315630E+02  0.51100000000E-03 0. -1.
        -12    1    3    3    0    0  0.44525315146E+01 -0.64944673493E+01  0.98410447427E+01  0.12603543338E+02  0.00000000000E+00 0.  1.
</event>
<event>
 7    1  0.5748623E-013  0.5052886E+02  0.7816164E-02  0.1300439E+00
        -11   -1    0    0    0    0  0.00000000000E+00  0.00000000000E+00  0.45593999997E+02  0.45594000000E+02  0.51100000000E-03 0.  1.
         11   -1    0    0    0    0 -0.00000000000E+00 -0.00000000000E+00 -0.45593999997E+02  0.45594000000E+02  0.51100000000E-03 0. -1.
    9900012    2    1    2    0    0  0.52477066422E+01 -0.26617893084E+02  0.30283907906E+02  0.50528859142E+02  0.29999997849E+02 0.  0.
         12    1    1    2    0    0 -0.52477066422E+01  0.26617893084E+02 -0.30283907906E+02  0.40659140858E+02  0.00000000000E+00 0. -1.
         11    1    3    3    0    0 -0.77899702411E+01 -0.14620690969E+02  0.86040478395E+01  0.18667562247E+02  0.51100000000E-03 0. -1.
        -11    1    3    3    0    0  0.79507434873E+01 -0.31325234867E+01  0.19668476677E+02  0.21444719641E+02  0.51100000000E-03 0.  1.
         12    1    3    3    0    0  0.50869333960E+01 -0.88646786287E+01  0.20113833886E+01  0.10416577255E+02  0.00000000000E+00 0. -1.
</event>
<event>
 7    1  0.5748623E-013  0.5052886E+02  0.7816164E-02  0.1300439E+00
        -11   -1    0    0    0    0  0.00000000000E+00  0.00000000000E+00  0.45593999997E+02  0.45594000000E+02  0.51100000000E-03 0.  1.
         11   -1    0    0    0    0 -0.00000000000E+00 -0.00000000000E+00 -0.45593999997E+02  0.45594000000E+02  0.51100000000E-03 0. -1.
    9900012    2    1    2    0    0  0.11172023652E+02 -0.14583624092E+02  0.36272155246E+02  0.50528862647E+02  0.30000008502E+02 0.  0.
         12    1    1    2    0    0 -0.11172023652E+02  0.14583624092E+02 -0.36272155246E+02  0.40659137353E+02  0.00000000000E+00 0. -1.
         11    1    3    3    0    0 -0.21539890580E+00 -0.45679831271E+01 -0.21949985649E+01  0.50725620251E+01  0.51100000000E-03 0. -1.
        -11    1    3    3    0    0  0.16252618618E+02 -0.78336406556E+01  0.23909933788E+02  0.29953271472E+02  0.51100000000E-03 0.  1.
        -12    1    3    3    0    0 -0.48651960600E+01 -0.21820003091E+01  0.14557220022E+02  0.15503029150E+02  0.00000000000E+00 0.  1.
</event>
<event>
 7    1  0.5748623E-013  0.5052886E+02  0.7816164E-02  0.1300439E+00
        -11   -1    0    0    0    0  0.00000000000E+00  0.00000000000E+00  0.45593999997E+02  0.45594000000E+02  0.51100000000E-03 0.  1.
         11   -1    0    0    0    0 -0.00000000000E+00 -0.00000000000E+00 -0.45593999997E+02  0.45594000000E+02  0.51100000000E-03 0. -1.
    9900012    2    1    2    0    0 -0.14309897158E+02  0.22954513137E+02  0.30355933158E+02  0.50528861938E+02  0.30000006347E+02 0.  0.
         12    1    1    2    0    0  0.14309897158E+02 -0.22954513137E+02 -0.30355933158E+02  0.40659138062E+02  0.00000000000E+00 0. -1.
         11    1    3    3    0    0  0.51819429462E+01 -0.10871512788E+01  0.22863864263E+01  0.57673211938E+01  0.51100000000E-03 0. -1.
        -11    1    3    3    0    0 -0.16151590238E+02  0.25235623299E+02  0.28290341589E+02  0.41207450516E+02  0.51100000000E-03 0.  1.
         12    1    3    3    0    0 -0.33402498665E+01 -0.11939588834E+01 -0.22079485718E+00  0.35540902289E+01  0.00000000000E+00 0. -1.
</event>
<event>
 7    1  0.5748623E-013  0.5052886E+02  0.7816164E-02  0.1300439E+00
        -11   -1    0    0    0    0  0.00000000000E+00  0.00000000000E+00  0.45593999997E+02  0.45594000000E+02  0.51100000000E-03 0.  1.
         11   -1    0    0    0    0 -0.00000000000E+00 -0.00000000000E+00 -0.45593999997E+02  0.45594000000E+02  0.51100000000E-03 0. -1.
    9900012    2    1    2    0    0  0.13538385322E+01 -0.34377504740E+02  0.21668410972E+02  0.50528859023E+02  0.29999997488E+02 0.  0.
         12    1    1    2    0    0 -0.13538385322E+01  0.34377504740E+02 -0.21668410972E+02  0.40659140977E+02  0.00000000000E+00 0. -1.
         11    1    3    3    0    0 -0.51588850215E+01 -0.61541867574E+00 -0.12835252069E+01  0.53516606795E+01  0.51100000000E-03 0. -1.
        -11    1    3    3    0    0  0.11635609085E+02 -0.29073062402E+02  0.15330709781E+02  0.34866330734E+02  0.51100000000E-03 0.  1.
        -12    1    3    3    0    0 -0.51228855312E+01 -0.46890236621E+01  0.76212263970E+01  0.10310867610E+02  0.00000000000E+00 0.  1.
</event>
<event>
 7    1  0.5748623E-013  0.5052886E+02  0.7816164E-02  0.1300439E+00
        -11   -1    0    0    0    0  0.00000000000E+00  0.00000000000E+00  0.45593999997E+02  0.45594000000E+02  0.51100000000E-03 0.  1.
         11   -1    0    0    0    0 -0.00000000000E+00 -0.00000000000E+00 -0.45593999997E+02  0.45594000000E+02  0.51100000000E-03 0. -1.
    9900012    2    1    2    0    0 -0.36047501085E+02  0.18485609984E+02 -0.34677539101E+01  0.50528862920E+02  0.30000009331E+02 0.  0.
         12    1    1    2    0    0  0.36047501085E+02 -0.18485609984E+02  0.34677539101E+01  0.40659137080E+02  0.00000000000E+00 0. -1.
         11    1    3    3    0    0 -0.25239321752E+02  0.42990059021E+01 -0.11846185080E+02  0.28210581622E+02  0.51100000000E-03 0. -1.
        -11    1    3    3    0    0 -0.19405063286E+01  0.86984890495E+01 -0.45458429867E-01  0.89124263411E+01  0.51100000000E-03 0.  1.
         12    1    3    3    0    0 -0.88676730042E+01  0.54881150324E+01  0.84238896002E+01  0.13405854956E+02  0.00000000000E+00 0. -1.
</event>
<event>
 7    1  0.5748623E-013  0.5052884E+02  0.7816164E-02  0.1300439E+00
        -11   -1    0    0    0    0  0.00000000000E+00  0.00000000000E+00  0.45593999997E+02  0.45594000000E+02  0.51100000000E-03 0. -1.
         11   -1    0    0    0    0 -0.00000000000E+00 -0.00000000000E+00 -0.45593999997E+02  0.45594000000E+02  0.51100000000E-03 0.  1.
    9900012    2    1    2    0    0  0.14354076031E+02 -0.36997713358E+02  0.88485449014E+01  0.50528843106E+02  0.29999949105E+02 0.  0.
         12    1    1    2    0    0 -0.14354076031E+02  0.36997713358E+02 -0.88485449014E+01  0.40659156894E+02  0.00000000000E+00 0. -1.
         11    1    3    3    0    0 -0.47377472129E+01 -0.74008500229E+01  0.15811414523E+01  0.89285406573E+01  0.51100000000E-03 0. -1.
        -11    1    3    3    0    0  0.10001304314E+02 -0.53516075484E+00 -0.95040967292E+00  0.10060604546E+02  0.51100000000E-03 0.  1.
        -12    1    3    3    0    0  0.90905189301E+01 -0.29061702581E+02  0.82178131219E+01  0.31539697903E+02  0.00000000000E+00 0.  1.
</event>
<event>
 7    1  0.5748623E-013  0.5052886E+02  0.7816164E-02  0.1300439E+00
        -11   -1    0    0    0    0  0.00000000000E+00  0.00000000000E+00  0.45593999997E+02  0.45594000000E+02  0.51100000000E-03 0.  1.
         11   -1    0    0    0    0 -0.00000000000E+00 -0.00000000000E+00 -0.45593999997E+02  0.45594000000E+02  0.51100000000E-03 0. -1.
    9900012    2    1    2    0    0  0.84827255027E+01  0.23937925591E+02  0.31751925803E+02  0.50528859505E+02  0.29999998952E+02 0.  0.
         12    1    1    2    0    0 -0.84827255027E+01 -0.23937925591E+02 -0.31751925803E+02  0.40659140495E+02  0.00000000000E+00 0. -1.
         11    1    3    3    0    0  0.34122291785E+01 -0.33893583227E+01  0.11949107130E+02  0.12880691724E+02  0.51100000000E-03 0. -1.
        -11    1    3    3    0    0  0.34110579529E+01  0.27423051914E+02  0.21692458878E+02  0.35131493920E+02  0.51100000000E-03 0.  1.
        -12    1    3    3    0    0  0.16594383713E+01 -0.95767999857E-01 -0.18896402057E+01  0.25166738615E+01  0.00000000000E+00 0.  1.
</event>
<event>
 7    1  0.5748623E-013  0.5052885E+02  0.7816164E-02  0.1300439E+00
        -11   -1    0    0    0    0  0.00000000000E+00  0.00000000000E+00  0.45593999997E+02  0.45594000000E+02  0.51100000000E-03 0.  1.
         11   -1    0    0    0    0 -0.00000000000E+00 -0.00000000000E+00 -0.45593999997E+02  0.45594000000E+02  0.51100000000E-03 0. -1.
    9900012    2    1    2    0    0 -0.28843186701E+02  0.32910710675E+01  0.28467629043E+02  0.50528850093E+02  0.29999970342E+02 0.  0.
         12    1    1    2    0    0  0.28843186701E+02 -0.32910710675E+01 -0.28467629043E+02  0.40659149907E+02  0.00000000000E+00 0. -1.
         11    1    3    3    0    0 -0.73976845374E+01  0.63569292702E+01  0.26218634169E+02  0.27974149928E+02  0.51100000000E-03 0. -1.
        -11    1    3    3    0    0 -0.89452329461E+01  0.15728422498E+01  0.14510814446E+01  0.91976444170E+01  0.51100000000E-03 0.  1.
         12    1    3    3    0    0 -0.12500269218E+02 -0.46387004525E+01  0.79791342946E+00  0.13357055748E+02  0.00000000000E+00 0. -1.
</event>
<event>
 7    1  0.5748623E-013  0.5052886E+02  0.7816164E-02  0.1300439E+00
        -11   -1    0    0    0    0  0.00000000000E+00  0.00000000000E+00  0.45593999997E+02  0.45594000000E+02  0.51100000000E-03 0.  1.
         11   -1    0    0    0    0 -0.00000000000E+00 -0.00000000000E+00 -0.45593999997E+02  0.45594000000E+02  0.51100000000E-03 0. -1.
    9900012    2    1    2    0    0  0.28644186257E+02  0.27246779269E+02 -0.95020801023E+01  0.50528856955E+02  0.29999991200E+02 0.  0.
         12    1    1    2    0    0 -0.28644186257E+02 -0.27246779269E+02  0.95020801023E+01  0.40659143045E+02  0.00000000000E+00 0. -1.
         11    1    3    3    0    0  0.59757038470E+01  0.12809777693E+02 -0.12471259560E+02  0.18850245524E+02  0.51100000000E-03 0. -1.
        -11    1    3    3    0    0  0.23107868365E+02  0.11540392204E+02 -0.20036414221E+01  0.25906925942E+02  0.51100000000E-03 0.  1.
         12    1    3    3    0    0 -0.43938595462E+00  0.28966093727E+01  0.49728208802E+01  0.57716854888E+01  0.00000000000E+00 0. -1.
</event>
<event>
 7    1  0.5748623E-013  0.5052886E+02  0.7816164E-02  0.1300439E+00
        -11   -1    0    0    0    0  0.00000000000E+00  0.00000000000E+00  0.45593999997E+02  0.45594000000E+02  0.51100000000E-03 0.  1.
         11   -1    0    0    0    0 -0.00000000000E+00 -0.00000000000E+00 -0.45593999997E+02  0.45594000000E+02  0.51100000000E-03 0. -1.
    9900012    2    1    2    0    0  0.32705942790E+02 -0.10351434305E+02  0.21825089287E+02  0.50528863163E+02  0.30000010069E+02 0.  0.
         12    1    1    2    0    0 -0.32705942790E+02  0.10351434305E+02 -0.21825089287E+02  0.40659136837E+02  0.00000000000E+00 0. -1.
         11    1    3    3    0    0  0.13232549697E+02  0.88798813914E+00 -0.28319154788E+01  0.13561291972E+02  0.51100000000E-03 0.  1.
        -11    1    3    3    0    0  0.41182655736E+01 -0.61038552732E+01  0.18024705795E+02  0.19470674867E+02  0.51100000000E-03 0. -1.
        -12    1    3    3    0    0  0.15355127519E+02 -0.51355671708E+01  0.66322989715E+01  0.17496896323E+02  0.00000000000E+00 0.  1.
</event>
<event>
 7    1  0.5748623E-013  0.5052886E+02  0.7816164E-02  0.1300439E+00
        -11   -1    0    0    0    0  0.00000000000E+00  0.00000000000E+00  0.45593999997E+02  0.45594000000E+02  0.51100000000E-03 0.  1.
         11   -1    0    0    0    0 -0.00000000000E+00 -0.00000000000E+00 -0.45593999997E+02  0.45594000000E+02  0.51100000000E-03 0. -1.
    9900012    2    1    2    0    0  0.28063674207E+02 -0.20383184492E+02  0.21216070981E+02  0.50528859725E+02  0.29999999621E+02 0.  0.
         12    1    1    2    0    0 -0.28063674207E+02  0.20383184492E+02 -0.21216070981E+02  0.40659140275E+02  0.00000000000E+00 0. -1.
         11    1    3    3    0    0  0.11932293479E+02 -0.73313987331E+01 -0.57335360135E+01  0.15132827579E+02  0.51100000000E-03 0. -1.
        -11    1    3    3    0    0  0.71006022204E+01 -0.41713315842E+00  0.59240466074E+01  0.92567208250E+01  0.51100000000E-03 0.  1.
         12    1    3    3    0    0  0.90307785076E+01 -0.12634652600E+02  0.21025560387E+02  0.26139311322E+02  0.00000000000E+00 0. -1.
</event>
<event>
 7    1  0.5748623E-013  0.5052886E+02  0.7816164E-02  0.1300439E+00
        -11   -1    0    0    0    0  0.00000000000E+00  0.00000000000E+00  0.45593999997E+02  0.45594000000E+02  0.51100000000E-03 0.  1.
         11   -1    0    0    0    0 -0.00000000000E+00 -0.00000000000E+00 -0.45593999997E+02  0.45594000000E+02  0.51100000000E-03 0. -1.
    9900012    2    1    2    0    0 -0.39196109174E+02 -0.21169607656E+01 -0.10599477697E+02  0.50528862961E+02  0.30000009457E+02 0.  0.
         12    1    1    2    0    0  0.39196109174E+02  0.21169607656E+01  0.10599477697E+02  0.40659137039E+02  0.00000000000E+00 0. -1.
         11    1    3    3    0    0 -0.11188438965E+02  0.10934899613E+02 -0.51803514005E+01  0.16479964712E+02  0.51100000000E-03 0. -1.
        -11    1    3    3    0    0 -0.17879349056E+02 -0.78337730293E+01 -0.98000782893E+01  0.21842176112E+02  0.51100000000E-03 0.  1.
         12    1    3    3    0    0 -0.10128321153E+02 -0.52180873495E+01  0.43809519929E+01  0.12206722137E+02  0.00000000000E+00 0. -1.
</event>
<event>
 7    1  0.5748623E-013  0.5052886E+02  0.7816164E-02  0.1300439E+00
        -11   -1    0    0    0    0  0.00000000000E+00  0.00000000000E+00  0.45593999997E+02  0.45594000000E+02  0.51100000000E-03 0. -1.
         11   -1    0    0    0    0 -0.00000000000E+00 -0.00000000000E+00 -0.45593999997E+02  0.45594000000E+02  0.51100000000E-03 0.  1.
    9900012    2    1    2    0    0 -0.22167451543E+02 -0.10349971007E+02  0.32475345014E+02  0.50528857836E+02  0.29999993878E+02 0.  0.
         12    1    1    2    0    0  0.22167451543E+02  0.10349971007E+02 -0.32475345014E+02  0.40659142164E+02  0.00000000000E+00 0. -1.
         11    1    3    3    0    0  0.23092637807E+01  0.39592430547E+01  0.15785919441E+02  0.16437869620E+02  0.51100000000E-03 0. -1.
        -11    1    3    3    0    0 -0.23052969165E+02 -0.15534473187E+02  0.15127611583E+02  0.31648125963E+02  0.51100000000E-03 0.  1.
        -12    1    3    3    0    0 -0.14237461586E+01  0.12252591253E+01  0.15618139897E+01  0.24428622529E+01  0.00000000000E+00 0.  1.
</event>
<event>
 7    1  0.5748623E-013  0.5052885E+02  0.7816164E-02  0.1300439E+00
        -11   -1    0    0    0    0  0.00000000000E+00  0.00000000000E+00  0.45593999997E+02  0.45594000000E+02  0.51100000000E-03 0.  1.
         11   -1    0    0    0    0 -0.00000000000E+00 -0.00000000000E+00 -0.45593999997E+02  0.45594000000E+02  0.51100000000E-03 0. -1.
    9900012    2    1    2    0    0 -0.31513116938E+02 -0.19481113249E+02  0.16750401558E+02  0.50528852629E+02  0.29999978052E+02 0.  0.
         12    1    1    2    0    0  0.31513116938E+02  0.19481113249E+02 -0.16750401558E+02  0.40659147371E+02  0.00000000000E+00 0. -1.
         11    1    3    3    0    0  0.17633749447E+01 -0.43957750666E+01 -0.52452307084E+01  0.70671617413E+01  0.51100000000E-03 0. -1.
        -11    1    3    3    0    0 -0.27851902356E+02 -0.12622762070E+02  0.14375778173E+02  0.33789430085E+02  0.51100000000E-03 0.  1.
        -12    1    3    3    0    0 -0.54245895259E+01 -0.24625761124E+01  0.76198540932E+01  0.96722608027E+01  0.00000000000E+00 0.  1.
</event>
<event>
 7    1  0.5748623E-013  0.5052886E+02  0.7816164E-02  0.1300439E+00
        -11   -1    0    0    0    0  0.00000000000E+00  0.00000000000E+00  0.45593999997E+02  0.45594000000E+02  0.51100000000E-03 0.  1.
         11   -1    0    0    0    0 -0.00000000000E+00 -0.00000000000E+00 -0.45593999997E+02  0.45594000000E+02  0.51100000000E-03 0. -1.
    9900012    2    1    2    0    0  0.21536202162E+02  0.14726964887E+02  0.31184524580E+02  0.50528855006E+02  0.29999985276E+02 0.  0.
         12    1    1    2    0    0 -0.21536202162E+02 -0.14726964887E+02 -0.31184524580E+02  0.40659144994E+02  0.00000000000E+00 0. -1.
         11    1    3    3    0    0 -0.50411079793E+01 -0.38017333665E+01  0.33454761340E+01  0.71454990780E+01  0.51100000000E-03 0. -1.
        -11    1    3    3    0    0  0.17933192763E+02  0.14345582529E+02  0.15323248493E+02  0.27607917079E+02  0.51100000000E-03 0.  1.
         12    1    3    3    0    0  0.86441173784E+01  0.41831157251E+01  0.12515799953E+02  0.15775438849E+02  0.00000000000E+00 0. -1.
</event>
<event>
 7    1  0.5748623E-013  0.5052887E+02  0.7816164E-02  0.1300439E+00
        -11   -1    0    0    0    0  0.00000000000E+00  0.00000000000E+00  0.45593999997E+02  0.45594000000E+02  0.51100000000E-03 0. -1.
         11   -1    0    0    0    0 -0.00000000000E+00 -0.00000000000E+00 -0.45593999997E+02  0.45594000000E+02  0.51100000000E-03 0.  1.
    9900012    2    1    2    0    0  0.21805925111E+02  0.31310417822E+02  0.14047214349E+02  0.50528869844E+02  0.30000030377E+02 0.  0.
         12    1    1    2    0    0 -0.21805925111E+02 -0.31310417822E+02 -0.14047214349E+02  0.40659130156E+02  0.00000000000E+00 0. -1.
         11    1    3    3    0    0  0.92478820527E+01 -0.17645812407E+01  0.20304904189E+01  0.96311972786E+01  0.51100000000E-03 0. -1.
        -11    1    3    3    0    0  0.15958143129E+02  0.25672956199E+02  0.61202505785E+01  0.30841862452E+02  0.51100000000E-03 0.  1.
         12    1    3    3    0    0 -0.34001000704E+01  0.74020428638E+01  0.58964733519E+01  0.10055810113E+02  0.00000000000E+00 0. -1.
</event>
<event>
 7    1  0.5748623E-013  0.5052886E+02  0.7816164E-02  0.1300439E+00
        -11   -1    0    0    0    0  0.00000000000E+00  0.00000000000E+00  0.45593999997E+02  0.45594000000E+02  0.51100000000E-03 0. -1.
         11   -1    0    0    0    0 -0.00000000000E+00 -0.00000000000E+00 -0.45593999997E+02  0.45594000000E+02  0.51100000000E-03 0.  1.
    9900012    2    1    2    0    0 -0.26339991301E+01  0.32180406339E+02 -0.24711310586E+02  0.50528863580E+02  0.30000011338E+02 0.  0.
         12    1    1    2    0    0  0.26339991301E+01 -0.32180406339E+02  0.24711310586E+02  0.40659136420E+02  0.00000000000E+00 0. -1.
         11    1    3    3    0    0 -0.11542004341E+02  0.45925218625E+01 -0.44894506397E+01  0.13208493047E+02  0.51100000000E-03 0. -1.
        -11    1    3    3    0    0  0.33026695354E+01  0.82414694235E+01 -0.14287439451E+00  0.88797442346E+01  0.51100000000E-03 0.  1.
         12    1    3    3    0    0  0.56053356760E+01  0.19346415053E+02 -0.20078985552E+02  0.28440626298E+02  0.00000000000E+00 0. -1.
</event>
<event>
 7    1  0.5748623E-013  0.5052882E+02  0.7816164E-02  0.1300439E+00
        -11   -1    0    0    0    0  0.00000000000E+00  0.00000000000E+00  0.45593999997E+02  0.45594000000E+02  0.51100000000E-03 0.  1.
         11   -1    0    0    0    0 -0.00000000000E+00 -0.00000000000E+00 -0.45593999997E+02  0.45594000000E+02  0.51100000000E-03 0. -1.
    9900012    2    1    2    0    0 -0.26757005451E+02  0.15690006143E+02  0.26287935967E+02  0.50528816401E+02  0.29999867933E+02 0.  0.
         12    1    1    2    0    0  0.26757005451E+02 -0.15690006143E+02 -0.26287935967E+02  0.40659183599E+02  0.00000000000E+00 0. -1.
         11    1    3    3    0    0  0.47242376877E+01  0.29924408346E+01  0.24705070196E+01  0.61136346860E+01  0.51100000000E-03 0. -1.
        -11    1    3    3    0    0 -0.27243055283E+02  0.60664891691E+01  0.23586713486E+02  0.36542022458E+02  0.51100000000E-03 0.  1.
        -12    1    3    3    0    0 -0.42381878562E+01  0.66310761393E+01  0.23071546199E+00  0.78731592575E+01  0.00000000000E+00 0.  1.
</event>
<event>
 7    1  0.5748623E-013  0.5052885E+02  0.7816164E-02  0.1300439E+00
        -11   -1    0    0    0    0  0.00000000000E+00  0.00000000000E+00  0.45593999997E+02  0.45594000000E+02  0.51100000000E-03 0.  1.
         11   -1    0    0    0    0 -0.00000000000E+00 -0.00000000000E+00 -0.45593999997E+02  0.45594000000E+02  0.51100000000E-03 0. -1.
    9900012    2    1    2    0    0 -0.24261862571E+02 -0.24534699710E+02  0.21507611896E+02  0.50528845622E+02  0.29999956753E+02 0.  0.
         12    1    1    2    0    0  0.24261862571E+02  0.24534699710E+02 -0.21507611896E+02  0.40659154378E+02  0.00000000000E+00 0. -1.
         11    1    3    3    0    0 -0.10561185496E+02  0.28495955707E+00  0.12744971406E+02  0.16554580558E+02  0.51100000000E-03 0. -1.
        -11    1    3    3    0    0 -0.97001169514E+01 -0.25246967673E+02  0.11196313168E+02  0.29272155274E+02  0.51100000000E-03 0.  1.
         12    1    3    3    0    0 -0.40005601233E+01  0.42730840657E+00 -0.24336726785E+01  0.47021097904E+01  0.00000000000E+00 0. -1.
</event>
<event>
 7    1  0.5748623E-013  0.5052886E+02  0.7816164E-02  0.1300439E+00
        -11   -1    0    0    0    0  0.00000000000E+00  0.00000000000E+00  0.45593999997E+02  0.45594000000E+02  0.51100000000E-03 0.  1.
         11   -1    0    0    0    0 -0.00000000000E+00 -0.00000000000E+00 -0.45593999997E+02  0.45594000000E+02  0.51100000000E-03 0. -1.
    9900012    2    1    2    0    0  0.15456905613E+00 -0.39479046617E+02  0.97235088887E+01  0.50528860333E+02  0.30000001468E+02 0.  0.
         12    1    1    2    0    0 -0.15456905613E+00  0.39479046617E+02 -0.97235088887E+01  0.40659139667E+02  0.00000000000E+00 0. -1.
         11    1    3    3    0    0  0.17968723178E+01 -0.85680332424E+00 -0.86591685467E+00  0.21708694855E+01  0.51100000000E-03 0. -1.
        -11    1    3    3    0    0 -0.17210304806E+01 -0.36514675104E+02 -0.10092363384E+01  0.36569140024E+02  0.51100000000E-03 0.  1.
        -12    1    3    3    0    0  0.78727218933E-01 -0.21075681884E+01  0.11598662082E+02  0.11788850823E+02  0.00000000000E+00 0.  1.
</event>
<event>
 7    1  0.5748623E-013  0.5052886E+02  0.7816164E-02  0.1300439E+00
        -11   -1    0    0    0    0  0.00000000000E+00  0.00000000000E+00  0.45593999997E+02  0.45594000000E+02  0.51100000000E-03 0. -1.
         11   -1    0    0    0    0 -0.00000000000E+00 -0.00000000000E+00 -0.45593999997E+02  0.45594000000E+02  0.51100000000E-03 0.  1.
    9900012    2    1    2    0    0 -0.26759777032E+02  0.33611112447E+01 -0.30426680154E+02  0.50528860796E+02  0.30000002876E+02 0.  0.
         12    1    1    2    0    0  0.26759777032E+02 -0.33611112447E+01  0.30426680154E+02  0.40659139204E+02  0.00000000000E+00 0. -1.
         11    1    3    3    0    0 -0.13486202768E+02  0.25150316350E+01  0.93921683546E-01  0.13719033157E+02  0.51100000000E-03 0. -1.
        -11    1    3    3    0    0 -0.70837626042E+01  0.51216738490E+01 -0.27230056818E+02  0.28598727773E+02  0.51100000000E-03 0.  1.
        -12    1    3    3    0    0 -0.61898116600E+01 -0.42755942393E+01 -0.32905450194E+01  0.82110998660E+01  0.00000000000E+00 0.  1.
</event>
<event>
 7    1  0.5748623E-013  0.5052887E+02  0.7816164E-02  0.1300439E+00
        -11   -1    0    0    0    0  0.00000000000E+00  0.00000000000E+00  0.45593999997E+02  0.45594000000E+02  0.51100000000E-03 0.  1.
         11   -1    0    0    0    0 -0.00000000000E+00 -0.00000000000E+00 -0.45593999997E+02  0.45594000000E+02  0.51100000000E-03 0. -1.
    9900012    2    1    2    0    0 -0.15374802261E+02  0.21781089945E+02  0.30697950034E+02  0.50528873595E+02  0.30000041778E+02 0.  0.
         12    1    1    2    0    0  0.15374802261E+02 -0.21781089945E+02 -0.30697950034E+02  0.40659126405E+02  0.00000000000E+00 0. -1.
         11    1    3    3    0    0  0.44393465528E+00  0.65307728721E+01  0.25124529185E+02  0.25963244006E+02  0.51100000000E-03 0. -1.
        -11    1    3    3    0    0 -0.11133771317E+02  0.41600483381E+01  0.27147572557E+01  0.12191668185E+02  0.51100000000E-03 0.  1.
         12    1    3    3    0    0 -0.46849655999E+01  0.11090268735E+02  0.28586635929E+01  0.12373961404E+02  0.00000000000E+00 0. -1.
</event>
<event>
 7    1  0.5748623E-013  0.5052886E+02  0.7816164E-02  0.1300439E+00
        -11   -1    0    0    0    0  0.00000000000E+00  0.00000000000E+00  0.45593999997E+02  0.45594000000E+02  0.51100000000E-03 0.  1.
         11   -1    0    0    0    0 -0.00000000000E+00 -0.00000000000E+00 -0.45593999997E+02  0.45594000000E+02  0.51100000000E-03 0. -1.
    9900012    2    1    2    0    0  0.67773262564E+01 -0.67407966189E+01  0.39519550422E+02  0.50528863809E+02  0.30000012033E+02 0.  0.
         12    1    1    2    0    0 -0.67773262564E+01  0.67407966189E+01 -0.39519550422E+02  0.40659136191E+02  0.00000000000E+00 0. -1.
         11    1    3    3    0    0  0.28618718185E+01  0.16046113907E+01 -0.13077081213E+01  0.35320233312E+01  0.51100000000E-03 0. -1.
        -11    1    3    3    0    0 -0.15247639790E+01 -0.13784573067E+02  0.33967760097E+02  0.36689890789E+02  0.51100000000E-03 0.  1.
        -12    1    3    3    0    0  0.54402184169E+01  0.54391650574E+01  0.68594984470E+01  0.10306949689E+02  0.00000000000E+00 0.  1.
</event>
<event>
 7    1  0.5748623E-013  0.5052887E+02  0.7816164E-02  0.1300439E+00
        -11   -1    0    0    0    0  0.00000000000E+00  0.00000000000E+00  0.45593999997E+02  0.45594000000E+02  0.51100000000E-03 0. -1.
         11   -1    0    0    0    0 -0.00000000000E+00 -0.00000000000E+00 -0.45593999997E+02  0.45594000000E+02  0.51100000000E-03 0.  1.
    9900012    2    1    2    0    0  0.34864435081E+02 -0.10573849721E+01 -0.20893020893E+02  0.50528865497E+02  0.30000017165E+02 0.  0.
         12    1    1    2    0    0 -0.34864435081E+02  0.10573849721E+01  0.20893020893E+02  0.40659134503E+02  0.00000000000E+00 0. -1.
         11    1    3    3    0    0  0.66769859108E+01  0.29388141911E+01  0.51241425248E+01  0.89149092299E+01  0.51100000000E-03 0. -1.
        -11    1    3    3    0    0  0.20334525413E+02 -0.16202599600E+01 -0.26444860600E+02  0.33398335565E+02  0.51100000000E-03 0.  1.
        -12    1    3    3    0    0  0.78529237577E+01 -0.23759392032E+01  0.42769718262E+00  0.82156207021E+01  0.00000000000E+00 0.  1.
</event>
<event>
 7    1  0.5748623E-013  0.5052889E+02  0.7816164E-02  0.1300439E+00
        -11   -1    0    0    0    0  0.00000000000E+00  0.00000000000E+00  0.45593999997E+02  0.45594000000E+02  0.51100000000E-03 0.  1.
         11   -1    0    0    0    0 -0.00000000000E+00 -0.00000000000E+00 -0.45593999997E+02  0.45594000000E+02  0.51100000000E-03 0. -1.
    9900012    2    1    2    0    0  0.20558823302E+02  0.30889337467E+02 -0.16623676026E+02  0.50528892910E+02  0.30000100489E+02 0.  0.
         12    1    1    2    0    0 -0.20558823302E+02 -0.30889337467E+02  0.16623676026E+02  0.40659107090E+02  0.00000000000E+00 0. -1.
         11    1    3    3    0    0 -0.25801886303E+01  0.44500325119E+01 -0.60061546002E+01  0.79078477519E+01  0.51100000000E-03 0. -1.
        -11    1    3    3    0    0  0.26374794023E+02  0.24266342858E+02 -0.56111564513E+01  0.36276304007E+02  0.51100000000E-03 0.  1.
        -12    1    3    3    0    0 -0.32357820904E+01  0.21729620972E+01 -0.50063649745E+01  0.63447411507E+01  0.00000000000E+00 0.  1.
</event>
<event>
 7    1  0.5748623E-013  0.5052886E+02  0.7816164E-02  0.1300439E+00
        -11   -1    0    0    0    0  0.00000000000E+00  0.00000000000E+00  0.45593999997E+02  0.45594000000E+02  0.51100000000E-03 0.  1.
         11   -1    0    0    0    0 -0.00000000000E+00 -0.00000000000E+00 -0.45593999997E+02  0.45594000000E+02  0.51100000000E-03 0. -1.
    9900012    2    1    2    0    0  0.36613603035E+02 -0.98690940323E+01  0.14670051155E+02  0.50528863940E+02  0.30000012433E+02 0.  0.
         12    1    1    2    0    0 -0.36613603035E+02  0.98690940323E+01 -0.14670051155E+02  0.40659136060E+02  0.00000000000E+00 0. -1.
         11    1    3    3    0    0  0.19647298118E+02  0.99526637669E+01  0.69435411528E+01  0.23092955709E+02  0.51100000000E-03 0. -1.
        -11    1    3    3    0    0  0.11424315611E+02 -0.10954313818E+02  0.39003358294E+01  0.16301061262E+02  0.51100000000E-03 0.  1.
         12    1    3    3    0    0  0.55419893058E+01 -0.88674439811E+01  0.38261741729E+01  0.11134846969E+02  0.00000000000E+00 0. -1.
</event>
<event>
 7    1  0.5748623E-013  0.5052883E+02  0.7816164E-02  0.1300439E+00
        -11   -1    0    0    0    0  0.00000000000E+00  0.00000000000E+00  0.45593999997E+02  0.45594000000E+02  0.51100000000E-03 0.  1.
         11   -1    0    0    0    0 -0.00000000000E+00 -0.00000000000E+00 -0.45593999997E+02  0.45594000000E+02  0.51100000000E-03 0. -1.
    9900012    2    1    2    0    0 -0.59483532835E+01 -0.15960223491E+02  0.36919596187E+02  0.50528828547E+02  0.29999904851E+02 0.  0.
         12    1    1    2    0    0  0.59483532835E+01  0.15960223491E+02 -0.36919596187E+02  0.40659171453E+02  0.00000000000E+00 0. -1.
         11    1    3    3    0    0  0.51723579695E+01  0.48313278850E+01  0.36726855112E+01  0.79739347390E+01  0.51100000000E-03 0. -1.
        -11    1    3    3    0    0 -0.43617196625E+01 -0.13116971277E+02  0.27611492792E+02  0.30878375416E+02  0.51100000000E-03 0.  1.
        -12    1    3    3    0    0 -0.67589915905E+01 -0.76745800996E+01  0.56354178837E+01  0.11676518392E+02  0.00000000000E+00 0.  1.
</event>
<event>
 7    1  0.5748623E-013  0.5052887E+02  0.7816164E-02  0.1300439E+00
        -11   -1    0    0    0    0  0.00000000000E+00  0.00000000000E+00  0.45593999997E+02  0.45594000000E+02  0.51100000000E-03 0.  1.
         11   -1    0    0    0    0 -0.00000000000E+00 -0.00000000000E+00 -0.45593999997E+02  0.45594000000E+02  0.51100000000E-03 0. -1.
    9900012    2    1    2    0    0 -0.10524620683E+02  0.15064575956E+02  0.36269210531E+02  0.50528871606E+02  0.30000035732E+02 0.  0.
         12    1    1    2    0    0  0.10524620683E+02 -0.15064575956E+02 -0.36269210531E+02  0.40659128394E+02  0.00000000000E+00 0. -1.
         11    1    3    3    0    0 -0.85591637609E+01  0.13384290587E+02  0.19851205086E+02  0.25425751954E+02  0.51100000000E-03 0. -1.
        -11    1    3    3    0    0  0.28136662760E+01  0.29057941198E+01 -0.30205729137E+01  0.50481896129E+01  0.51100000000E-03 0.  1.
        -12    1    3    3    0    0 -0.47791231979E+01 -0.12255087509E+01  0.19438578359E+02  0.20054930039E+02  0.00000000000E+00 0.  1.
</event>
<event>
 7    1  0.5748623E-013  0.5052886E+02  0.7816164E-02  0.1300439E+00
        -11   -1    0    0    0    0  0.00000000000E+00  0.00000000000E+00  0.45593999997E+02  0.45594000000E+02  0.51100000000E-03 0.  1.
         11   -1    0    0    0    0 -0.00000000000E+00 -0.00000000000E+00 -0.45593999997E+02  0.45594000000E+02  0.51100000000E-03 0. -1.
    9900012    2    1    2    0    0 -0.16188125984E+02 -0.49597450458E+01  0.36966355755E+02  0.50528856482E+02  0.29999989764E+02 0.  0.
         12    1    1    2    0    0  0.16188125984E+02  0.49597450458E+01 -0.36966355755E+02  0.40659143518E+02  0.00000000000E+00 0. -1.
         11    1    3    3    0    0 -0.15626914340E+01  0.23243150147E+01  0.12754810568E+02  0.13058699693E+02  0.51100000000E-03 0. -1.
        -11    1    3    3    0    0  0.17653904891E+01 -0.11440792804E+02  0.11481038335E+02  0.16304066520E+02  0.51100000000E-03 0.  1.
        -12    1    3    3    0    0 -0.16390825040E+02  0.41567327436E+01  0.12730506852E+02  0.21166090269E+02  0.00000000000E+00 0.  1.
</event>
<event>
 7    1  0.5748623E-013  0.5052887E+02  0.7816164E-02  0.1300439E+00
        -11   -1    0    0    0    0  0.00000000000E+00  0.00000000000E+00  0.45593999997E+02  0.45594000000E+02  0.51100000000E-03 0.  1.
         11   -1    0    0    0    0 -0.00000000000E+00 -0.00000000000E+00 -0.45593999997E+02  0.45594000000E+02  0.51100000000E-03 0. -1.
    9900012    2    1    2    0    0  0.12234174776E+02  0.21396579596E+01  0.38715780157E+02  0.50528870622E+02  0.30000032744E+02 0.  0.
         12    1    1    2    0    0 -0.12234174776E+02 -0.21396579596E+01 -0.38715780157E+02  0.40659129378E+02  0.00000000000E+00 0. -1.
         11    1    3    3    0    0  0.35712242074E+01 -0.44814961521E+01 -0.30651541970E+01  0.64986629866E+01  0.51100000000E-03 0. -1.
        -11    1    3    3    0    0 -0.17431488059E+01  0.11369875121E+01  0.77078710474E+01  0.79838953342E+01  0.51100000000E-03 0.  1.
         12    1    3    3    0    0  0.10406099374E+02  0.54841665996E+01  0.34073063306E+02  0.36046312302E+02  0.00000000000E+00 0. -1.
</event>
<event>
 7    1  0.5748623E-013  0.5052888E+02  0.7816164E-02  0.1300439E+00
        -11   -1    0    0    0    0  0.00000000000E+00  0.00000000000E+00  0.45593999997E+02  0.45594000000E+02  0.51100000000E-03 0. -1.
         11   -1    0    0    0    0 -0.00000000000E+00 -0.00000000000E+00 -0.45593999997E+02  0.45594000000E+02  0.51100000000E-03 0.  1.
    9900012    2    1    2    0    0 -0.38960550635E+01  0.39624431368E+02  0.82395102380E+01  0.50528876359E+02  0.30000050179E+02 0.  0.
         12    1    1    2    0    0  0.38960550635E+01 -0.39624431368E+02 -0.82395102380E+01  0.40659123641E+02  0.00000000000E+00 0. -1.
         11    1    3    3    0    0  0.76692144440E+01  0.57780890895E+01  0.83274054382E+00  0.96382893082E+01  0.51100000000E-03 0. -1.
        -11    1    3    3    0    0 -0.36140103997E+01  0.31798083511E+02  0.59794846147E+01  0.32556618723E+02  0.51100000000E-03 0.  1.
        -12    1    3    3    0    0 -0.79512591079E+01  0.20482587675E+01  0.14272850794E+01  0.83339683271E+01  0.00000000000E+00 0.  1.
</event>
<event>
 7    1  0.5748623E-013  0.5052886E+02  0.7816164E-02  0.1300439E+00
        -11   -1    0    0    0    0  0.00000000000E+00  0.00000000000E+00  0.45593999997E+02  0.45594000000E+02  0.51100000000E-03 0.  1.
         11   -1    0    0    0    0 -0.00000000000E+00 -0.00000000000E+00 -0.45593999997E+02  0.45594000000E+02  0.51100000000E-03 0. -1.
    9900012    2    1    2    0    0 -0.20308385732E+02 -0.13584056054E+01  0.35197866869E+02  0.50528860450E+02  0.30000001823E+02 0.  0.
         12    1    1    2    0    0  0.20308385732E+02  0.13584056054E+01 -0.35197866869E+02  0.40659139550E+02  0.00000000000E+00 0. -1.
         11    1    3    3    0    0 -0.21787330929E+01 -0.47589849201E+01 -0.28275768689E+01  0.59489500393E+01  0.51100000000E-03 0. -1.
        -11    1    3    3    0    0 -0.17253584479E+02 -0.61429274999E+00  0.21619067078E+02  0.27666723596E+02  0.51100000000E-03 0.  1.
         12    1    3    3    0    0 -0.87606816052E+00  0.40148720647E+01  0.16406376660E+02  0.16913186815E+02  0.00000000000E+00 0. -1.
</event>
<event>
 7    1  0.5748623E-013  0.5052887E+02  0.7816164E-02  0.1300439E+00
        -11   -1    0    0    0    0  0.00000000000E+00  0.00000000000E+00  0.45593999997E+02  0.45594000000E+02  0.51100000000E-03 0. -1.
         11   -1    0    0    0    0 -0.00000000000E+00 -0.00000000000E+00 -0.45593999997E+02  0.45594000000E+02  0.51100000000E-03 0.  1.
    9900012    2    1    2    0    0 -0.33514984962E+01  0.27228716495E+02 -0.30008825964E+02  0.50528865973E+02  0.30000018611E+02 0.  0.
         12    1    1    2    0    0  0.33514984962E+01 -0.27228716495E+02  0.30008825964E+02  0.40659134027E+02  0.00000000000E+00 0. -1.
         11    1    3    3    0    0 -0.86380800547E+00 -0.26843419718E+01  0.31546109701E+01  0.42312441108E+01  0.51100000000E-03 0. -1.
        -11    1    3    3    0    0 -0.20847115630E+01  0.10041968136E+02 -0.19947232853E+02  0.22429428104E+02  0.51100000000E-03 0.  1.
         12    1    3    3    0    0 -0.40297892777E+00  0.19871090331E+02 -0.13216204081E+02  0.23868193758E+02  0.00000000000E+00 0. -1.
</event>
<event>
 7    1  0.5748623E-013  0.5052885E+02  0.7816164E-02  0.1300439E+00
        -11   -1    0    0    0    0  0.00000000000E+00  0.00000000000E+00  0.45593999997E+02  0.45594000000E+02  0.51100000000E-03 0.  1.
         11   -1    0    0    0    0 -0.00000000000E+00 -0.00000000000E+00 -0.45593999997E+02  0.45594000000E+02  0.51100000000E-03 0. -1.
    9900012    2    1    2    0    0  0.15967518803E+02  0.29435038338E+02  0.23060421240E+02  0.50528853840E+02  0.29999981733E+02 0.  0.
         12    1    1    2    0    0 -0.15967518803E+02 -0.29435038338E+02 -0.23060421240E+02  0.40659146160E+02  0.00000000000E+00 0. -1.
         11    1    3    3    0    0  0.18581112062E+02  0.10865884146E+02  0.10087785944E+02  0.23771592064E+02  0.51100000000E-03 0. -1.
        -11    1    3    3    0    0 -0.50520130254E+01  0.50320122200E+01  0.10636278087E+02  0.12805248705E+02  0.51100000000E-03 0.  1.
        -12    1    3    3    0    0  0.24384197661E+01  0.13537141973E+02  0.23363572086E+01  0.13952013072E+02  0.00000000000E+00 0.  1.
</event>
<event>
 7    1  0.5748623E-013  0.5052885E+02  0.7816164E-02  0.1300439E+00
        -11   -1    0    0    0    0  0.00000000000E+00  0.00000000000E+00  0.45593999997E+02  0.45594000000E+02  0.51100000000E-03 0.  1.
         11   -1    0    0    0    0 -0.00000000000E+00 -0.00000000000E+00 -0.45593999997E+02  0.45594000000E+02  0.51100000000E-03 0. -1.
    9900012    2    1    2    0    0 -0.17849563379E+02 -0.52968857891E+01  0.36145576127E+02  0.50528848687E+02  0.29999966070E+02 0.  0.
         12    1    1    2    0    0  0.17849563379E+02  0.52968857891E+01 -0.36145576127E+02  0.40659151313E+02  0.00000000000E+00 0. -1.
         11    1    3    3    0    0 -0.21831050830E+01  0.87600807466E+01  0.50658744731E+01  0.10352200101E+02  0.51100000000E-03 0. -1.
        -11    1    3    3    0    0 -0.41023580661E+01 -0.72682701398E+01  0.23125529114E+02  0.24585507714E+02  0.51100000000E-03 0.  1.
         12    1    3    3    0    0 -0.11564100230E+02 -0.67886963959E+01  0.79541725404E+01  0.15591140872E+02  0.00000000000E+00 0. -1.
</event>
<event>
 7    1  0.5748623E-013  0.5052887E+02  0.7816164E-02  0.1300439E+00
        -11   -1    0    0    0    0  0.00000000000E+00  0.00000000000E+00  0.45593999997E+02  0.45594000000E+02  0.51100000000E-03 0.  1.
         11   -1    0    0    0    0 -0.00000000000E+00 -0.00000000000E+00 -0.45593999997E+02  0.45594000000E+02  0.51100000000E-03 0. -1.
    9900012    2    1    2    0    0 -0.83924477656E+01 -0.30128047467E+02  0.25981386064E+02  0.50528870084E+02  0.30000031109E+02 0.  0.
         12    1    1    2    0    0  0.83924477656E+01  0.30128047467E+02 -0.25981386064E+02  0.40659129916E+02  0.00000000000E+00 0. -1.
         11    1    3    3    0    0 -0.50389162241E+01 -0.76260342317E+01 -0.30257181259E+01  0.96281901339E+01  0.51100000000E-03 0. -1.
        -11    1    3    3    0    0 -0.80654010272E+01 -0.22671232593E+02  0.23264370141E+02  0.33470380926E+02  0.51100000000E-03 0.  1.
        -12    1    3    3    0    0  0.47118694857E+01  0.16921935707E+00  0.57427340491E+01  0.74302990249E+01  0.00000000000E+00 0.  1.
</event>
<event>
 7    1  0.5748623E-013  0.5052886E+02  0.7816164E-02  0.1300439E+00
        -11   -1    0    0    0    0  0.00000000000E+00  0.00000000000E+00  0.45593999997E+02  0.45594000000E+02  0.51100000000E-03 0.  1.
         11   -1    0    0    0    0 -0.00000000000E+00 -0.00000000000E+00 -0.45593999997E+02  0.45594000000E+02  0.51100000000E-03 0. -1.
    9900012    2    1    2    0    0 -0.29379977261E+02  0.60772555866E+01  0.27441749338E+02  0.50528859502E+02  0.29999998943E+02 0.  0.
         12    1    1    2    0    0  0.29379977261E+02 -0.60772555866E+01 -0.27441749338E+02  0.40659140498E+02  0.00000000000E+00 0. -1.
         11    1    3    3    0    0 -0.19215443620E+02 -0.96993706628E+01  0.69140154611E+01  0.22607845426E+02  0.51100000000E-03 0. -1.
        -11    1    3    3    0    0 -0.41287949863E+01  0.56683368768E+01  0.60594804625E+01  0.92679174966E+01  0.51100000000E-03 0.  1.
         12    1    3    3    0    0 -0.60357386543E+01  0.10108289373E+02  0.14468253414E+02  0.18653096579E+02  0.00000000000E+00 0. -1.
</event>
<event>
 7    1  0.5748623E-013  0.5052887E+02  0.7816164E-02  0.1300439E+00
        -11   -1    0    0    0    0  0.00000000000E+00  0.00000000000E+00  0.45593999997E+02  0.45594000000E+02  0.51100000000E-03 0. -1.
         11   -1    0    0    0    0 -0.00000000000E+00 -0.00000000000E+00 -0.45593999997E+02  0.45594000000E+02  0.51100000000E-03 0.  1.
    9900012    2    1    2    0    0  0.37603530860E+01  0.18161809000E+02 -0.36182499990E+02  0.50528869820E+02  0.30000030305E+02 0.  0.
         12    1    1    2    0    0 -0.37603530860E+01 -0.18161809000E+02  0.36182499990E+02  0.40659130180E+02  0.00000000000E+00 0. -1.
         11    1    3    3    0    0 -0.16877752315E+01  0.18866353327E+01  0.39655347745E+01  0.47046194766E+01  0.51100000000E-03 0. -1.
        -11    1    3    3    0    0  0.61283389694E+01  0.81650664443E+01 -0.34340912262E+02  0.35826290679E+02  0.51100000000E-03 0.  1.
         12    1    3    3    0    0 -0.68021065191E+00  0.81101072228E+01 -0.58071225018E+01  0.99979596642E+01  0.00000000000E+00 0. -1.
</event>
<event>
 7    1  0.5748623E-013  0.5052886E+02  0.7816164E-02  0.1300439E+00
        -11   -1    0    0    0    0  0.00000000000E+00  0.00000000000E+00  0.45593999997E+02  0.45594000000E+02  0.51100000000E-03 0.  1.
         11   -1    0    0    0    0 -0.00000000000E+00 -0.00000000000E+00 -0.45593999997E+02  0.45594000000E+02  0.51100000000E-03 0. -1.
    9900012    2    1    2    0    0  0.10057030367E+01 -0.41227043418E+01  0.40437085298E+02  0.50528855922E+02  0.29999988062E+02 0.  0.
         12    1    1    2    0    0 -0.10057030367E+01  0.41227043418E+01 -0.40437085298E+02  0.40659144078E+02  0.00000000000E+00 0. -1.
         11    1    3    3    0    0  0.12505536665E+02 -0.44709738421E+01  0.14113627454E+02  0.19379693871E+02  0.51100000000E-03 0. -1.
        -11    1    3    3    0    0 -0.13554387785E+02 -0.13916934419E+01  0.19281291034E+02  0.23609879777E+02  0.51100000000E-03 0.  1.
         12    1    3    3    0    0  0.20545541570E+01  0.17399629422E+01  0.70421668106E+01  0.75392822744E+01  0.00000000000E+00 0. -1.
</event>
<event>
 7    1  0.5748623E-013  0.5052890E+02  0.7816164E-02  0.1300439E+00
        -11   -1    0    0    0    0  0.00000000000E+00  0.00000000000E+00  0.45593999997E+02  0.45594000000E+02  0.51100000000E-03 0.  1.
         11   -1    0    0    0    0 -0.00000000000E+00 -0.00000000000E+00 -0.45593999997E+02  0.45594000000E+02  0.51100000000E-03 0. -1.
    9900012    2    1    2    0    0 -0.30672222824E+02  0.16988290325E+02  0.20585804614E+02  0.50528897541E+02  0.30000114565E+02 0.  0.
         12    1    1    2    0    0  0.30672222824E+02 -0.16988290325E+02 -0.20585804614E+02  0.40659102459E+02  0.00000000000E+00 0. -1.
         11    1    3    3    0    0  0.30538746074E+01 -0.44035633247E+01  0.43361292568E+01  0.68934416125E+01  0.51100000000E-03 0. -1.
        -11    1    3    3    0    0 -0.25421235622E+02  0.14413591613E+02  0.89588691475E+01  0.30565539099E+02  0.51100000000E-03 0.  1.
        -12    1    3    3    0    0 -0.83048618099E+01  0.69782620374E+01  0.72908062100E+01  0.13069916830E+02  0.00000000000E+00 0.  1.
</event>
<event>
 7    1  0.5748623E-013  0.5052887E+02  0.7816164E-02  0.1300439E+00
        -11   -1    0    0    0    0  0.00000000000E+00  0.00000000000E+00  0.45593999997E+02  0.45594000000E+02  0.51100000000E-03 0. -1.
         11   -1    0    0    0    0 -0.00000000000E+00 -0.00000000000E+00 -0.45593999997E+02  0.45594000000E+02  0.51100000000E-03 0.  1.
    9900012    2    1    2    0    0 -0.38933622643E+02  0.11586404834E+02 -0.17588167542E+01  0.50528865904E+02  0.30000018401E+02 0.  0.
         12    1    1    2    0    0  0.38933622643E+02 -0.11586404834E+02  0.17588167542E+01  0.40659134096E+02  0.00000000000E+00 0. -1.
         11    1    3    3    0    0 -0.12317326690E+02 -0.69869518545E+01  0.58434864367E+01  0.15319280890E+02  0.51100000000E-03 0.  1.
        -11    1    3    3    0    0 -0.29835498802E+01  0.71336792101E+01  0.45316226005E+00  0.77457281940E+01  0.51100000000E-03 0. -1.
         12    1    3    3    0    0 -0.23632746073E+02  0.11439677478E+02 -0.80554654509E+01  0.27463856819E+02  0.00000000000E+00 0. -1.
</event>
<event>
 7    1  0.5748623E-013  0.5052886E+02  0.7816164E-02  0.1300439E+00
        -11   -1    0    0    0    0  0.00000000000E+00  0.00000000000E+00  0.45593999997E+02  0.45594000000E+02  0.51100000000E-03 0. -1.
         11   -1    0    0    0    0 -0.00000000000E+00 -0.00000000000E+00 -0.45593999997E+02  0.45594000000E+02  0.51100000000E-03 0.  1.
    9900012    2    1    2    0    0  0.39287143442E+02  0.53893000276E+01 -0.89800510201E+01  0.50528861901E+02  0.30000006233E+02 0.  0.
         12    1    1    2    0    0 -0.39287143442E+02 -0.53893000276E+01  0.89800510201E+01  0.40659138099E+02  0.00000000000E+00 0. -1.
         11    1    3    3    0    0  0.59582314600E+01 -0.54652560793E+01 -0.10294525077E+02  0.13089950075E+02  0.51100000000E-03 0. -1.
        -11    1    3    3    0    0  0.59783532037E+01  0.76732681385E+01 -0.11445552012E+01  0.97943737841E+01  0.51100000000E-03 0.  1.
         12    1    3    3    0    0  0.27350558779E+02  0.31812879685E+01  0.24590292579E+01  0.27644538042E+02  0.00000000000E+00 0. -1.
</event>
<event>
 7    1  0.5748623E-013  0.5052886E+02  0.7816164E-02  0.1300439E+00
        -11   -1    0    0    0    0  0.00000000000E+00  0.00000000000E+00  0.45593999997E+02  0.45594000000E+02  0.51100000000E-03 0. -1.
         11   -1    0    0    0    0 -0.00000000000E+00 -0.00000000000E+00 -0.45593999997E+02  0.45594000000E+02  0.51100000000E-03 0.  1.
    9900012    2    1    2    0    0 -0.13591182420E+02 -0.32823007707E+02 -0.19776138042E+02  0.50528859449E+02  0.29999998781E+02 0.  0.
         12    1    1    2    0    0  0.13591182420E+02  0.32823007707E+02  0.19776138042E+02  0.40659140551E+02  0.00000000000E+00 0. -1.
         11    1    3    3    0    0 -0.21138172439E+02 -0.18576811140E+02 -0.49802324407E+01  0.28578365272E+02  0.51100000000E-03 0. -1.
        -11    1    3    3    0    0  0.64889771151E+01 -0.13242620798E+02 -0.13247094456E+02  0.19823202097E+02  0.51100000000E-03 0.  1.
         12    1    3    3    0    0  0.10580129038E+01 -0.10035757691E+01 -0.15488111448E+01  0.21272920795E+01  0.00000000000E+00 0. -1.
</event>
<event>
 7    1  0.5748623E-013  0.5052886E+02  0.7816164E-02  0.1300439E+00
        -11   -1    0    0    0    0  0.00000000000E+00  0.00000000000E+00  0.45593999997E+02  0.45594000000E+02  0.51100000000E-03 0. -1.
         11   -1    0    0    0    0 -0.00000000000E+00 -0.00000000000E+00 -0.45593999997E+02  0.45594000000E+02  0.51100000000E-03 0.  1.
    9900012    2    1    2    0    0 -0.37690661433E+02 -0.84920086500E+01  0.12667484395E+02  0.50528864113E+02  0.30000012958E+02 0.  0.
         12    1    1    2    0    0  0.37690661433E+02  0.84920086500E+01 -0.12667484395E+02  0.40659135887E+02  0.00000000000E+00 0. -1.
         11    1    3    3    0    0 -0.16555806408E+02 -0.85679744943E+01  0.17798023206E+02  0.25773524072E+02  0.51100000000E-03 0. -1.
        -11    1    3    3    0    0 -0.20420122304E+02 -0.19655384485E+01 -0.15510185104E+01  0.20573050211E+02  0.51100000000E-03 0.  1.
         12    1    3    3    0    0 -0.71473272070E+00  0.20415042928E+01 -0.35795203011E+01  0.41822898304E+01  0.00000000000E+00 0. -1.
</event>
<event>
 7    1  0.5748623E-013  0.5052886E+02  0.7816164E-02  0.1300439E+00
        -11   -1    0    0    0    0  0.00000000000E+00  0.00000000000E+00  0.45593999997E+02  0.45594000000E+02  0.51100000000E-03 0. -1.
         11   -1    0    0    0    0 -0.00000000000E+00 -0.00000000000E+00 -0.45593999997E+02  0.45594000000E+02  0.51100000000E-03 0.  1.
    9900012    2    1    2    0    0  0.37227135222E+02 -0.70054147274E+01  0.14772616360E+02  0.50528860480E+02  0.30000001915E+02 0.  0.
         12    1    1    2    0    0 -0.37227135222E+02  0.70054147274E+01 -0.14772616360E+02  0.40659139520E+02  0.00000000000E+00 0. -1.
         11    1    3    3    0    0  0.14322967226E+02  0.31448852165E+01  0.14187026391E+02  0.20403661712E+02  0.51100000000E-03 0. -1.
        -11    1    3    3    0    0  0.15425051556E+02 -0.12426001914E+02  0.59054945782E+01  0.20669122032E+02  0.51100000000E-03 0.  1.
        -12    1    3    3    0    0  0.74791164401E+01  0.22757019704E+01 -0.53199046092E+01  0.94560767358E+01  0.00000000000E+00 0.  1.
</event>
<event>
 7    1  0.5748623E-013  0.5052886E+02  0.7816164E-02  0.1300439E+00
        -11   -1    0    0    0    0  0.00000000000E+00  0.00000000000E+00  0.45593999997E+02  0.45594000000E+02  0.51100000000E-03 0. -1.
         11   -1    0    0    0    0 -0.00000000000E+00 -0.00000000000E+00 -0.45593999997E+02  0.45594000000E+02  0.51100000000E-03 0.  1.
    9900012    2    1    2    0    0  0.24845875563E+02  0.28230234607E+02 -0.15456460821E+02  0.50528857614E+02  0.29999993203E+02 0.  0.
         12    1    1    2    0    0 -0.24845875563E+02 -0.28230234607E+02  0.15456460821E+02  0.40659142386E+02  0.00000000000E+00 0. -1.
         11    1    3    3    0    0 -0.32535024495E+01  0.36099085102E+01 -0.91878736638E+01  0.10393928053E+02  0.51100000000E-03 0. -1.
        -11    1    3    3    0    0  0.76794671594E+01  0.15154507733E+02 -0.99598666629E+00  0.17018381539E+02  0.51100000000E-03 0.  1.
         12    1    3    3    0    0  0.20419910853E+02  0.94658183634E+01 -0.52726004912E+01  0.23116548023E+02  0.00000000000E+00 0. -1.
</event>
<event>
 7    1  0.5748623E-013  0.5052885E+02  0.7816164E-02  0.1300439E+00
        -11   -1    0    0    0    0  0.00000000000E+00  0.00000000000E+00  0.45593999997E+02  0.45594000000E+02  0.51100000000E-03 0.  1.
         11   -1    0    0    0    0 -0.00000000000E+00 -0.00000000000E+00 -0.45593999997E+02  0.45594000000E+02  0.51100000000E-03 0. -1.
    9900012    2    1    2    0    0  0.18174103396E+02 -0.27366617004E+02  0.23956971816E+02  0.50528852701E+02  0.29999978269E+02 0.  0.
         12    1    1    2    0    0 -0.18174103396E+02  0.27366617004E+02 -0.23956971816E+02  0.40659147299E+02  0.00000000000E+00 0. -1.
         11    1    3    3    0    0  0.17840665068E+01 -0.17959183145E+01 -0.12181401211E+01  0.28092848749E+01  0.51100000000E-03 0. -1.
        -11    1    3    3    0    0  0.16995615084E+02 -0.30703660889E+02  0.19940277106E+02  0.40363106612E+02  0.51100000000E-03 0.  1.
        -12    1    3    3    0    0 -0.60557819490E+00  0.51329621987E+01  0.52348348308E+01  0.73564612138E+01  0.00000000000E+00 0.  1.
</event>
<event>
 7    1  0.5748623E-013  0.5052879E+02  0.7816164E-02  0.1300439E+00
        -11   -1    0    0    0    0  0.00000000000E+00  0.00000000000E+00  0.45593999997E+02  0.45594000000E+02  0.51100000000E-03 0.  1.
         11   -1    0    0    0    0 -0.00000000000E+00 -0.00000000000E+00 -0.45593999997E+02  0.45594000000E+02  0.51100000000E-03 0. -1.
    9900012    2    1    2    0    0 -0.25424940487E+02  0.30503631141E+02  0.87334000133E+01  0.50528789636E+02  0.29999786578E+02 0.  0.
         12    1    1    2    0    0  0.25424940487E+02 -0.30503631141E+02 -0.87334000133E+01  0.40659210364E+02  0.00000000000E+00 0. -1.
         11    1    3    3    0    0 -0.18817643805E+02  0.92492382851E+01  0.11295914492E+01  0.20998288129E+02  0.51100000000E-03 0. -1.
        -11    1    3    3    0    0 -0.30369953052E+01  0.59268156471E+01  0.11525636461E+02  0.13311302727E+02  0.51100000000E-03 0.  1.
         12    1    3    3    0    0 -0.35703013770E+01  0.15327577209E+02 -0.39218278972E+01  0.16219198781E+02  0.00000000000E+00 0. -1.
</event>
<event>
 7    1  0.5748623E-013  0.5052886E+02  0.7816164E-02  0.1300439E+00
        -11   -1    0    0    0    0  0.00000000000E+00  0.00000000000E+00  0.45593999997E+02  0.45594000000E+02  0.51100000000E-03 0.  1.
         11   -1    0    0    0    0 -0.00000000000E+00 -0.00000000000E+00 -0.45593999997E+02  0.45594000000E+02  0.51100000000E-03 0. -1.
    9900012    2    1    2    0    0 -0.16926051404E+02 -0.31081383797E+02  0.20015551728E+02  0.50528856553E+02  0.29999989978E+02 0.  0.
         12    1    1    2    0    0  0.16926051404E+02  0.31081383797E+02 -0.20015551728E+02  0.40659143447E+02  0.00000000000E+00 0. -1.
         11    1    3    3    0    0  0.43952656193E+01 -0.83087744216E+01  0.38532482530E+01  0.10158819548E+02  0.51100000000E-03 0. -1.
        -11    1    3    3    0    0 -0.19231586430E+02 -0.61029210979E+01  0.94212303456E+01  0.22267894917E+02  0.51100000000E-03 0.  1.
        -12    1    3    3    0    0 -0.20897305934E+01 -0.16669688277E+02  0.67410731297E+01  0.18102142087E+02  0.00000000000E+00 0.  1.
</event>
<event>
 7    1  0.5748623E-013  0.5052886E+02  0.7816164E-02  0.1300439E+00
        -11   -1    0    0    0    0  0.00000000000E+00  0.00000000000E+00  0.45593999997E+02  0.45594000000E+02  0.51100000000E-03 0. -1.
         11   -1    0    0    0    0 -0.00000000000E+00 -0.00000000000E+00 -0.45593999997E+02  0.45594000000E+02  0.51100000000E-03 0.  1.
    9900012    2    1    2    0    0 -0.36134013786E+02  0.16406185335E+01 -0.18568975113E+02  0.50528863042E+02  0.30000009703E+02 0.  0.
         12    1    1    2    0    0  0.36134013786E+02 -0.16406185335E+01  0.18568975113E+02  0.40659136958E+02  0.00000000000E+00 0. -1.
         11    1    3    3    0    0 -0.28796021258E+02  0.10279913308E+02 -0.10318519432E+02  0.32270099185E+02  0.51100000000E-03 0. -1.
        -11    1    3    3    0    0 -0.23979568989E+01 -0.70212690593E+01  0.11584640144E+01  0.75093578704E+01  0.51100000000E-03 0.  1.
         12    1    3    3    0    0 -0.49400356290E+01 -0.16180257150E+01 -0.94089196954E+01  0.10749405987E+02  0.00000000000E+00 0. -1.
</event>
<event>
 7    1  0.5748623E-013  0.5052883E+02  0.7816164E-02  0.1300439E+00
        -11   -1    0    0    0    0  0.00000000000E+00  0.00000000000E+00  0.45593999997E+02  0.45594000000E+02  0.51100000000E-03 0.  1.
         11   -1    0    0    0    0 -0.00000000000E+00 -0.00000000000E+00 -0.45593999997E+02  0.45594000000E+02  0.51100000000E-03 0. -1.
    9900012    2    1    2    0    0  0.13609785495E+01  0.92581345053E+01  0.39567696956E+02  0.50528831790E+02  0.29999914709E+02 0.  0.
         12    1    1    2    0    0 -0.13609785495E+01 -0.92581345053E+01 -0.39567696956E+02  0.40659168210E+02  0.00000000000E+00 0. -1.
         11    1    3    3    0    0  0.10711930696E+01  0.33940823097E+01 -0.11508362824E+01  0.37405445764E+01  0.51100000000E-03 0. -1.
        -11    1    3    3    0    0  0.69034558991E+01 -0.42012285142E+01  0.28532955155E+02  0.29655312416E+02  0.51100000000E-03 0.  1.
        -12    1    3    3    0    0 -0.66136704191E+01  0.10065280710E+02  0.12185578084E+02  0.17132974798E+02  0.00000000000E+00 0.  1.
</event>
<event>
 7    1  0.5748623E-013  0.5052886E+02  0.7816164E-02  0.1300439E+00
        -11   -1    0    0    0    0  0.00000000000E+00  0.00000000000E+00  0.45593999997E+02  0.45594000000E+02  0.51100000000E-03 0.  1.
         11   -1    0    0    0    0 -0.00000000000E+00 -0.00000000000E+00 -0.45593999997E+02  0.45594000000E+02  0.51100000000E-03 0. -1.
    9900012    2    1    2    0    0 -0.38801558828E+02  0.58919254703E+01 -0.10624979844E+02  0.50528856503E+02  0.29999989827E+02 0.  0.
         12    1    1    2    0    0  0.38801558828E+02 -0.58919254703E+01  0.10624979844E+02  0.40659143497E+02  0.00000000000E+00 0. -1.
         11    1    3    3    0    0 -0.21791338700E+02  0.72870439025E+01 -0.47041724628E+01  0.23454054873E+02  0.51100000000E-03 0. -1.
        -11    1    3    3    0    0 -0.38360166085E+01 -0.99484726431E+01 -0.15810152911E+01  0.10778995360E+02  0.51100000000E-03 0.  1.
        -12    1    3    3    0    0 -0.13174203519E+02  0.85533542109E+01 -0.43397920900E+01  0.16295806271E+02  0.00000000000E+00 0.  1.
</event>
<event>
 7    1  0.5748623E-013  0.5052886E+02  0.7816164E-02  0.1300439E+00
        -11   -1    0    0    0    0  0.00000000000E+00  0.00000000000E+00  0.45593999997E+02  0.45594000000E+02  0.51100000000E-03 0.  1.
         11   -1    0    0    0    0 -0.00000000000E+00 -0.00000000000E+00 -0.45593999997E+02  0.45594000000E+02  0.51100000000E-03 0. -1.
    9900012    2    1    2    0    0  0.23152374177E+02 -0.16419245338E+02  0.29112563050E+02  0.50528863574E+02  0.30000011321E+02 0.  0.
         12    1    1    2    0    0 -0.23152374177E+02  0.16419245338E+02 -0.29112563050E+02  0.40659136426E+02  0.00000000000E+00 0. -1.
         11    1    3    3    0    0  0.24774004051E+00  0.54670283054E+01 -0.14313426873E+01  0.56567230593E+01  0.51100000000E-03 0. -1.
        -11    1    3    3    0    0  0.67885142587E+01 -0.10387644553E+02  0.16285072450E+02  0.20474146384E+02  0.51100000000E-03 0.  1.
         12    1    3    3    0    0  0.16116119878E+02 -0.11498629090E+02  0.14258833288E+02  0.24397994131E+02  0.00000000000E+00 0. -1.
</event>
<event>
 7    1  0.5748623E-013  0.5052885E+02  0.7816164E-02  0.1300439E+00
        -11   -1    0    0    0    0  0.00000000000E+00  0.00000000000E+00  0.45593999997E+02  0.45594000000E+02  0.51100000000E-03 0.  1.
         11   -1    0    0    0    0 -0.00000000000E+00 -0.00000000000E+00 -0.45593999997E+02  0.45594000000E+02  0.51100000000E-03 0. -1.
    9900012    2    1    2    0    0 -0.27351850182E+00 -0.23650952879E+02  0.33071503569E+02  0.50528846875E+02  0.29999960563E+02 0.  0.
         12    1    1    2    0    0  0.27351850182E+00  0.23650952879E+02 -0.33071503569E+02  0.40659153125E+02  0.00000000000E+00 0. -1.
         11    1    3    3    0    0  0.19429289872E+01 -0.20507041059E+01 -0.33024489647E+01  0.43458635281E+01  0.51100000000E-03 0. -1.
        -11    1    3    3    0    0  0.60972154393E+01 -0.16383106087E+02  0.29173678080E+02  0.34010082242E+02  0.51100000000E-03 0.  1.
         12    1    3    3    0    0 -0.83136629283E+01 -0.52171426866E+01  0.72002744543E+01  0.12172901105E+02  0.00000000000E+00 0. -1.
</event>
<event>
 7    1  0.5748623E-013  0.5052885E+02  0.7816164E-02  0.1300439E+00
        -11   -1    0    0    0    0  0.00000000000E+00  0.00000000000E+00  0.45593999997E+02  0.45594000000E+02  0.51100000000E-03 0.  1.
         11   -1    0    0    0    0 -0.00000000000E+00 -0.00000000000E+00 -0.45593999997E+02  0.45594000000E+02  0.51100000000E-03 0. -1.
    9900012    2    1    2    0    0 -0.27419502716E+02 -0.29965221278E+02  0.18501313138E+01  0.50528848493E+02  0.29999965479E+02 0.  0.
         12    1    1    2    0    0  0.27419502716E+02  0.29965221278E+02 -0.18501313138E+01  0.40659151507E+02  0.00000000000E+00 0. -1.
         11    1    3    3    0    0 -0.13480951956E+02 -0.16584258749E+02 -0.28200227335E+01  0.21557509884E+02  0.51100000000E-03 0. -1.
        -11    1    3    3    0    0 -0.38404429741E+01  0.57752074318E+01  0.12828839884E+01  0.70532130768E+01  0.51100000000E-03 0.  1.
        -12    1    3    3    0    0 -0.10098107785E+02 -0.19156169961E+02  0.33872700589E+01  0.21918125532E+02  0.00000000000E+00 0.  1.
</event>
<event>
 7    1  0.5748623E-013  0.5052888E+02  0.7816164E-02  0.1300439E+00
        -11   -1    0    0    0    0  0.00000000000E+00  0.00000000000E+00  0.45593999997E+02  0.45594000000E+02  0.51100000000E-03 0.  1.
         11   -1    0    0    0    0 -0.00000000000E+00 -0.00000000000E+00 -0.45593999997E+02  0.45594000000E+02  0.51100000000E-03 0. -1.
    9900012    2    1    2    0    0  0.17591676109E+02  0.35380904924E+02  0.95858676912E+01  0.50528876042E+02  0.30000049219E+02 0.  0.
         12    1    1    2    0    0 -0.17591676109E+02 -0.35380904924E+02 -0.95858676912E+01  0.40659123958E+02  0.00000000000E+00 0. -1.
         11    1    3    3    0    0 -0.76717107668E+01  0.57244938481E+01  0.28262955727E+00  0.95762652237E+01  0.51100000000E-03 0. -1.
        -11    1    3    3    0    0  0.20629610175E+02  0.18749497195E+02  0.81625774707E+01  0.29047411800E+02  0.51100000000E-03 0.  1.
        -12    1    3    3    0    0  0.46337767012E+01  0.10906913882E+02  0.11406606632E+01  0.11905199019E+02  0.00000000000E+00 0.  1.
</event>
<event>
 7    1  0.5748623E-013  0.5052885E+02  0.7816164E-02  0.1300439E+00
        -11   -1    0    0    0    0  0.00000000000E+00  0.00000000000E+00  0.45593999997E+02  0.45594000000E+02  0.51100000000E-03 0.  1.
         11   -1    0    0    0    0 -0.00000000000E+00 -0.00000000000E+00 -0.45593999997E+02  0.45594000000E+02  0.51100000000E-03 0. -1.
    9900012    2    1    2    0    0 -0.14159036966E+02 -0.27291092531E+02  0.26606101493E+02  0.50528847328E+02  0.29999961938E+02 0.  0.
         12    1    1    2    0    0  0.14159036966E+02  0.27291092531E+02 -0.26606101493E+02  0.40659152672E+02  0.00000000000E+00 0. -1.
         11    1    3    3    0    0 -0.25386390286E+01  0.12058275653E+01  0.89001346828E+00  0.29480217892E+01  0.51100000000E-03 0. -1.
        -11    1    3    3    0    0 -0.12653527406E+01 -0.20462183131E+02  0.27555847403E+02  0.34345695253E+02  0.51100000000E-03 0.  1.
        -12    1    3    3    0    0 -0.10355045197E+02 -0.80347369649E+01 -0.18397593774E+01  0.13235130286E+02  0.00000000000E+00 0.  1.
</event>
<event>
 7    1  0.5748623E-013  0.5052886E+02  0.7816164E-02  0.1300439E+00
        -11   -1    0    0    0    0  0.00000000000E+00  0.00000000000E+00  0.45593999997E+02  0.45594000000E+02  0.51100000000E-03 0. -1.
         11   -1    0    0    0    0 -0.00000000000E+00 -0.00000000000E+00 -0.45593999997E+02  0.45594000000E+02  0.51100000000E-03 0.  1.
    9900012    2    1    2    0    0 -0.87494655696E+01  0.16700358318E+01 -0.39671446649E+02  0.50528857772E+02  0.29999993685E+02 0.  0.
         12    1    1    2    0    0  0.87494655696E+01 -0.16700358318E+01  0.39671446649E+02  0.40659142228E+02  0.00000000000E+00 0. -1.
         11    1    3    3    0    0 -0.73251150555E+01  0.49684441021E+01 -0.11544256352E+01  0.89261103612E+01  0.51100000000E-03 0. -1.
        -11    1    3    3    0    0  0.68733069860E+01 -0.61046628424E+00 -0.14703970776E+02  0.16242591384E+02  0.51100000000E-03 0.  1.
         12    1    3    3    0    0 -0.82976575001E+01 -0.26879419861E+01 -0.23813050238E+02  0.25360156027E+02  0.00000000000E+00 0. -1.
</event>
<event>
 7    1  0.5748623E-013  0.5052886E+02  0.7816164E-02  0.1300439E+00
        -11   -1    0    0    0    0  0.00000000000E+00  0.00000000000E+00  0.45593999997E+02  0.45594000000E+02  0.51100000000E-03 0.  1.
         11   -1    0    0    0    0 -0.00000000000E+00 -0.00000000000E+00 -0.45593999997E+02  0.45594000000E+02  0.51100000000E-03 0. -1.
    9900012    2    1    2    0    0 -0.33353980775E+02  0.15475780580E+02 -0.17354471921E+02  0.50528861867E+02  0.30000006131E+02 0.  0.
         12    1    1    2    0    0  0.33353980775E+02 -0.15475780580E+02  0.17354471921E+02  0.40659138133E+02  0.00000000000E+00 0. -1.
         11    1    3    3    0    0 -0.88496704675E-01  0.11239661732E+02 -0.13907001016E+01  0.11325717397E+02  0.51100000000E-03 0. -1.
        -11    1    3    3    0    0 -0.24749502043E+02  0.24742941432E+01 -0.52793660259E+01  0.25426987411E+02  0.51100000000E-03 0.  1.
         12    1    3    3    0    0 -0.85159820268E+01  0.17618247046E+01 -0.10684405793E+02  0.13776157059E+02  0.00000000000E+00 0. -1.
</event>
<event>
 7    1  0.5748623E-013  0.5052887E+02  0.7816164E-02  0.1300439E+00
        -11   -1    0    0    0    0  0.00000000000E+00  0.00000000000E+00  0.45593999997E+02  0.45594000000E+02  0.51100000000E-03 0. -1.
         11   -1    0    0    0    0 -0.00000000000E+00 -0.00000000000E+00 -0.45593999997E+02  0.45594000000E+02  0.51100000000E-03 0.  1.
    9900012    2    1    2    0    0  0.79519112644E+01  0.34284587756E+02 -0.20359256898E+02  0.50528865826E+02  0.30000018166E+02 0.  0.
         12    1    1    2    0    0 -0.79519112644E+01 -0.34284587756E+02  0.20359256898E+02  0.40659134174E+02  0.00000000000E+00 0. -1.
         11    1    3    3    0    0  0.11928571229E+02  0.17928075889E+02 -0.23211637593E+02  0.31662072527E+02  0.51100000000E-03 0. -1.
        -11    1    3    3    0    0 -0.29919907287E+01  0.99510162100E+00  0.12455180272E+01  0.33902140307E+01  0.51100000000E-03 0.  1.
         12    1    3    3    0    0 -0.98466923626E+00  0.15361410245E+02  0.16068626686E+01  0.15476579269E+02  0.00000000000E+00 0. -1.
</event>
<event>
 7    1  0.5748623E-013  0.5052886E+02  0.7816164E-02  0.1300439E+00
        -11   -1    0    0    0    0  0.00000000000E+00  0.00000000000E+00  0.45593999997E+02  0.45594000000E+02  0.51100000000E-03 0. -1.
         11   -1    0    0    0    0 -0.00000000000E+00 -0.00000000000E+00 -0.45593999997E+02  0.45594000000E+02  0.51100000000E-03 0.  1.
    9900012    2    1    2    0    0 -0.37548564340E+02 -0.64446914897E+00 -0.15583830338E+02  0.50528858439E+02  0.29999995712E+02 0.  0.
         12    1    1    2    0    0  0.37548564340E+02  0.64446914897E+00  0.15583830338E+02  0.40659141561E+02  0.00000000000E+00 0. -1.
         11    1    3    3    0    0 -0.51452721253E+01 -0.87589975934E+01 -0.55009955601E+01  0.11552264561E+02  0.51100000000E-03 0. -1.
        -11    1    3    3    0    0 -0.26933775510E+02  0.90456352026E+01 -0.14487433574E+02  0.31892593360E+02  0.51100000000E-03 0.  1.
        -12    1    3    3    0    0 -0.54695167045E+01 -0.93110675824E+00  0.44045987959E+01  0.70840005172E+01  0.00000000000E+00 0.  1.
</event>
<event>
 7    1  0.5748623E-013  0.5052886E+02  0.7816164E-02  0.1300439E+00
        -11   -1    0    0    0    0  0.00000000000E+00  0.00000000000E+00  0.45593999997E+02  0.45594000000E+02  0.51100000000E-03 0.  1.
         11   -1    0    0    0    0 -0.00000000000E+00 -0.00000000000E+00 -0.45593999997E+02  0.45594000000E+02  0.51100000000E-03 0. -1.
    9900012    2    1    2    0    0 -0.43750418412E+01  0.97240293887E+01  0.39236049717E+02  0.50528864052E+02  0.30000012772E+02 0.  0.
         12    1    1    2    0    0  0.43750418412E+01 -0.97240293887E+01 -0.39236049717E+02  0.40659135948E+02  0.00000000000E+00 0. -1.
         11    1    3    3    0    0 -0.42290613355E+01 -0.50281654781E+01  0.65218648908E+01  0.92575444784E+01  0.51100000000E-03 0. -1.
        -11    1    3    3    0    0 -0.49587610604E+00  0.19743679639E+02  0.22789357344E+02  0.30156484995E+02  0.51100000000E-03 0.  1.
        -12    1    3    3    0    0  0.34989560037E+00 -0.49914847725E+01  0.99248274818E+01  0.11114834579E+02  0.00000000000E+00 0.  1.
</event>
<event>
 7    1  0.6958535E-013  0.5052885E+02  0.7816164E-02  0.1300439E+00
        -11   -1    0    0    0    0  0.00000000000E+00  0.00000000000E+00  0.45593999997E+02  0.45594000000E+02  0.51100000000E-03 0. -1.
         11   -1    0    0    0    0 -0.00000000000E+00 -0.00000000000E+00 -0.45593999997E+02  0.45594000000E+02  0.51100000000E-03 0.  1.
    9900012    2    1    2    0    0 -0.23580365366E+02 -0.26293345144E+02 -0.20144297779E+02  0.50528851427E+02  0.29999974399E+02 0.  0.
         12    1    1    2    0    0  0.23580365366E+02  0.26293345144E+02  0.20144297779E+02  0.40659148573E+02  0.00000000000E+00 0. -1.
         11    1    3    3    0    0 -0.34428075639E+01  0.12004844821E+01  0.28924734004E+01  0.46540831049E+01  0.51100000000E-03 0. -1.
        -11    1    3    3    0    0 -0.90404165290E+00 -0.11783890899E+02 -0.16317232113E+02  0.20147690690E+02  0.51100000000E-03 0.  1.
        -12    1    3    3    0    0 -0.19233516149E+02 -0.15709938727E+02 -0.67195390663E+01  0.25727077632E+02  0.00000000000E+00 0.  1.
</event>
<event>
 7    1  0.5748623E-013  0.5052886E+02  0.7816164E-02  0.1300439E+00
        -11   -1    0    0    0    0  0.00000000000E+00  0.00000000000E+00  0.45593999997E+02  0.45594000000E+02  0.51100000000E-03 0.  1.
         11   -1    0    0    0    0 -0.00000000000E+00 -0.00000000000E+00 -0.45593999997E+02  0.45594000000E+02  0.51100000000E-03 0. -1.
    9900012    2    1    2    0    0  0.22083148723E+02 -0.14334309153E+02  0.30984313340E+02  0.50528861426E+02  0.30000004790E+02 0.  0.
         12    1    1    2    0    0 -0.22083148723E+02  0.14334309153E+02 -0.30984313340E+02  0.40659138574E+02  0.00000000000E+00 0. -1.
         11    1    3    3    0    0  0.20954079645E+01 -0.11207427520E+02  0.32393837749E+01  0.11852880395E+02  0.51100000000E-03 0. -1.
        -11    1    3    3    0    0  0.10811226080E+02 -0.23360313045E+01  0.27299040166E+02  0.29454664246E+02  0.51100000000E-03 0.  1.
        -12    1    3    3    0    0  0.91765146783E+01 -0.79085032828E+00  0.44588939945E+00  0.92213167845E+01  0.00000000000E+00 0.  1.
</event>
<event>
 7    1  0.5748623E-013  0.5052886E+02  0.7816164E-02  0.1300439E+00
        -11   -1    0    0    0    0  0.00000000000E+00  0.00000000000E+00  0.45593999997E+02  0.45594000000E+02  0.51100000000E-03 0.  1.
         11   -1    0    0    0    0 -0.00000000000E+00 -0.00000000000E+00 -0.45593999997E+02  0.45594000000E+02  0.51100000000E-03 0. -1.
    9900012    2    1    2    0    0  0.19899225427E+02 -0.15671647166E+02 -0.31805444829E+02  0.50528855663E+02  0.29999987274E+02 0.  0.
         12    1    1    2    0    0 -0.19899225427E+02  0.15671647166E+02  0.31805444829E+02  0.40659144337E+02  0.00000000000E+00 0. -1.
         11    1    3    3    0    0  0.24629081500E+01 -0.11306967737E+02 -0.29142650290E+01  0.11933414301E+02  0.51100000000E-03 0. -1.
        -11    1    3    3    0    0  0.13272306880E+02 -0.77794521625E+01 -0.29404580461E+02  0.33185890951E+02  0.51100000000E-03 0.  1.
        -12    1    3    3    0    0  0.41640103966E+01  0.34147727341E+01  0.51340066146E+00  0.54095504108E+01  0.00000000000E+00 0.  1.
</event>
<event>
 7    1  0.5748623E-013  0.5052886E+02  0.7816164E-02  0.1300439E+00
        -11   -1    0    0    0    0  0.00000000000E+00  0.00000000000E+00  0.45593999997E+02  0.45594000000E+02  0.51100000000E-03 0.  1.
         11   -1    0    0    0    0 -0.00000000000E+00 -0.00000000000E+00 -0.45593999997E+02  0.45594000000E+02  0.51100000000E-03 0. -1.
    9900012    2    1    2    0    0 -0.63240224688E+01 -0.15759645638E+02  0.36943285473E+02  0.50528855489E+02  0.29999986745E+02 0.  0.
         12    1    1    2    0    0  0.63240224688E+01  0.15759645638E+02 -0.36943285473E+02  0.40659144511E+02  0.00000000000E+00 0. -1.
         11    1    3    3    0    0  0.80374071274E+01  0.17154122613E+01  0.14119171522E+02  0.16336877219E+02  0.51100000000E-03 0. -1.
        -11    1    3    3    0    0 -0.93015807423E+01 -0.24944668687E+01  0.80452277186E+01  0.12548603849E+02  0.51100000000E-03 0.  1.
         12    1    3    3    0    0 -0.50598488540E+01 -0.14980591030E+02  0.14778886233E+02  0.21643374421E+02  0.00000000000E+00 0. -1.
</event>
<event>
 7    1  0.5748623E-013  0.5052884E+02  0.7816164E-02  0.1300439E+00
        -11   -1    0    0    0    0  0.00000000000E+00  0.00000000000E+00  0.45593999997E+02  0.45594000000E+02  0.51100000000E-03 0.  1.
         11   -1    0    0    0    0 -0.00000000000E+00 -0.00000000000E+00 -0.45593999997E+02  0.45594000000E+02  0.51100000000E-03 0. -1.
    9900012    2    1    2    0    0 -0.39027207299E+02  0.70187565792E+01  0.89878288609E+01  0.50528844560E+02  0.29999953525E+02 0.  0.
         12    1    1    2    0    0  0.39027207299E+02 -0.70187565792E+01 -0.89878288609E+01  0.40659155440E+02  0.00000000000E+00 0. -1.
         11    1    3    3    0    0 -0.22801295222E+02  0.12023211576E+02 -0.16468986888E+01  0.25829613933E+02  0.51100000000E-03 0. -1.
        -11    1    3    3    0    0 -0.13834962215E+02 -0.57864766160E+01  0.13239940186E+01  0.15054648835E+02  0.51100000000E-03 0.  1.
         12    1    3    3    0    0 -0.23909498618E+01  0.78202161963E+00  0.93107335311E+01  0.96445817920E+01  0.00000000000E+00 0. -1.
</event>
<event>
 7    1  0.5748623E-013  0.5052886E+02  0.7816164E-02  0.1300439E+00
        -11   -1    0    0    0    0  0.00000000000E+00  0.00000000000E+00  0.45593999997E+02  0.45594000000E+02  0.51100000000E-03 0. -1.
         11   -1    0    0    0    0 -0.00000000000E+00 -0.00000000000E+00 -0.45593999997E+02  0.45594000000E+02  0.51100000000E-03 0.  1.
    9900012    2    1    2    0    0 -0.13818587138E+02  0.37553396715E+02  0.72079511991E+01  0.50528861842E+02  0.30000006054E+02 0.  0.
         12    1    1    2    0    0  0.13818587138E+02 -0.37553396715E+02 -0.72079511991E+01  0.40659138158E+02  0.00000000000E+00 0. -1.
         11    1    3    3    0    0  0.52098742920E+01  0.10397310007E+01  0.36016174973E+01  0.64183704747E+01  0.51100000000E-03 0. -1.
        -11    1    3    3    0    0 -0.21430588085E+02  0.32872495751E+02  0.49354653320E+01  0.39550346407E+02  0.51100000000E-03 0.  1.
        -12    1    3    3    0    0  0.24021266557E+01  0.36411699625E+01 -0.13291316302E+01  0.45601449599E+01  0.00000000000E+00 0.  1.
</event>
<event>
 7    1  0.5748623E-013  0.5052886E+02  0.7816164E-02  0.1300439E+00
        -11   -1    0    0    0    0  0.00000000000E+00  0.00000000000E+00  0.45593999997E+02  0.45594000000E+02  0.51100000000E-03 0.  1.
         11   -1    0    0    0    0 -0.00000000000E+00 -0.00000000000E+00 -0.45593999997E+02  0.45594000000E+02  0.51100000000E-03 0. -1.
    9900012    2    1    2    0    0  0.12857402827E+02 -0.27666613657E+02  0.26877715356E+02  0.50528857099E+02  0.29999991637E+02 0.  0.
         12    1    1    2    0    0 -0.12857402827E+02  0.27666613657E+02 -0.26877715356E+02  0.40659142901E+02  0.00000000000E+00 0. -1.
         11    1    3    3    0    0  0.14631237539E+02 -0.86723286196E+01  0.20125008144E+02  0.26349541716E+02  0.51100000000E-03 0. -1.
        -11    1    3    3    0    0 -0.34765339342E+01 -0.81931447404E+01  0.93831953209E+01  0.12932836643E+02  0.51100000000E-03 0.  1.
         12    1    3    3    0    0  0.17026992221E+01 -0.10801140297E+02 -0.26304881081E+01  0.11246478740E+02  0.00000000000E+00 0. -1.
</event>
<event>
 7    1  0.5748623E-013  0.5052882E+02  0.7816164E-02  0.1300439E+00
        -11   -1    0    0    0    0  0.00000000000E+00  0.00000000000E+00  0.45593999997E+02  0.45594000000E+02  0.51100000000E-03 0.  1.
         11   -1    0    0    0    0 -0.00000000000E+00 -0.00000000000E+00 -0.45593999997E+02  0.45594000000E+02  0.51100000000E-03 0. -1.
    9900012    2    1    2    0    0  0.74950038737E+01  0.10561150203E+02  0.38541614488E+02  0.50528818700E+02  0.29999874919E+02 0.  0.
         12    1    1    2    0    0 -0.74950038737E+01 -0.10561150203E+02 -0.38541614488E+02  0.40659181300E+02  0.00000000000E+00 0. -1.
         11    1    3    3    0    0  0.91407453291E+01  0.57496071785E+01  0.14344931815E+02  0.17955174099E+02  0.51100000000E-03 0. -1.
        -11    1    3    3    0    0 -0.10349034646E+02  0.72672127289E+01  0.15758855666E+02  0.20205356496E+02  0.51100000000E-03 0.  1.
        -12    1    3    3    0    0  0.87032931907E+01 -0.24556697040E+01  0.84378270067E+01  0.12368288105E+02  0.00000000000E+00 0.  1.
</event>
<event>
 7    1  0.5748623E-013  0.5052886E+02  0.7816164E-02  0.1300439E+00
        -11   -1    0    0    0    0  0.00000000000E+00  0.00000000000E+00  0.45593999997E+02  0.45594000000E+02  0.51100000000E-03 0.  1.
         11   -1    0    0    0    0 -0.00000000000E+00 -0.00000000000E+00 -0.45593999997E+02  0.45594000000E+02  0.51100000000E-03 0. -1.
    9900012    2    1    2    0    0  0.20686051725E+02 -0.31477082113E+02 -0.15311628523E+02  0.50528863237E+02  0.30000010295E+02 0.  0.
         12    1    1    2    0    0 -0.20686051725E+02  0.31477082113E+02  0.15311628523E+02  0.40659136763E+02  0.00000000000E+00 0. -1.
         11    1    3    3    0    0  0.37469488954E+01 -0.12559745106E+02 -0.16552361969E+02  0.21113207008E+02  0.51100000000E-03 0. -1.
        -11    1    3    3    0    0  0.83615965667E+01 -0.18118699125E+02  0.40355974799E+01  0.20359017717E+02  0.51100000000E-03 0.  1.
         12    1    3    3    0    0  0.85775062633E+01 -0.79863788161E+00 -0.27948640336E+01  0.90566385116E+01  0.00000000000E+00 0. -1.
</event>
<event>
 7    1  0.5748623E-013  0.5052893E+02  0.7816164E-02  0.1300439E+00
        -11   -1    0    0    0    0  0.00000000000E+00  0.00000000000E+00  0.45593999997E+02  0.45594000000E+02  0.51100000000E-03 0. -1.
         11   -1    0    0    0    0 -0.00000000000E+00 -0.00000000000E+00 -0.45593999997E+02  0.45594000000E+02  0.51100000000E-03 0.  1.
    9900012    2    1    2    0    0  0.31730020767E+02  0.22670775748E+01 -0.25322437187E+02  0.50528933561E+02  0.30000224052E+02 0.  0.
         12    1    1    2    0    0 -0.31730020767E+02 -0.22670775748E+01  0.25322437187E+02  0.40659066439E+02  0.00000000000E+00 0. -1.
         11    1    3    3    0    0  0.16166119212E+00 -0.33144511335E+01 -0.14985477239E+02  0.15348493379E+02  0.51100000000E-03 0. -1.
        -11    1    3    3    0    0  0.16312597785E+02 -0.21003654378E+01 -0.37189252587E+01  0.16862466807E+02  0.51100000000E-03 0.  1.
         12    1    3    3    0    0  0.15255761790E+02  0.76818941460E+01 -0.66180346893E+01  0.18317973376E+02  0.00000000000E+00 0. -1.
</event>
<event>
 7    1  0.5748623E-013  0.5052885E+02  0.7816164E-02  0.1300439E+00
        -11   -1    0    0    0    0  0.00000000000E+00  0.00000000000E+00  0.45593999997E+02  0.45594000000E+02  0.51100000000E-03 0. -1.
         11   -1    0    0    0    0 -0.00000000000E+00 -0.00000000000E+00 -0.45593999997E+02  0.45594000000E+02  0.51100000000E-03 0.  1.
    9900012    2    1    2    0    0 -0.64527244539E+01  0.47567245288E+00 -0.40141038140E+02  0.50528845310E+02  0.29999955804E+02 0.  0.
         12    1    1    2    0    0  0.64527244539E+01 -0.47567245288E+00  0.40141038140E+02  0.40659154690E+02  0.00000000000E+00 0. -1.
         11    1    3    3    0    0 -0.45218067900E+01 -0.94346839930E+01 -0.61788384111E+01  0.12150639615E+02  0.51100000000E-03 0. -1.
        -11    1    3    3    0    0  0.11173906230E+01  0.13266290046E+02 -0.26217427008E+02  0.29404021707E+02  0.51100000000E-03 0.  1.
        -12    1    3    3    0    0 -0.30483082868E+01 -0.33559336000E+01 -0.77447727207E+01  0.89741839871E+01  0.00000000000E+00 0.  1.
</event>
<event>
 7    1  0.5748623E-013  0.5052886E+02  0.7816164E-02  0.1300439E+00
        -11   -1    0    0    0    0  0.00000000000E+00  0.00000000000E+00  0.45593999997E+02  0.45594000000E+02  0.51100000000E-03 0.  1.
         11   -1    0    0    0    0 -0.00000000000E+00 -0.00000000000E+00 -0.45593999997E+02  0.45594000000E+02  0.51100000000E-03 0. -1.
    9900012    2    1    2    0    0  0.28066815647E+02  0.88918588980E+01  0.28042011680E+02  0.50528859401E+02  0.29999998635E+02 0.  0.
         12    1    1    2    0    0 -0.28066815647E+02 -0.88918588980E+01 -0.28042011680E+02  0.40659140599E+02  0.00000000000E+00 0. -1.
         11    1    3    3    0    0  0.20533249191E+01  0.91562214998E+01  0.19157964074E+02  0.21332607039E+02  0.51100000000E-03 0. -1.
        -11    1    3    3    0    0  0.18059145720E+02  0.20991509550E+01  0.10118605222E+02  0.20806858263E+02  0.51100000000E-03 0.  1.
         12    1    3    3    0    0  0.79543450077E+01 -0.23635135568E+01 -0.12345576162E+01  0.83893940986E+01  0.00000000000E+00 0. -1.
</event>
<event>
 7    1  0.5748623E-013  0.5052886E+02  0.7816164E-02  0.1300439E+00
        -11   -1    0    0    0    0  0.00000000000E+00  0.00000000000E+00  0.45593999997E+02  0.45594000000E+02  0.51100000000E-03 0. -1.
         11   -1    0    0    0    0 -0.00000000000E+00 -0.00000000000E+00 -0.45593999997E+02  0.45594000000E+02  0.51100000000E-03 0.  1.
    9900012    2    1    2    0    0 -0.47539333318E+01 -0.40083773133E+02  0.48843702377E+01  0.50528858060E+02  0.29999994558E+02 0.  0.
         12    1    1    2    0    0  0.47539333318E+01  0.40083773133E+02 -0.48843702377E+01  0.40659141940E+02  0.00000000000E+00 0. -1.
         11    1    3    3    0    0 -0.60574362486E+01 -0.22930799839E+02 -0.88548013346E+01  0.25316429884E+02  0.51100000000E-03 0. -1.
        -11    1    3    3    0    0  0.31106894852E+01 -0.12596059635E+02  0.28688569898E+01  0.13287868456E+02  0.51100000000E-03 0.  1.
         12    1    3    3    0    0 -0.18071865684E+01 -0.45569136592E+01  0.10870314583E+02  0.11924559720E+02  0.00000000000E+00 0. -1.
</event>
<event>
 7    1  0.5748623E-013  0.5052885E+02  0.7816164E-02  0.1300439E+00
        -11   -1    0    0    0    0  0.00000000000E+00  0.00000000000E+00  0.45593999997E+02  0.45594000000E+02  0.51100000000E-03 0.  1.
         11   -1    0    0    0    0 -0.00000000000E+00 -0.00000000000E+00 -0.45593999997E+02  0.45594000000E+02  0.51100000000E-03 0. -1.
    9900012    2    1    2    0    0 -0.45491283923E+01  0.46701612733E+01  0.40133045575E+02  0.50528851920E+02  0.29999975896E+02 0.  0.
         12    1    1    2    0    0  0.45491283923E+01 -0.46701612733E+01 -0.40133045575E+02  0.40659148080E+02  0.00000000000E+00 0. -1.
         11    1    3    3    0    0  0.53883468976E+01 -0.88057560498E+01  0.18565722030E+02  0.21242920154E+02  0.51100000000E-03 0. -1.
        -11    1    3    3    0    0 -0.10985460612E+02  0.12476979369E+02  0.22176180365E+02  0.27715308674E+02  0.51100000000E-03 0.  1.
         12    1    3    3    0    0  0.10479853219E+01  0.99893795408E+00 -0.60885682001E+00  0.15706230924E+01  0.00000000000E+00 0. -1.
</event>
<event>
 7    1  0.5748623E-013  0.5052884E+02  0.7816164E-02  0.1300439E+00
        -11   -1    0    0    0    0  0.00000000000E+00  0.00000000000E+00  0.45593999997E+02  0.45594000000E+02  0.51100000000E-03 0.  1.
         11   -1    0    0    0    0 -0.00000000000E+00 -0.00000000000E+00 -0.45593999997E+02  0.45594000000E+02  0.51100000000E-03 0. -1.
    9900012    2    1    2    0    0  0.39311335651E+02 -0.63195779257E+01 -0.82370610404E+01  0.50528839280E+02  0.29999937476E+02 0.  0.
         12    1    1    2    0    0 -0.39311335651E+02  0.63195779257E+01  0.82370610404E+01  0.40659160720E+02  0.00000000000E+00 0. -1.
         11    1    3    3    0    0  0.33431845253E+01 -0.66715231978E+01 -0.43720096303E+01  0.86487324515E+01  0.51100000000E-03 0. -1.
        -11    1    3    3    0    0  0.16218381591E+02  0.10462216950E+02 -0.39134856297E+01  0.19692873203E+02  0.51100000000E-03 0.  1.
         12    1    3    3    0    0  0.19749769535E+02 -0.10110271678E+02  0.48434219523E-01  0.22187233626E+02  0.00000000000E+00 0. -1.
</event>
<event>
 7    1  0.5748623E-013  0.5052887E+02  0.7816164E-02  0.1300439E+00
        -11   -1    0    0    0    0  0.00000000000E+00  0.00000000000E+00  0.45593999997E+02  0.45594000000E+02  0.51100000000E-03 0.  1.
         11   -1    0    0    0    0 -0.00000000000E+00 -0.00000000000E+00 -0.45593999997E+02  0.45594000000E+02  0.51100000000E-03 0. -1.
    9900012    2    1    2    0    0 -0.23012936028E-01  0.11717082048E+01  0.40642241847E+02  0.50528865084E+02  0.30000015910E+02 0.  0.
         12    1    1    2    0    0  0.23012936028E-01 -0.11717082048E+01 -0.40642241847E+02  0.40659134916E+02  0.00000000000E+00 0. -1.
         11    1    3    3    0    0  0.82247748877E+01  0.40221193990E+01  0.20062681449E+01  0.93728052654E+01  0.51100000000E-03 0. -1.
        -11    1    3    3    0    0  0.11930323267E+01 -0.30350214092E+01  0.20002606651E+02  0.20266695690E+02  0.51100000000E-03 0.  1.
         12    1    3    3    0    0 -0.94408201504E+01  0.18461021506E+00  0.18633367051E+02  0.20889364129E+02  0.00000000000E+00 0. -1.
</event>
<event>
 7    1  0.6744399E-013  0.5052880E+02  0.7816164E-02  0.1300439E+00
        -11   -1    0    0    0    0  0.00000000000E+00  0.00000000000E+00  0.45593999997E+02  0.45594000000E+02  0.51100000000E-03 0.  1.
         11   -1    0    0    0    0 -0.00000000000E+00 -0.00000000000E+00 -0.45593999997E+02  0.45594000000E+02  0.51100000000E-03 0. -1.
    9900012    2    1    2    0    0 -0.33379347818E+02  0.48291155056E+01  0.22708348040E+02  0.50528803155E+02  0.29999827670E+02 0.  0.
         12    1    1    2    0    0  0.33379347818E+02 -0.48291155056E+01 -0.22708348040E+02  0.40659196845E+02  0.00000000000E+00 0. -1.
         11    1    3    3    0    0 -0.58001799205E+00  0.77019844787E+01  0.35738959037E+00  0.77320575115E+01  0.51100000000E-03 0. -1.
        -11    1    3    3    0    0 -0.16187734789E+02 -0.69127120178E+01  0.46884221367E+01  0.18215642932E+02  0.51100000000E-03 0.  1.
        -12    1    3    3    0    0 -0.16611595037E+02  0.40398430447E+01  0.17662536313E+02  0.24581102712E+02  0.00000000000E+00 0.  1.
</event>
<event>
 7    1  0.5748623E-013  0.5052884E+02  0.7816164E-02  0.1300439E+00
        -11   -1    0    0    0    0  0.00000000000E+00  0.00000000000E+00  0.45593999997E+02  0.45594000000E+02  0.51100000000E-03 0. -1.
         11   -1    0    0    0    0 -0.00000000000E+00 -0.00000000000E+00 -0.45593999997E+02  0.45594000000E+02  0.51100000000E-03 0.  1.
    9900012    2    1    2    0    0 -0.37294080897E+02  0.56527928474E+01 -0.15177774052E+02  0.50528839137E+02  0.29999937040E+02 0.  0.
         12    1    1    2    0    0  0.37294080897E+02 -0.56527928474E+01  0.15177774052E+02  0.40659160863E+02  0.00000000000E+00 0. -1.
         11    1    3    3    0    0 -0.27694930443E+02  0.11329794486E+01 -0.28123168480E+01  0.27860400948E+02  0.51100000000E-03 0. -1.
        -11    1    3    3    0    0 -0.13155552621E+02  0.57996636971E+01 -0.12247911286E+02  0.18886926560E+02  0.51100000000E-03 0.  1.
         12    1    3    3    0    0  0.35564021666E+01 -0.12798502983E+01 -0.11754591797E+00  0.37815116289E+01  0.00000000000E+00 0. -1.
</event>
<event>
 7    1  0.5748623E-013  0.5052887E+02  0.7816164E-02  0.1300439E+00
        -11   -1    0    0    0    0  0.00000000000E+00  0.00000000000E+00  0.45593999997E+02  0.45594000000E+02  0.51100000000E-03 0. -1.
         11   -1    0    0    0    0 -0.00000000000E+00 -0.00000000000E+00 -0.45593999997E+02  0.45594000000E+02  0.51100000000E-03 0.  1.
    9900012    2    1    2    0    0 -0.39746397710E+02  0.47177405371E+01 -0.71506172371E+01  0.50528873920E+02  0.30000042768E+02 0.  0.
         12    1    1    2    0    0  0.39746397710E+02 -0.47177405371E+01  0.71506172371E+01  0.40659126080E+02  0.00000000000E+00 0. -1.
         11    1    3    3    0    0  0.17056689505E+01  0.12055787576E+01 -0.22167600005E+01  0.30457760703E+01  0.51100000000E-03 0. -1.
        -11    1    3    3    0    0 -0.40259501929E+02  0.71075530225E+01  0.46881372086E+00  0.40884772130E+02  0.51100000000E-03 0.  1.
        -12    1    3    3    0    0 -0.11925647312E+01 -0.35953912430E+01 -0.54026709575E+01  0.65983257197E+01  0.00000000000E+00 0.  1.
</event>
<event>
 7    1  0.5748623E-013  0.5052887E+02  0.7816164E-02  0.1300439E+00
        -11   -1    0    0    0    0  0.00000000000E+00  0.00000000000E+00  0.45593999997E+02  0.45594000000E+02  0.51100000000E-03 0.  1.
         11   -1    0    0    0    0 -0.00000000000E+00 -0.00000000000E+00 -0.45593999997E+02  0.45594000000E+02  0.51100000000E-03 0. -1.
    9900012    2    1    2    0    0 -0.40071996271E+02 -0.13274264377E+01 -0.67555958717E+01  0.50528867918E+02  0.30000024524E+02 0.  0.
         12    1    1    2    0    0  0.40071996271E+02  0.13274264377E+01  0.67555958717E+01  0.40659132082E+02  0.00000000000E+00 0. -1.
         11    1    3    3    0    0 -0.34755152136E+02 -0.12344873986E+01  0.10479209718E+01  0.34792854119E+02  0.51100000000E-03 0.  1.
        -11    1    3    3    0    0  0.15970687099E+01 -0.49208416050E+01 -0.36818547324E+01  0.63499106369E+01  0.51100000000E-03 0. -1.
         12    1    3    3    0    0 -0.69139128449E+01  0.48279025659E+01 -0.41216621111E+01  0.93861031622E+01  0.00000000000E+00 0. -1.
</event>
<event>
 7    1  0.5748623E-013  0.5052885E+02  0.7816164E-02  0.1300439E+00
        -11   -1    0    0    0    0  0.00000000000E+00  0.00000000000E+00  0.45593999997E+02  0.45594000000E+02  0.51100000000E-03 0. -1.
         11   -1    0    0    0    0 -0.00000000000E+00 -0.00000000000E+00 -0.45593999997E+02  0.45594000000E+02  0.51100000000E-03 0.  1.
    9900012    2    1    2    0    0 -0.36970502873E+02 -0.33493545350E+01  0.16587048434E+02  0.50528850547E+02  0.29999971723E+02 0.  0.
         12    1    1    2    0    0  0.36970502873E+02  0.33493545350E+01 -0.16587048434E+02  0.40659149453E+02  0.00000000000E+00 0. -1.
         11    1    3    3    0    0 -0.10241549395E+02  0.30740110978E+01 -0.90517921996E-01  0.10693319035E+02  0.51100000000E-03 0. -1.
        -11    1    3    3    0    0 -0.11591902297E+02  0.36669053116E+01  0.17859744855E+02  0.21605297498E+02  0.51100000000E-03 0.  1.
        -12    1    3    3    0    0 -0.15137051181E+02 -0.10090270944E+02 -0.11821784992E+01  0.18230234013E+02  0.00000000000E+00 0.  1.
</event>
<event>
 7    1  0.5748623E-013  0.5052886E+02  0.7816164E-02  0.1300439E+00
        -11   -1    0    0    0    0  0.00000000000E+00  0.00000000000E+00  0.45593999997E+02  0.45594000000E+02  0.51100000000E-03 0. -1.
         11   -1    0    0    0    0 -0.00000000000E+00 -0.00000000000E+00 -0.45593999997E+02  0.45594000000E+02  0.51100000000E-03 0.  1.
    9900012    2    1    2    0    0  0.32674244689E+02  0.33560168842E+01 -0.23964481795E+02  0.50528861999E+02  0.30000006531E+02 0.  0.
         12    1    1    2    0    0 -0.32674244689E+02 -0.33560168842E+01  0.23964481795E+02  0.40659138001E+02  0.00000000000E+00 0. -1.
         11    1    3    3    0    0  0.14725771903E+02  0.83664073465E+01 -0.70168773479E+01  0.18332531140E+02  0.51100000000E-03 0. -1.
        -11    1    3    3    0    0  0.90620664371E+01 -0.71930138619E+01 -0.19519911104E+02  0.22691131005E+02  0.51100000000E-03 0.  1.
        -12    1    3    3    0    0  0.88864063491E+01  0.21826233996E+01  0.25723066577E+01  0.95051998531E+01  0.00000000000E+00 0.  1.
</event>
<event>
 7    1  0.5748623E-013  0.5052886E+02  0.7816164E-02  0.1300439E+00
        -11   -1    0    0    0    0  0.00000000000E+00  0.00000000000E+00  0.45593999997E+02  0.45594000000E+02  0.51100000000E-03 0.  1.
         11   -1    0    0    0    0 -0.00000000000E+00 -0.00000000000E+00 -0.45593999997E+02  0.45594000000E+02  0.51100000000E-03 0. -1.
    9900012    2    1    2    0    0 -0.20809400308E+02  0.27433492902E+02  0.21622620224E+02  0.50528863519E+02  0.30000011153E+02 0.  0.
         12    1    1    2    0    0  0.20809400308E+02 -0.27433492902E+02 -0.21622620224E+02  0.40659136481E+02  0.00000000000E+00 0. -1.
         11    1    3    3    0    0  0.47186718016E+01 -0.22056276891E+01  0.45105613124E+01  0.68902700011E+01  0.51100000000E-03 0. -1.
        -11    1    3    3    0    0 -0.11019877035E+02  0.15809368285E+02  0.39847806211E+01  0.19678726897E+02  0.51100000000E-03 0.  1.
        -12    1    3    3    0    0 -0.14508195075E+02  0.13829752306E+02  0.13127278290E+02  0.23959866621E+02  0.00000000000E+00 0.  1.
</event>
<event>
 7    1  0.5748623E-013  0.5052886E+02  0.7816164E-02  0.1300439E+00
        -11   -1    0    0    0    0  0.00000000000E+00  0.00000000000E+00  0.45593999997E+02  0.45594000000E+02  0.51100000000E-03 0. -1.
         11   -1    0    0    0    0 -0.00000000000E+00 -0.00000000000E+00 -0.45593999997E+02  0.45594000000E+02  0.51100000000E-03 0.  1.
    9900012    2    1    2    0    0 -0.54799736692E+01  0.48864267260E+01 -0.39990727488E+02  0.50528861266E+02  0.30000004304E+02 0.  0.
         12    1    1    2    0    0  0.54799736692E+01 -0.48864267260E+01  0.39990727488E+02  0.40659138734E+02  0.00000000000E+00 0. -1.
         11    1    3    3    0    0 -0.10525396503E+02  0.27988605028E+01 -0.62152913447E+01  0.12539834067E+02  0.51100000000E-03 0. -1.
        -11    1    3    3    0    0  0.28029446776E+01  0.74442962330E+01 -0.30060783296E+02  0.31095413454E+02  0.51100000000E-03 0.  1.
         12    1    3    3    0    0  0.22424781566E+01 -0.53567300098E+01 -0.37146528475E+01  0.68936137445E+01  0.00000000000E+00 0. -1.
</event>
<event>
 7    1  0.5748623E-013  0.5052886E+02  0.7816164E-02  0.1300439E+00
        -11   -1    0    0    0    0  0.00000000000E+00  0.00000000000E+00  0.45593999997E+02  0.45594000000E+02  0.51100000000E-03 0. -1.
         11   -1    0    0    0    0 -0.00000000000E+00 -0.00000000000E+00 -0.45593999997E+02  0.45594000000E+02  0.51100000000E-03 0.  1.
    9900012    2    1    2    0    0 -0.16778283553E+02 -0.10765953393E+02 -0.35436548289E+02  0.50528861961E+02  0.30000006416E+02 0.  0.
         12    1    1    2    0    0  0.16778283553E+02  0.10765953393E+02  0.35436548289E+02  0.40659138039E+02  0.00000000000E+00 0. -1.
         11    1    3    3    0    0  0.38633807095E+01 -0.96638921450E+01 -0.52264247396E+01  0.11646116851E+02  0.51100000000E-03 0. -1.
        -11    1    3    3    0    0 -0.44347906635E+01 -0.18991181856E+01 -0.17834657507E+02  0.18475633326E+02  0.51100000000E-03 0.  1.
         12    1    3    3    0    0 -0.16206873599E+02  0.79705693710E+00 -0.12375466042E+02  0.20407111784E+02  0.00000000000E+00 0. -1.
</event>
<event>
 7    1  0.5748623E-013  0.5052886E+02  0.7816164E-02  0.1300439E+00
        -11   -1    0    0    0    0  0.00000000000E+00  0.00000000000E+00  0.45593999997E+02  0.45594000000E+02  0.51100000000E-03 0. -1.
         11   -1    0    0    0    0 -0.00000000000E+00 -0.00000000000E+00 -0.45593999997E+02  0.45594000000E+02  0.51100000000E-03 0.  1.
    9900012    2    1    2    0    0  0.44494391533E+01 -0.65856281912E+00 -0.40409580672E+02  0.50528862972E+02  0.30000009490E+02 0.  0.
         12    1    1    2    0    0 -0.44494391533E+01  0.65856281912E+00  0.40409580672E+02  0.40659137028E+02  0.00000000000E+00 0. -1.
         11    1    3    3    0    0  0.62331064747E+01 -0.29037960687E+01 -0.31362977141E+01  0.75577782149E+01  0.51100000000E-03 0. -1.
        -11    1    3    3    0    0 -0.24634726236E+01  0.87960640152E+01 -0.58095502902E+01  0.10825447536E+02  0.51100000000E-03 0.  1.
        -12    1    3    3    0    0  0.67980530215E+00 -0.65508307656E+01 -0.31463732668E+02  0.32145637221E+02  0.00000000000E+00 0.  1.
</event>
<event>
 7    1  0.5748623E-013  0.5052890E+02  0.7816164E-02  0.1300439E+00
        -11   -1    0    0    0    0  0.00000000000E+00  0.00000000000E+00  0.45593999997E+02  0.45594000000E+02  0.51100000000E-03 0.  1.
         11   -1    0    0    0    0 -0.00000000000E+00 -0.00000000000E+00 -0.45593999997E+02  0.45594000000E+02  0.51100000000E-03 0. -1.
    9900012    2    1    2    0    0 -0.10537359000E+02  0.17473467651E+02  0.35168233782E+02  0.50528896791E+02  0.30000112286E+02 0.  0.
         12    1    1    2    0    0  0.10537359000E+02 -0.17473467651E+02 -0.35168233782E+02  0.40659103209E+02  0.00000000000E+00 0. -1.
         11    1    3    3    0    0  0.42891305595E+01  0.13841122592E+02  0.10934663237E+02  0.18153241471E+02  0.51100000000E-03 0. -1.
        -11    1    3    3    0    0 -0.13447459320E+02  0.50176313206E+01  0.26027379804E+02  0.29722639283E+02  0.51100000000E-03 0.  1.
         12    1    3    3    0    0 -0.13790302400E+01 -0.13852862618E+01 -0.17938092593E+01  0.26530160363E+01  0.00000000000E+00 0. -1.
</event>
<event>
 7    1  0.5748623E-013  0.5052886E+02  0.7816164E-02  0.1300439E+00
        -11   -1    0    0    0    0  0.00000000000E+00  0.00000000000E+00  0.45593999997E+02  0.45594000000E+02  0.51100000000E-03 0.  1.
         11   -1    0    0    0    0 -0.00000000000E+00 -0.00000000000E+00 -0.45593999997E+02  0.45594000000E+02  0.51100000000E-03 0. -1.
    9900012    2    1    2    0    0  0.14169244857E+02  0.19338482566E+02  0.32839327884E+02  0.50528857564E+02  0.29999993051E+02 0.  0.
         12    1    1    2    0    0 -0.14169244857E+02 -0.19338482566E+02 -0.32839327884E+02  0.40659142436E+02  0.00000000000E+00 0. -1.
         11    1    3    3    0    0  0.37271554219E+00  0.15174071856E+02  0.57479305832E+01  0.16230529252E+02  0.51100000000E-03 0.  1.
        -11    1    3    3    0    0  0.41396556908E+01 -0.34143008401E+01  0.99308627222E+00  0.54571439481E+01  0.51100000000E-03 0. -1.
         12    1    3    3    0    0  0.96568736236E+01  0.75787115507E+01  0.26098311029E+02  0.28841184364E+02  0.00000000000E+00 0. -1.
</event>
<event>
 7    1  0.5748623E-013  0.5052882E+02  0.7816164E-02  0.1300439E+00
        -11   -1    0    0    0    0  0.00000000000E+00  0.00000000000E+00  0.45593999997E+02  0.45594000000E+02  0.51100000000E-03 0.  1.
         11   -1    0    0    0    0 -0.00000000000E+00 -0.00000000000E+00 -0.45593999997E+02  0.45594000000E+02  0.51100000000E-03 0. -1.
    9900012    2    1    2    0    0  0.12036308497E+02  0.35482091263E+02  0.15789788416E+02  0.50528819722E+02  0.29999878027E+02 0.  0.
         12    1    1    2    0    0 -0.12036308497E+02 -0.35482091263E+02 -0.15789788416E+02  0.40659180278E+02  0.00000000000E+00 0. -1.
         11    1    3    3    0    0  0.17525073317E+01  0.37423508525E+00 -0.66748334721E+01  0.69112036570E+01  0.51100000000E-03 0. -1.
        -11    1    3    3    0    0  0.67447994519E+01  0.18784906181E+02  0.79299697851E+01  0.21476718579E+02  0.51100000000E-03 0.  1.
         12    1    3    3    0    0  0.35390017134E+01  0.16322949997E+02  0.14534652103E+02  0.22140897486E+02  0.00000000000E+00 0. -1.
</event>
<event>
 7    1  0.5748623E-013  0.5052886E+02  0.7816164E-02  0.1300439E+00
        -11   -1    0    0    0    0  0.00000000000E+00  0.00000000000E+00  0.45593999997E+02  0.45594000000E+02  0.51100000000E-03 0.  1.
         11   -1    0    0    0    0 -0.00000000000E+00 -0.00000000000E+00 -0.45593999997E+02  0.45594000000E+02  0.51100000000E-03 0. -1.
    9900012    2    1    2    0    0  0.24403971516E+02  0.39298300885E+01  0.32282628235E+02  0.50528862330E+02  0.30000007539E+02 0.  0.
         12    1    1    2    0    0 -0.24403971516E+02 -0.39298300885E+01 -0.32282628235E+02  0.40659137670E+02  0.00000000000E+00 0. -1.
         11    1    3    3    0    0  0.66921931049E+01 -0.48167322069E+01  0.23358367390E+02  0.24770944372E+02  0.51100000000E-03 0. -1.
        -11    1    3    3    0    0  0.81516322908E+01  0.10429331003E+02  0.10864816424E+01  0.13281584875E+02  0.51100000000E-03 0.  1.
         12    1    3    3    0    0  0.95601461205E+01 -0.16827687076E+01  0.78377792026E+01  0.12476333083E+02  0.00000000000E+00 0. -1.
</event>
<event>
 7    1  0.5748623E-013  0.5052886E+02  0.7816164E-02  0.1300439E+00
        -11   -1    0    0    0    0  0.00000000000E+00  0.00000000000E+00  0.45593999997E+02  0.45594000000E+02  0.51100000000E-03 0.  1.
         11   -1    0    0    0    0 -0.00000000000E+00 -0.00000000000E+00 -0.45593999997E+02  0.45594000000E+02  0.51100000000E-03 0. -1.
    9900012    2    1    2    0    0  0.30126478093E+02  0.17016212169E+02  0.21354381026E+02  0.50528858988E+02  0.29999997379E+02 0.  0.
         12    1    1    2    0    0 -0.30126478093E+02 -0.17016212169E+02 -0.21354381026E+02  0.40659141012E+02  0.00000000000E+00 0. -1.
         11    1    3    3    0    0  0.78613452242E+00  0.93581811494E+01 -0.45569795860E+01  0.10438372724E+02  0.51100000000E-03 0. -1.
        -11    1    3    3    0    0  0.93373838474E+01  0.61188995020E+00  0.71719102183E+01  0.11789717675E+02  0.51100000000E-03 0.  1.
         12    1    3    3    0    0  0.20002959723E+02  0.70461410697E+01  0.18739450394E+02  0.28300768589E+02  0.00000000000E+00 0. -1.
</event>
<event>
 7    1  0.5748623E-013  0.5052886E+02  0.7816164E-02  0.1300439E+00
        -11   -1    0    0    0    0  0.00000000000E+00  0.00000000000E+00  0.45593999997E+02  0.45594000000E+02  0.51100000000E-03 0.  1.
         11   -1    0    0    0    0 -0.00000000000E+00 -0.00000000000E+00 -0.45593999997E+02  0.45594000000E+02  0.51100000000E-03 0. -1.
    9900012    2    1    2    0    0 -0.26177396802E+02 -0.12870265806E+02  0.28324298964E+02  0.50528858875E+02  0.29999997036E+02 0.  0.
         12    1    1    2    0    0  0.26177396802E+02  0.12870265806E+02 -0.28324298964E+02  0.40659141125E+02  0.00000000000E+00 0. -1.
         11    1    3    3    0    0 -0.18440055235E+02 -0.17231701834E+00  0.13113737560E+02  0.22628200178E+02  0.51100000000E-03 0. -1.
        -11    1    3    3    0    0 -0.35697941102E+01 -0.16475944682E+02  0.77426402149E+01  0.18551244188E+02  0.51100000000E-03 0.  1.
        -12    1    3    3    0    0 -0.41675474568E+01  0.37779958946E+01  0.74679211887E+01  0.93494145092E+01  0.00000000000E+00 0.  1.
</event>
<event>
 7    1  0.5748623E-013  0.5052886E+02  0.7816164E-02  0.1300439E+00
        -11   -1    0    0    0    0  0.00000000000E+00  0.00000000000E+00  0.45593999997E+02  0.45594000000E+02  0.51100000000E-03 0.  1.
         11   -1    0    0    0    0 -0.00000000000E+00 -0.00000000000E+00 -0.45593999997E+02  0.45594000000E+02  0.51100000000E-03 0. -1.
    9900012    2    1    2    0    0 -0.31479831403E+02  0.69395529883E+01  0.24779596742E+02  0.50528860861E+02  0.30000003073E+02 0.  0.
         12    1    1    2    0    0  0.31479831403E+02 -0.69395529883E+01 -0.24779596742E+02  0.40659139139E+02  0.00000000000E+00 0. -1.
         11    1    3    3    0    0 -0.25310556683E+02  0.73250137962E+01  0.11986165255E+02  0.28947336052E+02  0.51100000000E-03 0. -1.
        -11    1    3    3    0    0 -0.30727583922E+01 -0.10714154661E+01  0.16434063603E+02  0.16753155584E+02  0.51100000000E-03 0.  1.
         12    1    3    3    0    0 -0.30965163280E+01  0.68595465830E+00 -0.36406321168E+01  0.48283692250E+01  0.00000000000E+00 0. -1.
</event>
<event>
 7    1  0.5748623E-013  0.5052889E+02  0.7816164E-02  0.1300439E+00
        -11   -1    0    0    0    0  0.00000000000E+00  0.00000000000E+00  0.45593999997E+02  0.45594000000E+02  0.51100000000E-03 0.  1.
         11   -1    0    0    0    0 -0.00000000000E+00 -0.00000000000E+00 -0.45593999997E+02  0.45594000000E+02  0.51100000000E-03 0. -1.
    9900012    2    1    2    0    0  0.13997915529E+02  0.22964143024E+02  0.30493765824E+02  0.50528889605E+02  0.30000090442E+02 0.  0.
         12    1    1    2    0    0 -0.13997915529E+02 -0.22964143024E+02 -0.30493765824E+02  0.40659110395E+02  0.00000000000E+00 0. -1.
         11    1    3    3    0    0 -0.49578842778E+01 -0.39473882730E+01  0.51874987891E+01  0.81897884367E+01  0.51100000000E-03 0. -1.
        -11    1    3    3    0    0  0.15321365340E+02  0.18767647485E+02  0.14151751121E+02  0.28057813315E+02  0.51100000000E-03 0.  1.
        -12    1    3    3    0    0  0.36344344675E+01  0.81438838129E+01  0.11154515914E+02  0.14281287853E+02  0.00000000000E+00 0.  1.
</event>
<event>
 7    1  0.5748623E-013  0.5052887E+02  0.7816164E-02  0.1300439E+00
        -11   -1    0    0    0    0  0.00000000000E+00  0.00000000000E+00  0.45593999997E+02  0.45594000000E+02  0.51100000000E-03 0. -1.
         11   -1    0    0    0    0 -0.00000000000E+00 -0.00000000000E+00 -0.45593999997E+02  0.45594000000E+02  0.51100000000E-03 0.  1.
    9900012    2    1    2    0    0 -0.28454104966E+02 -0.15831186894E+02 -0.24349587618E+02  0.50528868368E+02  0.30000025891E+02 0.  0.
         12    1    1    2    0    0  0.28454104966E+02  0.15831186894E+02  0.24349587618E+02  0.40659131632E+02  0.00000000000E+00 0. -1.
         11    1    3    3    0    0  0.19374436653E+01 -0.27035937217E+01 -0.98767700338E+01  0.10421789363E+02  0.51100000000E-03 0. -1.
        -11    1    3    3    0    0 -0.24748066941E+02 -0.15347446120E+02 -0.16791024948E+02  0.33614720567E+02  0.51100000000E-03 0.  1.
        -12    1    3    3    0    0 -0.56434816908E+01  0.22198529476E+01  0.23182073640E+01  0.64923584378E+01  0.00000000000E+00 0.  1.
</event>
<event>
 7    1  0.5748623E-013  0.5052885E+02  0.7816164E-02  0.1300439E+00
        -11   -1    0    0    0    0  0.00000000000E+00  0.00000000000E+00  0.45593999997E+02  0.45594000000E+02  0.51100000000E-03 0. -1.
         11   -1    0    0    0    0 -0.00000000000E+00 -0.00000000000E+00 -0.45593999997E+02  0.45594000000E+02  0.51100000000E-03 0.  1.
    9900012    2    1    2    0    0  0.34637193015E+02  0.16975492081E+02 -0.12855499521E+02  0.50528851715E+02  0.29999975273E+02 0.  0.
         12    1    1    2    0    0 -0.34637193015E+02 -0.16975492081E+02  0.12855499521E+02  0.40659148285E+02  0.00000000000E+00 0. -1.
         11    1    3    3    0    0 -0.50074257180E+01 -0.32515988191E+00 -0.17975065063E+01  0.53302036707E+01  0.51100000000E-03 0. -1.
        -11    1    3    3    0    0  0.10510074671E+02  0.16388418337E+01 -0.13267116213E+01  0.10719497942E+02  0.51100000000E-03 0.  1.
         12    1    3    3    0    0  0.29134544061E+02  0.15661810129E+02 -0.97312813933E+01  0.34479150102E+02  0.00000000000E+00 0. -1.
</event>
<event>
 7    1  0.5748623E-013  0.5052888E+02  0.7816164E-02  0.1300439E+00
        -11   -1    0    0    0    0  0.00000000000E+00  0.00000000000E+00  0.45593999997E+02  0.45594000000E+02  0.51100000000E-03 0.  1.
         11   -1    0    0    0    0 -0.00000000000E+00 -0.00000000000E+00 -0.45593999997E+02  0.45594000000E+02  0.51100000000E-03 0. -1.
    9900012    2    1    2    0    0 -0.83048571847E+01 -0.38422094329E+02  0.10389227274E+02  0.50528880127E+02  0.30000061633E+02 0.  0.
         12    1    1    2    0    0  0.83048571847E+01  0.38422094329E+02 -0.10389227274E+02  0.40659119873E+02  0.00000000000E+00 0. -1.
         11    1    3    3    0    0  0.60026802105E+01 -0.27416478268E+01 -0.17073179148E+01  0.68164314153E+01  0.51100000000E-03 0. -1.
        -11    1    3    3    0    0 -0.12958412386E+02 -0.37496095270E+02  0.10847113747E+02  0.41128305205E+02  0.51100000000E-03 0.  1.
        -12    1    3    3    0    0 -0.13491250087E+01  0.18156487678E+01  0.12494314418E+01  0.25841435070E+01  0.00000000000E+00 0.  1.
</event>
<event>
 7    1  0.5748623E-013  0.5052885E+02  0.7816164E-02  0.1300439E+00
        -11   -1    0    0    0    0  0.00000000000E+00  0.00000000000E+00  0.45593999997E+02  0.45594000000E+02  0.51100000000E-03 0. -1.
         11   -1    0    0    0    0 -0.00000000000E+00 -0.00000000000E+00 -0.45593999997E+02  0.45594000000E+02  0.51100000000E-03 0.  1.
    9900012    2    1    2    0    0  0.18217014154E+02  0.15969741777E+01 -0.36314685587E+02  0.50528851946E+02  0.29999975974E+02 0.  0.
         12    1    1    2    0    0 -0.18217014154E+02 -0.15969741777E+01  0.36314685587E+02  0.40659148054E+02  0.00000000000E+00 0. -1.
         11    1    3    3    0    0  0.13057133182E+02  0.36220877118E+00 -0.29256333286E+01  0.13385785474E+02  0.51100000000E-03 0. -1.
        -11    1    3    3    0    0  0.10814951095E+01  0.32060014993E+01 -0.32309803895E+02  0.32486481885E+02  0.51100000000E-03 0.  1.
        -12    1    3    3    0    0  0.40783858632E+01 -0.19712360927E+01 -0.10792483632E+01  0.46565845866E+01  0.00000000000E+00 0.  1.
</event>
<event>
 7    1  0.5748623E-013  0.5052886E+02  0.7816164E-02  0.1300439E+00
        -11   -1    0    0    0    0  0.00000000000E+00  0.00000000000E+00  0.45593999997E+02  0.45594000000E+02  0.51100000000E-03 0.  1.
         11   -1    0    0    0    0 -0.00000000000E+00 -0.00000000000E+00 -0.45593999997E+02  0.45594000000E+02  0.51100000000E-03 0. -1.
    9900012    2    1    2    0    0 -0.17115834780E+02  0.10665281388E+02  0.35305316755E+02  0.50528863038E+02  0.30000009690E+02 0.  0.
         12    1    1    2    0    0  0.17115834780E+02 -0.10665281388E+02 -0.35305316755E+02  0.40659136962E+02  0.00000000000E+00 0. -1.
         11    1    3    3    0    0 -0.40124235945E+01  0.10813245642E+02  0.39454090320E+01  0.12189834991E+02  0.51100000000E-03 0. -1.
        -11    1    3    3    0    0 -0.49407962150E+01 -0.29424610090E+01  0.28758267599E+02  0.29327589393E+02  0.51100000000E-03 0.  1.
        -12    1    3    3    0    0 -0.81626149706E+01  0.27944967548E+01  0.26016401239E+01  0.90114386535E+01  0.00000000000E+00 0.  1.
</event>
<event>
 7    1  0.5748623E-013  0.5052886E+02  0.7816164E-02  0.1300439E+00
        -11   -1    0    0    0    0  0.00000000000E+00  0.00000000000E+00  0.45593999997E+02  0.45594000000E+02  0.51100000000E-03 0.  1.
         11   -1    0    0    0    0 -0.00000000000E+00 -0.00000000000E+00 -0.45593999997E+02  0.45594000000E+02  0.51100000000E-03 0. -1.
    9900012    2    1    2    0    0 -0.86183687590E+01  0.37378486814E+02 -0.13481029673E+02  0.50528859359E+02  0.29999998509E+02 0.  0.
         12    1    1    2    0    0  0.86183687590E+01 -0.37378486814E+02  0.13481029673E+02  0.40659140641E+02  0.00000000000E+00 0. -1.
         11    1    3    3    0    0  0.72457126916E+01  0.12608727054E+02 -0.52266173159E+00  0.14551753361E+02  0.51100000000E-03 0. -1.
        -11    1    3    3    0    0 -0.15851701986E+02  0.27011020712E+02 -0.11989210546E+02  0.33535248107E+02  0.51100000000E-03 0.  1.
        -12    1    3    3    0    0 -0.12379464605E-01 -0.22412609524E+01 -0.96915739491E+00  0.24418578918E+01  0.00000000000E+00 0.  1.
</event>
<event>
 7    1  0.5748623E-013  0.5052885E+02  0.7816164E-02  0.1300439E+00
        -11   -1    0    0    0    0  0.00000000000E+00  0.00000000000E+00  0.45593999997E+02  0.45594000000E+02  0.51100000000E-03 0.  1.
         11   -1    0    0    0    0 -0.00000000000E+00 -0.00000000000E+00 -0.45593999997E+02  0.45594000000E+02  0.51100000000E-03 0. -1.
    9900012    2    1    2    0    0  0.36297039901E+02 -0.75091777393E+01  0.16712373480E+02  0.50528852404E+02  0.29999977367E+02 0.  0.
         12    1    1    2    0    0 -0.36297039901E+02  0.75091777393E+01 -0.16712373480E+02  0.40659147596E+02  0.00000000000E+00 0. -1.
         11    1    3    3    0    0 -0.42898032280E+01 -0.51709131753E+01  0.24126912994E+01  0.71387557998E+01  0.51100000000E-03 0. -1.
        -11    1    3    3    0    0  0.30881476432E+02 -0.36676511054E+01  0.11956280642E+02  0.33317711481E+02  0.51100000000E-03 0.  1.
         12    1    3    3    0    0  0.97053666972E+01  0.13293865414E+01  0.23434015388E+01  0.10072385123E+02  0.00000000000E+00 0. -1.
</event>
<event>
 7    1  0.5748623E-013  0.5052884E+02  0.7816164E-02  0.1300439E+00
        -11   -1    0    0    0    0  0.00000000000E+00  0.00000000000E+00  0.45593999997E+02  0.45594000000E+02  0.51100000000E-03 0.  1.
         11   -1    0    0    0    0 -0.00000000000E+00 -0.00000000000E+00 -0.45593999997E+02  0.45594000000E+02  0.51100000000E-03 0. -1.
    9900012    2    1    2    0    0 -0.71117050803E+01  0.31919586070E+02  0.24160523150E+02  0.50528841095E+02  0.29999942991E+02 0.  0.
         12    1    1    2    0    0  0.71117050803E+01 -0.31919586070E+02 -0.24160523150E+02  0.40659158905E+02  0.00000000000E+00 0. -1.
         11    1    3    3    0    0 -0.12767712875E+01  0.95311920274E+01 -0.14214521353E+00  0.96173786401E+01  0.51100000000E-03 0. -1.
        -11    1    3    3    0    0  0.43648788609E+01 -0.31685918466E+01  0.39719526420E+01  0.66983990484E+01  0.51100000000E-03 0.  1.
        -12    1    3    3    0    0 -0.10199812654E+02  0.25556985889E+02  0.20330715721E+02  0.34213063406E+02  0.00000000000E+00 0.  1.
</event>
<event>
 7    1  0.5748623E-013  0.5052885E+02  0.7816164E-02  0.1300439E+00
        -11   -1    0    0    0    0  0.00000000000E+00  0.00000000000E+00  0.45593999997E+02  0.45594000000E+02  0.51100000000E-03 0. -1.
         11   -1    0    0    0    0 -0.00000000000E+00 -0.00000000000E+00 -0.45593999997E+02  0.45594000000E+02  0.51100000000E-03 0.  1.
    9900012    2    1    2    0    0 -0.29267467064E+02  0.89794176161E+01 -0.26757278734E+02  0.50528849316E+02  0.29999967981E+02 0.  0.
         12    1    1    2    0    0  0.29267467064E+02 -0.89794176161E+01  0.26757278734E+02  0.40659150684E+02  0.00000000000E+00 0. -1.
         11    1    3    3    0    0  0.13091085705E+01  0.10861764238E+01  0.17367699026E+01  0.24310315565E+01  0.51100000000E-03 0. -1.
        -11    1    3    3    0    0 -0.24736951213E+02 -0.10051812528E+01 -0.28095243574E+02  0.37446893815E+02  0.51100000000E-03 0.  1.
        -12    1    3    3    0    0 -0.58396244220E+01  0.88984224450E+01 -0.39880506301E+00  0.10650923945E+02  0.00000000000E+00 0.  1.
</event>
<event>
 7    1  0.5748623E-013  0.5052885E+02  0.7816164E-02  0.1300439E+00
        -11   -1    0    0    0    0  0.00000000000E+00  0.00000000000E+00  0.45593999997E+02  0.45594000000E+02  0.51100000000E-03 0.  1.
         11   -1    0    0    0    0 -0.00000000000E+00 -0.00000000000E+00 -0.45593999997E+02  0.45594000000E+02  0.51100000000E-03 0. -1.
    9900012    2    1    2    0    0  0.92779558084E+01  0.38726138586E+02  0.82080697584E+01  0.50528847489E+02  0.29999962428E+02 0.  0.
         12    1    1    2    0    0 -0.92779558084E+01 -0.38726138586E+02 -0.82080697584E+01  0.40659152511E+02  0.00000000000E+00 0. -1.
         11    1    3    3    0    0  0.28578525124E+01  0.10072702680E+02 -0.21150604611E+01  0.10681766768E+02  0.51100000000E-03 0. -1.
        -11    1    3    3    0    0  0.54185043242E+01  0.13239564158E+02  0.17676295450E+02  0.22739781646E+02  0.51100000000E-03 0.  1.
        -12    1    3    3    0    0  0.10015989718E+01  0.15413871748E+02 -0.73531652303E+01  0.17107299076E+02  0.00000000000E+00 0.  1.
</event>
<event>
 7    1  0.5748623E-013  0.5052887E+02  0.7816164E-02  0.1300439E+00
        -11   -1    0    0    0    0  0.00000000000E+00  0.00000000000E+00  0.45593999997E+02  0.45594000000E+02  0.51100000000E-03 0.  1.
         11   -1    0    0    0    0 -0.00000000000E+00 -0.00000000000E+00 -0.45593999997E+02  0.45594000000E+02  0.51100000000E-03 0. -1.
    9900012    2    1    2    0    0 -0.19516024800E+02 -0.27741906152E+02  0.22420439717E+02  0.50528871898E+02  0.30000036621E+02 0.  0.
         12    1    1    2    0    0  0.19516024800E+02  0.27741906152E+02 -0.22420439717E+02  0.40659128102E+02  0.00000000000E+00 0. -1.
         11    1    3    3    0    0 -0.12877917568E+02 -0.21432295062E+02  0.19896345686E+01  0.25082716729E+02  0.51100000000E-03 0. -1.
        -11    1    3    3    0    0 -0.60758128023E+01  0.13300484438E+01  0.14436334931E+02  0.15719169717E+02  0.51100000000E-03 0.  1.
        -12    1    3    3    0    0 -0.56229442937E+00 -0.76396595337E+01  0.59944702167E+01  0.97269854526E+01  0.00000000000E+00 0.  1.
</event>
<event>
 7    1  0.5748623E-013  0.5052886E+02  0.7816164E-02  0.1300439E+00
        -11   -1    0    0    0    0  0.00000000000E+00  0.00000000000E+00  0.45593999997E+02  0.45594000000E+02  0.51100000000E-03 0.  1.
         11   -1    0    0    0    0 -0.00000000000E+00 -0.00000000000E+00 -0.45593999997E+02  0.45594000000E+02  0.51100000000E-03 0. -1.
    9900012    2    1    2    0    0 -0.28102717403E+02  0.77732599184E+01  0.28336887371E+02  0.50528862269E+02  0.30000007351E+02 0.  0.
         12    1    1    2    0    0  0.28102717403E+02 -0.77732599184E+01 -0.28336887371E+02  0.40659137731E+02  0.00000000000E+00 0. -1.
         11    1    3    3    0    0 -0.84441748677E+01  0.21472870075E+01  0.15919906385E+02  0.18148232703E+02  0.51100000000E-03 0. -1.
        -11    1    3    3    0    0  0.45218764073E+00  0.13529150608E+01 -0.51463894093E+01  0.53404285443E+01  0.51100000000E-03 0.  1.
        -12    1    3    3    0    0 -0.20110730176E+02  0.42730578501E+01  0.17563370396E+02  0.27040201021E+02  0.00000000000E+00 0.  1.
</event>
<event>
 7    1  0.5748623E-013  0.5052885E+02  0.7816164E-02  0.1300439E+00
        -11   -1    0    0    0    0  0.00000000000E+00  0.00000000000E+00  0.45593999997E+02  0.45594000000E+02  0.51100000000E-03 0. -1.
         11   -1    0    0    0    0 -0.00000000000E+00 -0.00000000000E+00 -0.45593999997E+02  0.45594000000E+02  0.51100000000E-03 0.  1.
    9900012    2    1    2    0    0  0.35251678028E+02  0.18487666067E+02  0.82880805831E+01  0.50528845063E+02  0.29999955055E+02 0.  0.
         12    1    1    2    0    0 -0.35251678028E+02 -0.18487666067E+02 -0.82880805831E+01  0.40659154937E+02  0.00000000000E+00 0. -1.
         11    1    3    3    0    0  0.16687629952E+02  0.87323837975E+01  0.15967684877E+02  0.24692073238E+02  0.51100000000E-03 0. -1.
        -11    1    3    3    0    0  0.39231017487E+01  0.88347529293E+01 -0.10013678286E+01  0.97183498827E+01  0.51100000000E-03 0.  1.
         12    1    3    3    0    0  0.14640946328E+02  0.92052933987E+00 -0.66782364654E+01  0.16118421943E+02  0.00000000000E+00 0. -1.
</event>
<event>
 7    1  0.5748623E-013  0.5052887E+02  0.7816164E-02  0.1300439E+00
        -11   -1    0    0    0    0  0.00000000000E+00  0.00000000000E+00  0.45593999997E+02  0.45594000000E+02  0.51100000000E-03 0.  1.
         11   -1    0    0    0    0 -0.00000000000E+00 -0.00000000000E+00 -0.45593999997E+02  0.45594000000E+02  0.51100000000E-03 0. -1.
    9900012    2    1    2    0    0 -0.10149992514E+02  0.14488082917E+02  0.36609260087E+02  0.50528870413E+02  0.30000032108E+02 0.  0.
         12    1    1    2    0    0  0.10149992514E+02 -0.14488082917E+02 -0.36609260087E+02  0.40659129587E+02  0.00000000000E+00 0. -1.
         11    1    3    3    0    0 -0.54515880375E+01 -0.19967938673E+01  0.19968704106E+02  0.20795579863E+02  0.51100000000E-03 0. -1.
        -11    1    3    3    0    0 -0.43124236917E+01  0.19059198463E+02  0.18195882146E+02  0.26700939524E+02  0.51100000000E-03 0.  1.
         12    1    3    3    0    0 -0.38598078486E+00 -0.25743216781E+01 -0.15553261651E+01  0.30323510266E+01  0.00000000000E+00 0. -1.
</event>
<event>
 7    1  0.5748623E-013  0.5052889E+02  0.7816164E-02  0.1300439E+00
        -11   -1    0    0    0    0  0.00000000000E+00  0.00000000000E+00  0.45593999997E+02  0.45594000000E+02  0.51100000000E-03 0. -1.
         11   -1    0    0    0    0 -0.00000000000E+00 -0.00000000000E+00 -0.45593999997E+02  0.45594000000E+02  0.51100000000E-03 0.  1.
    9900012    2    1    2    0    0 -0.26945759203E+02  0.13141622190E+02 -0.27466104161E+02  0.50528892157E+02  0.30000098201E+02 0.  0.
         12    1    1    2    0    0  0.26945759203E+02 -0.13141622190E+02  0.27466104161E+02  0.40659107843E+02  0.00000000000E+00 0. -1.
         11    1    3    3    0    0 -0.37047362424E+01  0.14414917796E+02 -0.15941203967E+02  0.21809101537E+02  0.51100000000E-03 0. -1.
        -11    1    3    3    0    0 -0.82194020871E+01 -0.37815544374E+01 -0.98877217381E+01  0.13402453733E+02  0.51100000000E-03 0.  1.
        -12    1    3    3    0    0 -0.15021620873E+02  0.25082588314E+01 -0.16371784563E+01  0.15317336887E+02  0.00000000000E+00 0.  1.
</event>
<event>
 7    1  0.5748623E-013  0.5052888E+02  0.7816164E-02  0.1300439E+00
        -11   -1    0    0    0    0  0.00000000000E+00  0.00000000000E+00  0.45593999997E+02  0.45594000000E+02  0.51100000000E-03 0. -1.
         11   -1    0    0    0    0 -0.00000000000E+00 -0.00000000000E+00 -0.45593999997E+02  0.45594000000E+02  0.51100000000E-03 0.  1.
    9900012    2    1    2    0    0  0.30803327708E+02  0.15554789786E+02 -0.21502739747E+02  0.50528876795E+02  0.30000051507E+02 0.  0.
         12    1    1    2    0    0 -0.30803327708E+02 -0.15554789786E+02  0.21502739747E+02  0.40659123205E+02  0.00000000000E+00 0. -1.
         11    1    3    3    0    0  0.51999617103E+01  0.90668982199E+01 -0.38442912111E+01  0.11136732927E+02  0.51100000000E-03 0. -1.
        -11    1    3    3    0    0  0.24836911197E+02 -0.30940257054E+01 -0.94557351017E+01  0.26755486903E+02  0.51100000000E-03 0.  1.
        -12    1    3    3    0    0  0.76645480071E+00  0.95819172713E+01 -0.82027134343E+01  0.12636656965E+02  0.00000000000E+00 0.  1.
</event>
<event>
 7    1  0.5748623E-013  0.5052886E+02  0.7816164E-02  0.1300439E+00
        -11   -1    0    0    0    0  0.00000000000E+00  0.00000000000E+00  0.45593999997E+02  0.45594000000E+02  0.51100000000E-03 0. -1.
         11   -1    0    0    0    0 -0.00000000000E+00 -0.00000000000E+00 -0.45593999997E+02  0.45594000000E+02  0.51100000000E-03 0.  1.
    9900012    2    1    2    0    0  0.28075178687E+01 -0.35345554962E+02 -0.19899127069E+02  0.50528859942E+02  0.30000000280E+02 0.  0.
         12    1    1    2    0    0 -0.28075178687E+01  0.35345554962E+02  0.19899127069E+02  0.40659140058E+02  0.00000000000E+00 0. -1.
         11    1    3    3    0    0  0.30921165495E+01  0.35109798440E+01 -0.33830095593E+01  0.57734667367E+01  0.51100000000E-03 0. -1.
        -11    1    3    3    0    0 -0.72503316760E+01 -0.23718910525E+02 -0.81303160559E+01  0.26100882463E+02  0.51100000000E-03 0.  1.
         12    1    3    3    0    0  0.69657329952E+01 -0.15137624281E+02 -0.83858014535E+01  0.18654510743E+02  0.00000000000E+00 0. -1.
</event>
<event>
 7    1  0.5748623E-013  0.5052890E+02  0.7816164E-02  0.1300439E+00
        -11   -1    0    0    0    0  0.00000000000E+00  0.00000000000E+00  0.45593999997E+02  0.45594000000E+02  0.51100000000E-03 0.  1.
         11   -1    0    0    0    0 -0.00000000000E+00 -0.00000000000E+00 -0.45593999997E+02  0.45594000000E+02  0.51100000000E-03 0. -1.
    9900012    2    1    2    0    0 -0.38704464141E+01  0.38247282958E+02  0.13241116638E+02  0.50528902876E+02  0.30000130781E+02 0.  0.
         12    1    1    2    0    0  0.38704464141E+01 -0.38247282958E+02 -0.13241116638E+02  0.40659097124E+02  0.00000000000E+00 0. -1.
         11    1    3    3    0    0 -0.11453792416E+00 -0.91340321251E+00  0.26555262244E+01  0.28105594023E+01  0.51100000000E-03 0. -1.
        -11    1    3    3    0    0 -0.72101317468E+01  0.40233752113E+02  0.13528486803E+02  0.43055322137E+02  0.51100000000E-03 0.  1.
        -12    1    3    3    0    0  0.34542232568E+01 -0.10730659425E+01 -0.29428963892E+01  0.46630213363E+01  0.00000000000E+00 0.  1.
</event>
<event>
 7    1  0.5748623E-013  0.5052886E+02  0.7816164E-02  0.1300439E+00
        -11   -1    0    0    0    0  0.00000000000E+00  0.00000000000E+00  0.45593999997E+02  0.45594000000E+02  0.51100000000E-03 0.  1.
         11   -1    0    0    0    0 -0.00000000000E+00 -0.00000000000E+00 -0.45593999997E+02  0.45594000000E+02  0.51100000000E-03 0. -1.
    9900012    2    1    2    0    0  0.12664249010E+02 -0.27022009650E+02  0.27615099846E+02  0.50528856526E+02  0.29999989897E+02 0.  0.
         12    1    1    2    0    0 -0.12664249010E+02  0.27022009650E+02 -0.27615099846E+02  0.40659143474E+02  0.00000000000E+00 0. -1.
         11    1    3    3    0    0  0.12714011083E+02 -0.16050913512E+01  0.15524560118E+02  0.20130433755E+02  0.51100000000E-03 0.  1.
        -11    1    3    3    0    0 -0.57183924389E+01 -0.11525230560E+02  0.61691583641E+01  0.14268478081E+02  0.51100000000E-03 0. -1.
        -12    1    3    3    0    0  0.56686303657E+01 -0.13891687739E+02  0.59213813642E+01  0.16129944690E+02  0.00000000000E+00 0.  1.
</event>
<event>
 7    1  0.5748623E-013  0.5052886E+02  0.7816164E-02  0.1300439E+00
        -11   -1    0    0    0    0  0.00000000000E+00  0.00000000000E+00  0.45593999997E+02  0.45594000000E+02  0.51100000000E-03 0.  1.
         11   -1    0    0    0    0 -0.00000000000E+00 -0.00000000000E+00 -0.45593999997E+02  0.45594000000E+02  0.51100000000E-03 0. -1.
    9900012    2    1    2    0    0 -0.20280223640E+00  0.17810390219E+01  0.40619610431E+02  0.50528856129E+02  0.29999988689E+02 0.  0.
         12    1    1    2    0    0  0.20280223640E+00 -0.17810390219E+01 -0.40619610431E+02  0.40659143871E+02  0.00000000000E+00 0. -1.
         11    1    3    3    0    0  0.22994848762E+01  0.55560331467E-01 -0.42809011125E+01  0.48597152430E+01  0.51100000000E-03 0. -1.
        -11    1    3    3    0    0 -0.50297388816E+01  0.10994808911E+01  0.36852374562E+02  0.37210276035E+02  0.51100000000E-03 0.  1.
        -12    1    3    3    0    0  0.25274517690E+01  0.62599779931E+00  0.80481369819E+01  0.84588648511E+01  0.00000000000E+00 0.  1.
</event>
<event>
 7    1  0.5748623E-013  0.5052888E+02  0.7816164E-02  0.1300439E+00
        -11   -1    0    0    0    0  0.00000000000E+00  0.00000000000E+00  0.45593999997E+02  0.45594000000E+02  0.51100000000E-03 0.  1.
         11   -1    0    0    0    0 -0.00000000000E+00 -0.00000000000E+00 -0.45593999997E+02  0.45594000000E+02  0.51100000000E-03 0. -1.
    9900012    2    1    2    0    0 -0.29415095744E+02  0.26144823683E+02  0.10215890185E+02  0.50528879556E+02  0.30000059898E+02 0.  0.
         12    1    1    2    0    0  0.29415095744E+02 -0.26144823683E+02 -0.10215890185E+02  0.40659120444E+02  0.00000000000E+00 0. -1.
         11    1    3    3    0    0 -0.13718385556E+02 -0.11315041516E+01  0.68895505860E+01  0.15392865602E+02  0.51100000000E-03 0. -1.
        -11    1    3    3    0    0 -0.13763267085E+02  0.15208801802E+02 -0.39838833841E+01  0.20895131016E+02  0.51100000000E-03 0.  1.
         12    1    3    3    0    0 -0.19334431027E+01  0.12067526033E+02  0.73102229833E+01  0.14240882938E+02  0.00000000000E+00 0. -1.
</event>
<event>
 7    1  0.5748623E-013  0.5052879E+02  0.7816164E-02  0.1300439E+00
        -11   -1    0    0    0    0  0.00000000000E+00  0.00000000000E+00  0.45593999997E+02  0.45594000000E+02  0.51100000000E-03 0. -1.
         11   -1    0    0    0    0 -0.00000000000E+00 -0.00000000000E+00 -0.45593999997E+02  0.45594000000E+02  0.51100000000E-03 0.  1.
    9900012    2    1    2    0    0  0.14057920300E+02  0.36377495780E+02 -0.11498879795E+02  0.50528787527E+02  0.29999780167E+02 0.  0.
         12    1    1    2    0    0 -0.14057920300E+02 -0.36377495780E+02  0.11498879795E+02  0.40659212473E+02  0.00000000000E+00 0. -1.
         11    1    3    3    0    0 -0.27280480645E+01  0.14082321170E+02 -0.57549562512E+01  0.15455534203E+02  0.51100000000E-03 0. -1.
        -11    1    3    3    0    0  0.90699205049E+01 -0.16877941460E+01  0.33336167187E-01  0.92256825550E+01  0.51100000000E-03 0.  1.
        -12    1    3    3    0    0  0.77160478601E+01  0.23982968756E+02 -0.57772597107E+01  0.25847570770E+02  0.00000000000E+00 0.  1.
</event>
<event>
 7    1  0.5748623E-013  0.5052887E+02  0.7816164E-02  0.1300439E+00
        -11   -1    0    0    0    0  0.00000000000E+00  0.00000000000E+00  0.45593999997E+02  0.45594000000E+02  0.51100000000E-03 0. -1.
         11   -1    0    0    0    0 -0.00000000000E+00 -0.00000000000E+00 -0.45593999997E+02  0.45594000000E+02  0.51100000000E-03 0.  1.
    9900012    2    1    2    0    0  0.12047405666E+01  0.36612599151E+02 -0.17641746655E+02  0.50528867675E+02  0.30000023784E+02 0.  0.
         12    1    1    2    0    0 -0.12047405666E+01 -0.36612599151E+02  0.17641746655E+02  0.40659132325E+02  0.00000000000E+00 0. -1.
         11    1    3    3    0    0 -0.45507392645E+01  0.83098319704E+01  0.57150823339E+01  0.11064569652E+02  0.51100000000E-03 0. -1.
        -11    1    3    3    0    0 -0.42836460462E+01  0.95675382247E+01 -0.64833553622E+01  0.12325636217E+02  0.51100000000E-03 0.  1.
         12    1    3    3    0    0  0.10039125877E+02  0.18735228956E+02 -0.16873473627E+02  0.27138661806E+02  0.00000000000E+00 0. -1.
</event>
<event>
 7    1  0.5748623E-013  0.5052890E+02  0.7816164E-02  0.1300439E+00
        -11   -1    0    0    0    0  0.00000000000E+00  0.00000000000E+00  0.45593999997E+02  0.45594000000E+02  0.51100000000E-03 0.  1.
         11   -1    0    0    0    0 -0.00000000000E+00 -0.00000000000E+00 -0.45593999997E+02  0.45594000000E+02  0.51100000000E-03 0. -1.
    9900012    2    1    2    0    0  0.70346037808E+01 -0.79999937314E+01  0.39238718889E+02  0.50528897574E+02  0.30000114664E+02 0.  0.
         12    1    1    2    0    0 -0.70346037808E+01  0.79999937314E+01 -0.39238718889E+02  0.40659102426E+02  0.00000000000E+00 0. -1.
         11    1    3    3    0    0  0.63613357635E+01  0.46866620231E+01  0.76233075718E+01  0.10979353907E+02  0.51100000000E-03 0. -1.
        -11    1    3    3    0    0 -0.51945294529E+01 -0.15878313860E+02  0.19196074192E+02  0.25447853582E+02  0.51100000000E-03 0.  1.
        -12    1    3    3    0    0  0.58677974702E+01  0.31916581056E+01  0.12419337126E+02  0.14101690085E+02  0.00000000000E+00 0.  1.
</event>
<event>
 7    1  0.5748623E-013  0.5052886E+02  0.7816164E-02  0.1300439E+00
        -11   -1    0    0    0    0  0.00000000000E+00  0.00000000000E+00  0.45593999997E+02  0.45594000000E+02  0.51100000000E-03 0.  1.
         11   -1    0    0    0    0 -0.00000000000E+00 -0.00000000000E+00 -0.45593999997E+02  0.45594000000E+02  0.51100000000E-03 0. -1.
    9900012    2    1    2    0    0 -0.25048626187E+02  0.20266867555E+01  0.31962862828E+02  0.50528859168E+02  0.29999997926E+02 0.  0.
         12    1    1    2    0    0  0.25048626187E+02 -0.20266867555E+01 -0.31962862828E+02  0.40659140832E+02  0.00000000000E+00 0. -1.
         11    1    3    3    0    0 -0.11640858212E+02 -0.48650126886E+01 -0.19185766950E+01  0.12761616871E+02  0.51100000000E-03 0. -1.
        -11    1    3    3    0    0 -0.25574298677E+01  0.12786886922E+01  0.16564796644E+01  0.33044541818E+01  0.51100000000E-03 0.  1.
         12    1    3    3    0    0 -0.10850338108E+02  0.56130107519E+01  0.32224959859E+02  0.34462788115E+02  0.00000000000E+00 0. -1.
</event>
<event>
 7    1  0.5748623E-013  0.5052887E+02  0.7816164E-02  0.1300439E+00
        -11   -1    0    0    0    0  0.00000000000E+00  0.00000000000E+00  0.45593999997E+02  0.45594000000E+02  0.51100000000E-03 0.  1.
         11   -1    0    0    0    0 -0.00000000000E+00 -0.00000000000E+00 -0.45593999997E+02  0.45594000000E+02  0.51100000000E-03 0. -1.
    9900012    2    1    2    0    0  0.26304961009E+02 -0.11645827501E+01  0.30981565782E+02  0.50528872550E+02  0.30000038604E+02 0.  0.
         12    1    1    2    0    0 -0.26304961009E+02  0.11645827501E+01 -0.30981565782E+02  0.40659127450E+02  0.00000000000E+00 0. -1.
         11    1    3    3    0    0  0.15741270846E+02  0.68172605758E+01  0.92505553140E+01  0.19489366934E+02  0.51100000000E-03 0.  1.
        -11    1    3    3    0    0  0.14513411792E+02 -0.92691453968E+01  0.20357142789E+02  0.26664010221E+02  0.51100000000E-03 0. -1.
         12    1    3    3    0    0 -0.39497216284E+01  0.12873020710E+01  0.13738676784E+01  0.43754953961E+01  0.00000000000E+00 0. -1.
</event>
<event>
 7    1  0.5748623E-013  0.5052887E+02  0.7816164E-02  0.1300439E+00
        -11   -1    0    0    0    0  0.00000000000E+00  0.00000000000E+00  0.45593999997E+02  0.45594000000E+02  0.51100000000E-03 0.  1.
         11   -1    0    0    0    0 -0.00000000000E+00 -0.00000000000E+00 -0.45593999997E+02  0.45594000000E+02  0.51100000000E-03 0. -1.
    9900012    2    1    2    0    0 -0.29565647927E+02  0.15600317335E+02  0.23144487880E+02  0.50528871166E+02  0.30000034395E+02 0.  0.
         12    1    1    2    0    0  0.29565647927E+02 -0.15600317335E+02 -0.23144487880E+02  0.40659128834E+02  0.00000000000E+00 0. -1.
         11    1    3    3    0    0 -0.53152390189E+01  0.12186319579E+02  0.17848079237E+01  0.13414309162E+02  0.51100000000E-03 0. -1.
        -11    1    3    3    0    0 -0.92795166521E+01 -0.49882536973E+01  0.15949138051E+02  0.19114578444E+02  0.51100000000E-03 0.  1.
         12    1    3    3    0    0 -0.14970892256E+02  0.84022514532E+01  0.54105419054E+01  0.17999983559E+02  0.00000000000E+00 0. -1.
</event>
<event>
 7    1  0.5748623E-013  0.5052884E+02  0.7816164E-02  0.1300439E+00
        -11   -1    0    0    0    0  0.00000000000E+00  0.00000000000E+00  0.45593999997E+02  0.45594000000E+02  0.51100000000E-03 0.  1.
         11   -1    0    0    0    0 -0.00000000000E+00 -0.00000000000E+00 -0.45593999997E+02  0.45594000000E+02  0.51100000000E-03 0. -1.
    9900012    2    1    2    0    0 -0.29037255185E+02 -0.28104905285E+02  0.44854318964E+01  0.50528843724E+02  0.29999950984E+02 0.  0.
         12    1    1    2    0    0  0.29037255185E+02  0.28104905285E+02 -0.44854318964E+01  0.40659156276E+02  0.00000000000E+00 0. -1.
         11    1    3    3    0    0  0.22791320000E-01 -0.80912804342E+01  0.68775240837E+01  0.10619306771E+02  0.51100000000E-03 0. -1.
        -11    1    3    3    0    0 -0.26397134931E+02 -0.22676428901E+02 -0.52345911069E+01  0.35191335647E+02  0.51100000000E-03 0.  1.
        -12    1    3    3    0    0 -0.26629115738E+01  0.26628040502E+01  0.28424989196E+01  0.47182013064E+01  0.00000000000E+00 0.  1.
</event>
<event>
 7    1  0.5748623E-013  0.5052885E+02  0.7816164E-02  0.1300439E+00
        -11   -1    0    0    0    0  0.00000000000E+00  0.00000000000E+00  0.45593999997E+02  0.45594000000E+02  0.51100000000E-03 0. -1.
         11   -1    0    0    0    0 -0.00000000000E+00 -0.00000000000E+00 -0.45593999997E+02  0.45594000000E+02  0.51100000000E-03 0.  1.
    9900012    2    1    2    0    0  0.34727621401E+02  0.21113297812E+02 -0.11778330761E+01  0.50528851910E+02  0.29999975866E+02 0.  0.
         12    1    1    2    0    0 -0.34727621401E+02 -0.21113297812E+02  0.11778330761E+01  0.40659148090E+02  0.00000000000E+00 0. -1.
         11    1    3    3    0    0  0.17707590459E+02  0.41379575180E+01 -0.56470788228E+01  0.19041295958E+02  0.51100000000E-03 0. -1.
        -11    1    3    3    0    0 -0.35472964968E+01 -0.79741192318E+00  0.21080528069E+01  0.42027449493E+01  0.51100000000E-03 0.  1.
        -12    1    3    3    0    0  0.20567327439E+02  0.17772752217E+02  0.23611929398E+01  0.27284811002E+02  0.00000000000E+00 0.  1.
</event>
<event>
 7    1  0.5748623E-013  0.5052886E+02  0.7816164E-02  0.1300439E+00
        -11   -1    0    0    0    0  0.00000000000E+00  0.00000000000E+00  0.45593999997E+02  0.45594000000E+02  0.51100000000E-03 0.  1.
         11   -1    0    0    0    0 -0.00000000000E+00 -0.00000000000E+00 -0.45593999997E+02  0.45594000000E+02  0.51100000000E-03 0. -1.
    9900012    2    1    2    0    0 -0.17662946843E+02  0.61592492587E+01 -0.36100551984E+02  0.50528857164E+02  0.29999991836E+02 0.  0.
         12    1    1    2    0    0  0.17662946843E+02 -0.61592492587E+01  0.36100551984E+02  0.40659142836E+02  0.00000000000E+00 0. -1.
         11    1    3    3    0    0 -0.59761648657E+01 -0.11112601625E+02 -0.17384613496E+02  0.21480904265E+02  0.51100000000E-03 0. -1.
        -11    1    3    3    0    0 -0.86170971213E+01  0.70978724085E+01 -0.12402622645E+02  0.16687096939E+02  0.51100000000E-03 0.  1.
         12    1    3    3    0    0 -0.30696848559E+01  0.10173978475E+02 -0.63133158426E+01  0.12360855960E+02  0.00000000000E+00 0. -1.
</event>
<event>
 7    1  0.5748623E-013  0.5052885E+02  0.7816164E-02  0.1300439E+00
        -11   -1    0    0    0    0  0.00000000000E+00  0.00000000000E+00  0.45593999997E+02  0.45594000000E+02  0.51100000000E-03 0. -1.
         11   -1    0    0    0    0 -0.00000000000E+00 -0.00000000000E+00 -0.45593999997E+02  0.45594000000E+02  0.51100000000E-03 0.  1.
    9900012    2    1    2    0    0 -0.17333614467E+02 -0.22247828675E+02 -0.29287304845E+02  0.50528852243E+02  0.29999976878E+02 0.  0.
         12    1    1    2    0    0  0.17333614467E+02  0.22247828675E+02  0.29287304845E+02  0.40659147757E+02  0.00000000000E+00 0. -1.
         11    1    3    3    0    0 -0.20802450988E+01  0.37451270648E+01 -0.78096911646E+01  0.89075626717E+01  0.51100000000E-03 0. -1.
        -11    1    3    3    0    0 -0.34728802946E+01 -0.10698331898E+02  0.17878145294E+01  0.11389094959E+02  0.51100000000E-03 0.  1.
        -12    1    3    3    0    0 -0.11780489074E+02 -0.15294623842E+02 -0.23265428210E+02  0.30232194612E+02  0.00000000000E+00 0.  1.
</event>
<event>
 7    1  0.5748623E-013  0.5052886E+02  0.7816164E-02  0.1300439E+00
        -11   -1    0    0    0    0  0.00000000000E+00  0.00000000000E+00  0.45593999997E+02  0.45594000000E+02  0.51100000000E-03 0.  1.
         11   -1    0    0    0    0 -0.00000000000E+00 -0.00000000000E+00 -0.45593999997E+02  0.45594000000E+02  0.51100000000E-03 0. -1.
    9900012    2    1    2    0    0 -0.34253163814E+02 -0.49614087514E+01  0.21337075386E+02  0.50528860878E+02  0.30000003126E+02 0.  0.
         12    1    1    2    0    0  0.34253163814E+02  0.49614087514E+01 -0.21337075386E+02  0.40659139122E+02  0.00000000000E+00 0. -1.
         11    1    3    3    0    0 -0.20333935199E+01 -0.72128824282E+01 -0.13783277987E+01  0.76197211177E+01  0.51100000000E-03 0. -1.
        -11    1    3    3    0    0 -0.25395586212E+02 -0.34716158140E+01  0.22330131721E+02  0.33994450994E+02  0.51100000000E-03 0.  1.
        -12    1    3    3    0    0 -0.68241840819E+01  0.57230894908E+01  0.38527146342E+00  0.89146887665E+01  0.00000000000E+00 0.  1.
</event>
<event>
 7    1  0.5748623E-013  0.5052886E+02  0.7816164E-02  0.1300439E+00
        -11   -1    0    0    0    0  0.00000000000E+00  0.00000000000E+00  0.45593999997E+02  0.45594000000E+02  0.51100000000E-03 0.  1.
         11   -1    0    0    0    0 -0.00000000000E+00 -0.00000000000E+00 -0.45593999997E+02  0.45594000000E+02  0.51100000000E-03 0. -1.
    9900012    2    1    2    0    0 -0.16891077367E+02  0.20623268069E+02  0.30700785046E+02  0.50528857327E+02  0.29999992330E+02 0.  0.
         12    1    1    2    0    0  0.16891077367E+02 -0.20623268069E+02 -0.30700785046E+02  0.40659142673E+02  0.00000000000E+00 0. -1.
         11    1    3    3    0    0 -0.52068853317E+01  0.12362978588E+02  0.12450582179E+01  0.13472381551E+02  0.51100000000E-03 0. -1.
        -11    1    3    3    0    0 -0.99996172392E+01  0.13595956085E+02  0.22631509442E+02  0.28231677008E+02  0.51100000000E-03 0.  1.
         12    1    3    3    0    0 -0.16845747961E+01 -0.53356666040E+01  0.68242173869E+01  0.88247987681E+01  0.00000000000E+00 0. -1.
</event>
<event>
 7    1  0.5748623E-013  0.5052886E+02  0.7816164E-02  0.1300439E+00
        -11   -1    0    0    0    0  0.00000000000E+00  0.00000000000E+00  0.45593999997E+02  0.45594000000E+02  0.51100000000E-03 0.  1.
         11   -1    0    0    0    0 -0.00000000000E+00 -0.00000000000E+00 -0.45593999997E+02  0.45594000000E+02  0.51100000000E-03 0. -1.
    9900012    2    1    2    0    0  0.37675650890E+02 -0.33420405898E+01  0.14917820741E+02  0.50528864730E+02  0.30000014833E+02 0.  0.
         12    1    1    2    0    0 -0.37675650890E+02  0.33420405898E+01 -0.14917820741E+02  0.40659135270E+02  0.00000000000E+00 0. -1.
         11    1    3    3    0    0  0.29929167933E+01  0.18203754074E+01  0.16487301731E+01  0.38716442244E+01  0.51100000000E-03 0.  1.
        -11    1    3    3    0    0  0.19481578601E+02  0.10972519147E+02  0.88868183500E+01  0.24060416079E+02  0.51100000000E-03 0. -1.
        -12    1    3    3    0    0  0.15201155495E+02 -0.16134935144E+02  0.43822722177E+01  0.22596804426E+02  0.00000000000E+00 0.  1.
</event>
<event>
 7    1  0.5748623E-013  0.5052893E+02  0.7816164E-02  0.1300439E+00
        -11   -1    0    0    0    0  0.00000000000E+00  0.00000000000E+00  0.45593999997E+02  0.45594000000E+02  0.51100000000E-03 0. -1.
         11   -1    0    0    0    0 -0.00000000000E+00 -0.00000000000E+00 -0.45593999997E+02  0.45594000000E+02  0.51100000000E-03 0.  1.
    9900012    2    1    2    0    0 -0.75673905791E+01 -0.18727779045E+02 -0.35286895378E+02  0.50528928521E+02  0.30000208731E+02 0.  0.
         12    1    1    2    0    0  0.75673905791E+01  0.18727779045E+02  0.35286895378E+02  0.40659071479E+02  0.00000000000E+00 0. -1.
         11    1    3    3    0    0 -0.80341005695E+01 -0.95287577726E+00  0.11632749773E+01  0.81736132244E+01  0.51100000000E-03 0. -1.
        -11    1    3    3    0    0 -0.26483229260E+01 -0.14174729337E+02 -0.34146647420E+02  0.37066563051E+02  0.51100000000E-03 0.  1.
        -12    1    3    3    0    0  0.31150329164E+01 -0.36001739305E+01 -0.23035229350E+01  0.52887522453E+01  0.00000000000E+00 0.  1.
</event>
<event>
 7    1  0.5748623E-013  0.5052886E+02  0.7816164E-02  0.1300439E+00
        -11   -1    0    0    0    0  0.00000000000E+00  0.00000000000E+00  0.45593999997E+02  0.45594000000E+02  0.51100000000E-03 0.  1.
         11   -1    0    0    0    0 -0.00000000000E+00 -0.00000000000E+00 -0.45593999997E+02  0.45594000000E+02  0.51100000000E-03 0. -1.
    9900012    2    1    2    0    0 -0.39638336573E+02  0.90396083065E+01 -0.50346767492E+00  0.50528859277E+02  0.29999998259E+02 0.  0.
         12    1    1    2    0    0  0.39638336573E+02 -0.90396083065E+01  0.50346767492E+00  0.40659140723E+02  0.00000000000E+00 0. -1.
         11    1    3    3    0    0  0.80004190025E-01  0.44772364735E+01 -0.78288986335E+01  0.90190742975E+01  0.51100000000E-03 0. -1.
        -11    1    3    3    0    0 -0.30754718078E+02  0.30633548331E+00  0.38511740132E+01  0.30996420230E+02  0.51100000000E-03 0.  1.
        -12    1    3    3    0    0 -0.89636226848E+01  0.42560363498E+01  0.34742569454E+01  0.10513364750E+02  0.00000000000E+00 0.  1.
</event>
<event>
 7    1  0.5748623E-013  0.5052884E+02  0.7816164E-02  0.1300439E+00
        -11   -1    0    0    0    0  0.00000000000E+00  0.00000000000E+00  0.45593999997E+02  0.45594000000E+02  0.51100000000E-03 0.  1.
         11   -1    0    0    0    0 -0.00000000000E+00 -0.00000000000E+00 -0.45593999997E+02  0.45594000000E+02  0.51100000000E-03 0. -1.
    9900012    2    1    2    0    0  0.30668169422E+02  0.11034390297E+02  0.24307871294E+02  0.50528843691E+02  0.29999950883E+02 0.  0.
         12    1    1    2    0    0 -0.30668169422E+02 -0.11034390297E+02 -0.24307871294E+02  0.40659156309E+02  0.00000000000E+00 0. -1.
         11    1    3    3    0    0  0.92176120692E+01  0.90530809183E+01  0.31712103842E+01  0.13303353785E+02  0.51100000000E-03 0. -1.
        -11    1    3    3    0    0 -0.23376750901E+01 -0.51272683438E+01  0.24171859489E+01  0.61315898158E+01  0.51100000000E-03 0.  1.
        -12    1    3    3    0    0  0.23788232443E+02  0.71085777220E+01  0.18719474961E+02  0.31093900090E+02  0.00000000000E+00 0.  1.
</event>
<event>
 7    1  0.5748623E-013  0.5052885E+02  0.7816164E-02  0.1300439E+00
        -11   -1    0    0    0    0  0.00000000000E+00  0.00000000000E+00  0.45593999997E+02  0.45594000000E+02  0.51100000000E-03 0.  1.
         11   -1    0    0    0    0 -0.00000000000E+00 -0.00000000000E+00 -0.45593999997E+02  0.45594000000E+02  0.51100000000E-03 0. -1.
    9900012    2    1    2    0    0 -0.59857304789E+01 -0.32217256113E+02  0.24070428429E+02  0.50528854835E+02  0.29999984756E+02 0.  0.
         12    1    1    2    0    0  0.59857304789E+01  0.32217256113E+02 -0.24070428429E+02  0.40659145165E+02  0.00000000000E+00 0. -1.
         11    1    3    3    0    0  0.38104072250E+01  0.12276857547E+00  0.51195049125E+01  0.63830718430E+01  0.51100000000E-03 0. -1.
        -11    1    3    3    0    0 -0.16501210276E+02 -0.22126337628E+02  0.12093209162E+02  0.30134871254E+02  0.51100000000E-03 0.  1.
        -12    1    3    3    0    0  0.67050725718E+01 -0.10213687060E+02  0.68577143540E+01  0.14010911737E+02  0.00000000000E+00 0.  1.
</event>
<event>
 7    1  0.5748623E-013  0.5052884E+02  0.7816164E-02  0.1300439E+00
        -11   -1    0    0    0    0  0.00000000000E+00  0.00000000000E+00  0.45593999997E+02  0.45594000000E+02  0.51100000000E-03 0.  1.
         11   -1    0    0    0    0 -0.00000000000E+00 -0.00000000000E+00 -0.45593999997E+02  0.45594000000E+02  0.51100000000E-03 0. -1.
    9900012    2    1    2    0    0  0.27086255701E+02 -0.16460552849E+02  0.25466683963E+02  0.50528843097E+02  0.29999949078E+02 0.  0.
         12    1    1    2    0    0 -0.27086255701E+02  0.16460552849E+02 -0.25466683963E+02  0.40659156903E+02  0.00000000000E+00 0. -1.
         11    1    3    3    0    0  0.11087768603E+02  0.79793803368E+01  0.10955435245E+02  0.17510873331E+02  0.51100000000E-03 0. -1.
        -11    1    3    3    0    0  0.75993896691E+01 -0.11959734404E+02  0.41971574861E+01  0.14778433665E+02  0.51100000000E-03 0.  1.
         12    1    3    3    0    0  0.83990974285E+01 -0.12480198782E+02  0.10314091232E+02  0.18239536101E+02  0.00000000000E+00 0. -1.
</event>
<event>
 7    1  0.5748623E-013  0.5052886E+02  0.7816164E-02  0.1300439E+00
        -11   -1    0    0    0    0  0.00000000000E+00  0.00000000000E+00  0.45593999997E+02  0.45594000000E+02  0.51100000000E-03 0. -1.
         11   -1    0    0    0    0 -0.00000000000E+00 -0.00000000000E+00 -0.45593999997E+02  0.45594000000E+02  0.51100000000E-03 0.  1.
    9900012    2    1    2    0    0  0.25817499827E+02 -0.16737853939E+02 -0.26579441519E+02  0.50528858799E+02  0.29999996804E+02 0.  0.
         12    1    1    2    0    0 -0.25817499827E+02  0.16737853939E+02  0.26579441519E+02  0.40659141201E+02  0.00000000000E+00 0. -1.
         11    1    3    3    0    0  0.13652232954E+02 -0.33202894998E+00 -0.24791023264E+02  0.28303507602E+02  0.51100000000E-03 0. -1.
        -11    1    3    3    0    0  0.42815296344E+01 -0.12775310726E+02 -0.11179975077E+01  0.13519984424E+02  0.51100000000E-03 0.  1.
         12    1    3    3    0    0  0.78837372385E+01 -0.36305142632E+01 -0.67042074728E+00  0.87053667722E+01  0.00000000000E+00 0. -1.
</event>
<event>
 7    1  0.5748623E-013  0.5052886E+02  0.7816164E-02  0.1300439E+00
        -11   -1    0    0    0    0  0.00000000000E+00  0.00000000000E+00  0.45593999997E+02  0.45594000000E+02  0.51100000000E-03 0. -1.
         11   -1    0    0    0    0 -0.00000000000E+00 -0.00000000000E+00 -0.45593999997E+02  0.45594000000E+02  0.51100000000E-03 0.  1.
    9900012    2    1    2    0    0 -0.31147838128E+02 -0.73976871164E+01 -0.25064963226E+02  0.50528856179E+02  0.29999988841E+02 0.  0.
         12    1    1    2    0    0  0.31147838128E+02  0.73976871164E+01  0.25064963226E+02  0.40659143821E+02  0.00000000000E+00 0. -1.
         11    1    3    3    0    0 -0.12452285320E+02  0.39345490822E+01  0.35098325308E+01  0.13522537144E+02  0.51100000000E-03 0. -1.
        -11    1    3    3    0    0 -0.85328489921E+01 -0.34774009467E+00 -0.10912663364E+02  0.13857007507E+02  0.51100000000E-03 0.  1.
         12    1    3    3    0    0 -0.10162703816E+02 -0.10984496104E+02 -0.17662132393E+02  0.23149311527E+02  0.00000000000E+00 0. -1.
</event>
<event>
 7    1  0.5748623E-013  0.5052885E+02  0.7816164E-02  0.1300439E+00
        -11   -1    0    0    0    0  0.00000000000E+00  0.00000000000E+00  0.45593999997E+02  0.45594000000E+02  0.51100000000E-03 0.  1.
         11   -1    0    0    0    0 -0.00000000000E+00 -0.00000000000E+00 -0.45593999997E+02  0.45594000000E+02  0.51100000000E-03 0. -1.
    9900012    2    1    2    0    0  0.76821031431E+01 -0.31349773943E+02  0.24725352186E+02  0.50528854956E+02  0.29999985124E+02 0.  0.
         12    1    1    2    0    0 -0.76821031431E+01  0.31349773943E+02 -0.24725352186E+02  0.40659145044E+02  0.00000000000E+00 0. -1.
         11    1    3    3    0    0  0.10628316992E+02 -0.12515402604E+02 -0.67300382717E+00  0.16433178598E+02  0.51100000000E-03 0. -1.
        -11    1    3    3    0    0  0.79267177246E+00 -0.56984695580E+01  0.17267972079E+02  0.18201201714E+02  0.51100000000E-03 0.  1.
         12    1    3    3    0    0 -0.37388856211E+01 -0.13135901781E+02  0.81303839343E+01  0.15894474644E+02  0.00000000000E+00 0. -1.
</event>
<event>
 7    1  0.5748623E-013  0.5052878E+02  0.7816164E-02  0.1300439E+00
        -11   -1    0    0    0    0  0.00000000000E+00  0.00000000000E+00  0.45593999997E+02  0.45594000000E+02  0.51100000000E-03 0. -1.
         11   -1    0    0    0    0 -0.00000000000E+00 -0.00000000000E+00 -0.45593999997E+02  0.45594000000E+02  0.51100000000E-03 0.  1.
    9900012    2    1    2    0    0  0.37220630557E+02  0.14376654432E+02 -0.78172182431E+01  0.50528776781E+02  0.29999747502E+02 0.  0.
         12    1    1    2    0    0 -0.37220630557E+02 -0.14376654432E+02  0.78172182431E+01  0.40659223219E+02  0.00000000000E+00 0. -1.
         11    1    3    3    0    0  0.36811930030E+01 -0.50515266715E+01  0.62079788328E+01  0.88095462476E+01  0.51100000000E-03 0. -1.
        -11    1    3    3    0    0  0.27741616257E+02  0.18149360327E+02 -0.13371246866E+02  0.35746143790E+02  0.51100000000E-03 0.  1.
         12    1    3    3    0    0  0.57978212965E+01  0.12788207759E+01 -0.65395020996E+00  0.59730867431E+01  0.00000000000E+00 0. -1.
</event>
<event>
 7    1  0.5748623E-013  0.5052887E+02  0.7816164E-02  0.1300439E+00
        -11   -1    0    0    0    0  0.00000000000E+00  0.00000000000E+00  0.45593999997E+02  0.45594000000E+02  0.51100000000E-03 0. -1.
         11   -1    0    0    0    0 -0.00000000000E+00 -0.00000000000E+00 -0.45593999997E+02  0.45594000000E+02  0.51100000000E-03 0.  1.
    9900012    2    1    2    0    0 -0.25906989292E+02  0.25624660595E+02 -0.18038007847E+02  0.50528867546E+02  0.30000023394E+02 0.  0.
         12    1    1    2    0    0  0.25906989292E+02 -0.25624660595E+02  0.18038007847E+02  0.40659132454E+02  0.00000000000E+00 0. -1.
         11    1    3    3    0    0  0.71112457028E-01 -0.10233445875E+01 -0.89455114792E-01  0.10297055914E+01  0.51100000000E-03 0. -1.
        -11    1    3    3    0    0 -0.93536037692E+01  0.25053554361E+02 -0.26902150756E+01  0.26877644001E+02  0.51100000000E-03 0.  1.
        -12    1    3    3    0    0 -0.16624497980E+02  0.15944508214E+01 -0.15258337657E+02  0.22621517954E+02  0.00000000000E+00 0.  1.
</event>
<event>
 7    1  0.5748623E-013  0.5052887E+02  0.7816164E-02  0.1300439E+00
        -11   -1    0    0    0    0  0.00000000000E+00  0.00000000000E+00  0.45593999997E+02  0.45594000000E+02  0.51100000000E-03 0.  1.
         11   -1    0    0    0    0 -0.00000000000E+00 -0.00000000000E+00 -0.45593999997E+02  0.45594000000E+02  0.51100000000E-03 0. -1.
    9900012    2    1    2    0    0  0.28520415314E+02  0.86431090218E+01  0.27659497669E+02  0.50528865300E+02  0.30000016564E+02 0.  0.
         12    1    1    2    0    0 -0.28520415314E+02 -0.86431090218E+01 -0.27659497669E+02  0.40659134700E+02  0.00000000000E+00 0. -1.
         11    1    3    3    0    0 -0.56426832686E+01 -0.55108470810E+00  0.61489050945E+01  0.83637672700E+01  0.51100000000E-03 0. -1.
        -11    1    3    3    0    0  0.32904579396E+02  0.75715610689E+01  0.21645885339E+02  0.40107159394E+02  0.51100000000E-03 0.  1.
         12    1    3    3    0    0  0.12585191869E+01  0.16226326610E+01 -0.13529276435E+00  0.20579386357E+01  0.00000000000E+00 0. -1.
</event>
<event>
 7    1  0.5748623E-013  0.5052886E+02  0.7816164E-02  0.1300439E+00
        -11   -1    0    0    0    0  0.00000000000E+00  0.00000000000E+00  0.45593999997E+02  0.45594000000E+02  0.51100000000E-03 0. -1.
         11   -1    0    0    0    0 -0.00000000000E+00 -0.00000000000E+00 -0.45593999997E+02  0.45594000000E+02  0.51100000000E-03 0.  1.
    9900012    2    1    2    0    0  0.35402493035E+02 -0.17981576560E+02 -0.87459856352E+01  0.50528857444E+02  0.29999992686E+02 0.  0.
         12    1    1    2    0    0 -0.35402493035E+02  0.17981576560E+02  0.87459856352E+01  0.40659142556E+02  0.00000000000E+00 0. -1.
         11    1    3    3    0    0 -0.10365196921E+01 -0.60164319338E+00  0.55952025029E+00  0.13226529310E+01  0.51100000000E-03 0. -1.
        -11    1    3    3    0    0  0.34407061486E+02 -0.18706024039E+02 -0.15832724868E+02  0.42242589793E+02  0.51100000000E-03 0.  1.
        -12    1    3    3    0    0  0.20319512415E+01  0.13260906723E+01  0.65272189826E+01  0.69636147198E+01  0.00000000000E+00 0.  1.
</event>
<event>
 7    1  0.5748623E-013  0.5052885E+02  0.7816164E-02  0.1300439E+00
        -11   -1    0    0    0    0  0.00000000000E+00  0.00000000000E+00  0.45593999997E+02  0.45594000000E+02  0.51100000000E-03 0.  1.
         11   -1    0    0    0    0 -0.00000000000E+00 -0.00000000000E+00 -0.45593999997E+02  0.45594000000E+02  0.51100000000E-03 0. -1.
    9900012    2    1    2    0    0  0.20811578734E+02  0.28595482290E+02  0.20058481203E+02  0.50528854843E+02  0.29999984780E+02 0.  0.
         12    1    1    2    0    0 -0.20811578734E+02 -0.28595482290E+02 -0.20058481203E+02  0.40659145157E+02  0.00000000000E+00 0. -1.
         11    1    3    3    0    0  0.74651818617E+01  0.20384080998E+02  0.13880726226E+02  0.25766533705E+02  0.51100000000E-03 0.  1.
        -11    1    3    3    0    0  0.15469717624E+02  0.18424763885E+01 -0.87720907892E-01  0.15579299657E+02  0.51100000000E-03 0. -1.
        -12    1    3    3    0    0 -0.21233207518E+01  0.63689249032E+01  0.62654758847E+01  0.91830214799E+01  0.00000000000E+00 0.  1.
</event>
<event>
 7    1  0.5748623E-013  0.5052886E+02  0.7816164E-02  0.1300439E+00
        -11   -1    0    0    0    0  0.00000000000E+00  0.00000000000E+00  0.45593999997E+02  0.45594000000E+02  0.51100000000E-03 0.  1.
         11   -1    0    0    0    0 -0.00000000000E+00 -0.00000000000E+00 -0.45593999997E+02  0.45594000000E+02  0.51100000000E-03 0. -1.
    9900012    2    1    2    0    0 -0.27952930775E+02 -0.25148281290E+02  0.15471375338E+02  0.50528857786E+02  0.29999993726E+02 0.  0.
         12    1    1    2    0    0  0.27952930775E+02  0.25148281290E+02 -0.15471375338E+02  0.40659142214E+02  0.00000000000E+00 0. -1.
         11    1    3    3    0    0 -0.20446811153E+02 -0.17448703091E+02 -0.39687953557E+01  0.27171320592E+02  0.51100000000E-03 0. -1.
        -11    1    3    3    0    0 -0.44957007692E+01 -0.19739516541E+01  0.14224256257E+02  0.15047832962E+02  0.51100000000E-03 0.  1.
         12    1    3    3    0    0 -0.30104188521E+01 -0.57256265450E+01  0.52159144371E+01  0.83097042314E+01  0.00000000000E+00 0. -1.
</event>
<event>
 7    1  0.5748623E-013  0.5052886E+02  0.7816164E-02  0.1300439E+00
        -11   -1    0    0    0    0  0.00000000000E+00  0.00000000000E+00  0.45593999997E+02  0.45594000000E+02  0.51100000000E-03 0.  1.
         11   -1    0    0    0    0 -0.00000000000E+00 -0.00000000000E+00 -0.45593999997E+02  0.45594000000E+02  0.51100000000E-03 0. -1.
    9900012    2    1    2    0    0 -0.21384244397E+02 -0.20392091040E+02  0.27929239217E+02  0.50528859716E+02  0.29999999591E+02 0.  0.
         12    1    1    2    0    0  0.21384244397E+02  0.20392091040E+02 -0.27929239217E+02  0.40659140284E+02  0.00000000000E+00 0. -1.
         11    1    3    3    0    0  0.33655273305E+01 -0.49960535406E+01  0.14924753313E+02  0.16094582533E+02  0.51100000000E-03 0. -1.
        -11    1    3    3    0    0 -0.19843557906E+02 -0.15688573888E+02  0.14673169533E+02  0.29243803538E+02  0.51100000000E-03 0.  1.
         12    1    3    3    0    0 -0.49062138220E+01  0.29253638832E+00 -0.16686836281E+01  0.51904736448E+01  0.00000000000E+00 0. -1.
</event>
<event>
 7    1  0.5748623E-013  0.5052886E+02  0.7816164E-02  0.1300439E+00
        -11   -1    0    0    0    0  0.00000000000E+00  0.00000000000E+00  0.45593999997E+02  0.45594000000E+02  0.51100000000E-03 0. -1.
         11   -1    0    0    0    0 -0.00000000000E+00 -0.00000000000E+00 -0.45593999997E+02  0.45594000000E+02  0.51100000000E-03 0.  1.
    9900012    2    1    2    0    0 -0.14037565339E+02 -0.55783072156E+01 -0.37749105973E+02  0.50528858915E+02  0.29999997157E+02 0.  0.
         12    1    1    2    0    0  0.14037565339E+02  0.55783072156E+01  0.37749105973E+02  0.40659141085E+02  0.00000000000E+00 0. -1.
         11    1    3    3    0    0 -0.19334342647E+01 -0.56459607810E+00 -0.13753198466E+01  0.24389427482E+01  0.51100000000E-03 0. -1.
        -11    1    3    3    0    0 -0.21166258683E+02 -0.41851147666E+00 -0.26546015698E+02  0.33954036699E+02  0.51100000000E-03 0.  1.
        -12    1    3    3    0    0  0.90621276084E+01 -0.45951996609E+01 -0.98277704282E+01  0.14135879467E+02  0.00000000000E+00 0.  1.
</event>
<event>
 7    1  0.5748623E-013  0.5052890E+02  0.7816164E-02  0.1300439E+00
        -11   -1    0    0    0    0  0.00000000000E+00  0.00000000000E+00  0.45593999997E+02  0.45594000000E+02  0.51100000000E-03 0. -1.
         11   -1    0    0    0    0 -0.00000000000E+00 -0.00000000000E+00 -0.45593999997E+02  0.45594000000E+02  0.51100000000E-03 0.  1.
    9900012    2    1    2    0    0  0.34911379136E+02 -0.26366253072E+01 -0.20673809073E+02  0.50528898095E+02  0.30000116248E+02 0.  0.
         12    1    1    2    0    0 -0.34911379136E+02  0.26366253072E+01  0.20673809073E+02  0.40659101905E+02  0.00000000000E+00 0. -1.
         11    1    3    3    0    0  0.13553300443E+02 -0.15425251128E+02 -0.10023500485E+02  0.22849527073E+02  0.51100000000E-03 0. -1.
        -11    1    3    3    0    0  0.13043386750E+02  0.54147992087E+01 -0.38024561444E+01  0.14625616615E+02  0.51100000000E-03 0.  1.
         12    1    3    3    0    0  0.83146919425E+01  0.73738266116E+01 -0.68478524441E+01  0.13053754406E+02  0.00000000000E+00 0. -1.
</event>
<event>
 7    1  0.5748623E-013  0.5052889E+02  0.7816164E-02  0.1300439E+00
        -11   -1    0    0    0    0  0.00000000000E+00  0.00000000000E+00  0.45593999997E+02  0.45594000000E+02  0.51100000000E-03 0. -1.
         11   -1    0    0    0    0 -0.00000000000E+00 -0.00000000000E+00 -0.45593999997E+02  0.45594000000E+02  0.51100000000E-03 0.  1.
    9900012    2    1    2    0    0  0.39210233463E+02  0.76430905841E+01  0.75699256796E+01  0.50528892573E+02  0.30000099466E+02 0.  0.
         12    1    1    2    0    0 -0.39210233463E+02 -0.76430905841E+01 -0.75699256796E+01  0.40659107427E+02  0.00000000000E+00 0. -1.
         11    1    3    3    0    0  0.27822908325E+01  0.71911623211E+01  0.78519987783E+00  0.77505159128E+01  0.51100000000E-03 0. -1.
        -11    1    3    3    0    0  0.24624722696E+02  0.67163165100E+00  0.14586019093E+02  0.28628307847E+02  0.51100000000E-03 0.  1.
        -12    1    3    3    0    0  0.11803219935E+02 -0.21970338804E+00 -0.78012932913E+01  0.14150068813E+02  0.00000000000E+00 0.  1.
</event>
<event>
 7    1  0.5748623E-013  0.5052885E+02  0.7816164E-02  0.1300439E+00
        -11   -1    0    0    0    0  0.00000000000E+00  0.00000000000E+00  0.45593999997E+02  0.45594000000E+02  0.51100000000E-03 0.  1.
         11   -1    0    0    0    0 -0.00000000000E+00 -0.00000000000E+00 -0.45593999997E+02  0.45594000000E+02  0.51100000000E-03 0. -1.
    9900012    2    1    2    0    0  0.38453354154E+02 -0.13280262429E+01  0.13143157172E+02  0.50528847527E+02  0.29999962543E+02 0.  0.
         12    1    1    2    0    0 -0.38453354154E+02  0.13280262429E+01 -0.13143157172E+02  0.40659152473E+02  0.00000000000E+00 0. -1.
         11    1    3    3    0    0  0.30421588337E+01  0.33610273086E+01 -0.68008327702E+01  0.81732834019E+01  0.51100000000E-03 0. -1.
        -11    1    3    3    0    0  0.13027004205E+02  0.12963000722E+01  0.24406399962E+01  0.13316904907E+02  0.51100000000E-03 0.  1.
         12    1    3    3    0    0  0.22384191115E+02 -0.59853536237E+01  0.17503349946E+02  0.29038659218E+02  0.00000000000E+00 0. -1.
</event>
<event>
 7    1  0.5748623E-013  0.5052886E+02  0.7816164E-02  0.1300439E+00
        -11   -1    0    0    0    0  0.00000000000E+00  0.00000000000E+00  0.45593999997E+02  0.45594000000E+02  0.51100000000E-03 0. -1.
         11   -1    0    0    0    0 -0.00000000000E+00 -0.00000000000E+00 -0.45593999997E+02  0.45594000000E+02  0.51100000000E-03 0.  1.
    9900012    2    1    2    0    0  0.88081973430E+01 -0.15482095485E+02 -0.36549770959E+02  0.50528863533E+02  0.30000011196E+02 0.  0.
         12    1    1    2    0    0 -0.88081973430E+01  0.15482095485E+02  0.36549770959E+02  0.40659136467E+02  0.00000000000E+00 0. -1.
         11    1    3    3    0    0 -0.15553894970E+01  0.76719347385E+00 -0.21148060844E+02  0.21219055117E+02  0.51100000000E-03 0. -1.
        -11    1    3    3    0    0  0.86275808708E+01 -0.15505212659E+02 -0.18529998272E+02  0.25655557049E+02  0.51100000000E-03 0.  1.
         12    1    3    3    0    0  0.17360059692E+01 -0.74407630053E+00  0.31282881569E+01  0.36542513678E+01  0.00000000000E+00 0. -1.
</event>
<event>
 7    1  0.5748623E-013  0.5052890E+02  0.7816164E-02  0.1300439E+00
        -11   -1    0    0    0    0  0.00000000000E+00  0.00000000000E+00  0.45593999997E+02  0.45594000000E+02  0.51100000000E-03 0.  1.
         11   -1    0    0    0    0 -0.00000000000E+00 -0.00000000000E+00 -0.45593999997E+02  0.45594000000E+02  0.51100000000E-03 0. -1.
    9900012    2    1    2    0    0 -0.24841920841E+01  0.23184775184E+02  0.33308522465E+02  0.50528896721E+02  0.30000112073E+02 0.  0.
         12    1    1    2    0    0  0.24841920841E+01 -0.23184775184E+02 -0.33308522465E+02  0.40659103279E+02  0.00000000000E+00 0. -1.
         11    1    3    3    0    0 -0.11324353443E+02  0.17687929388E+02  0.10188876228E+02  0.23343457884E+02  0.51100000000E-03 0. -1.
        -11    1    3    3    0    0  0.19344885155E+01  0.54171646335E+01  0.17039390948E+02  0.17984125295E+02  0.51100000000E-03 0.  1.
         12    1    3    3    0    0  0.69056728439E+01  0.79681163378E-01  0.60802552887E+01  0.92013135416E+01  0.00000000000E+00 0. -1.
</event>
<event>
 7    1  0.5748623E-013  0.5052886E+02  0.7816164E-02  0.1300439E+00
        -11   -1    0    0    0    0  0.00000000000E+00  0.00000000000E+00  0.45593999997E+02  0.45594000000E+02  0.51100000000E-03 0.  1.
         11   -1    0    0    0    0 -0.00000000000E+00 -0.00000000000E+00 -0.45593999997E+02  0.45594000000E+02  0.51100000000E-03 0. -1.
    9900012    2    1    2    0    0  0.84117295026E+01  0.16368530982E+02  0.36255755365E+02  0.50528858385E+02  0.29999995548E+02 0.  0.
         12    1    1    2    0    0 -0.84117295026E+01 -0.16368530982E+02 -0.36255755365E+02  0.40659141615E+02  0.00000000000E+00 0. -1.
         11    1    3    3    0    0  0.39831010160E+01  0.87491661933E+00 -0.31145917915E+00  0.40899364147E+01  0.51100000000E-03 0. -1.
        -11    1    3    3    0    0  0.11767832565E+02  0.16301917597E+02  0.31888988820E+02  0.37698037202E+02  0.51100000000E-03 0.  1.
        -12    1    3    3    0    0 -0.73392040784E+01 -0.80830323416E+00  0.46782257241E+01  0.87408847692E+01  0.00000000000E+00 0.  1.
</event>
<event>
 7    1  0.5748623E-013  0.5052886E+02  0.7816164E-02  0.1300439E+00
        -11   -1    0    0    0    0  0.00000000000E+00  0.00000000000E+00  0.45593999997E+02  0.45594000000E+02  0.51100000000E-03 0.  1.
         11   -1    0    0    0    0 -0.00000000000E+00 -0.00000000000E+00 -0.45593999997E+02  0.45594000000E+02  0.51100000000E-03 0. -1.
    9900012    2    1    2    0    0  0.24676829507E+02  0.22281750757E+02  0.23403915318E+02  0.50528861008E+02  0.30000003521E+02 0.  0.
         12    1    1    2    0    0 -0.24676829507E+02 -0.22281750757E+02 -0.23403915318E+02  0.40659138992E+02  0.00000000000E+00 0. -1.
         11    1    3    3    0    0  0.23899189100E+02  0.18583808017E+02  0.13377878634E+02  0.33098289941E+02  0.51100000000E-03 0. -1.
        -11    1    3    3    0    0 -0.60194038429E+01 -0.59920914594E+00  0.56409347641E+01  0.82711800547E+01  0.51100000000E-03 0.  1.
        -12    1    3    3    0    0  0.67970442496E+01  0.42971518868E+01  0.43851019199E+01  0.91593910123E+01  0.00000000000E+00 0.  1.
</event>
<event>
 7    1  0.5748623E-013  0.5052895E+02  0.7816164E-02  0.1300438E+00
        -11   -1    0    0    0    0  0.00000000000E+00  0.00000000000E+00  0.45593999997E+02  0.45594000000E+02  0.51100000000E-03 0. -1.
         11   -1    0    0    0    0 -0.00000000000E+00 -0.00000000000E+00 -0.45593999997E+02  0.45594000000E+02  0.51100000000E-03 0.  1.
    9900012    2    1    2    0    0 -0.23290105662E+02  0.32862313893E+01 -0.33165188725E+02  0.50528953262E+02  0.30000283934E+02 0.  0.
         12    1    1    2    0    0  0.23290105662E+02 -0.32862313893E+01  0.33165188725E+02  0.40659046738E+02  0.00000000000E+00 0. -1.
         11    1    3    3    0    0  0.32686003766E+01 -0.64790445124E+01 -0.49023543464E+01  0.87575592841E+01  0.51100000000E-03 0. -1.
        -11    1    3    3    0    0 -0.16849337959E+02  0.10680461852E+02 -0.13535336942E+02  0.24107629527E+02  0.51100000000E-03 0.  1.
        -12    1    3    3    0    0 -0.97093680795E+01 -0.91518595005E+00 -0.14727497437E+02  0.17663764451E+02  0.00000000000E+00 0.  1.
</event>
<event>
 7    1  0.5748623E-013  0.5052886E+02  0.7816164E-02  0.1300439E+00
        -11   -1    0    0    0    0  0.00000000000E+00  0.00000000000E+00  0.45593999997E+02  0.45594000000E+02  0.51100000000E-03 0. -1.
         11   -1    0    0    0    0 -0.00000000000E+00 -0.00000000000E+00 -0.45593999997E+02  0.45594000000E+02  0.51100000000E-03 0.  1.
    9900012    2    1    2    0    0 -0.19528287504E+02 -0.35317523205E+02  0.49481402459E+01  0.50528861420E+02  0.30000004771E+02 0.  0.
         12    1    1    2    0    0  0.19528287504E+02  0.35317523205E+02 -0.49481402459E+01  0.40659138580E+02  0.00000000000E+00 0. -1.
         11    1    3    3    0    0  0.27690838242E+01 -0.24906877657E+01 -0.67870749865E+00  0.37857621296E+01  0.51100000000E-03 0. -1.
        -11    1    3    3    0    0 -0.27498468264E+02 -0.26230235784E+02  0.46713965929E+01  0.38288548843E+02  0.51100000000E-03 0.  1.
        -12    1    3    3    0    0  0.52010969356E+01 -0.65965996558E+01  0.95545115159E+00  0.84545504467E+01  0.00000000000E+00 0.  1.
</event>
<event>
 7    1  0.5748623E-013  0.5052873E+02  0.7816164E-02  0.1300439E+00
        -11   -1    0    0    0    0  0.00000000000E+00  0.00000000000E+00  0.45593999997E+02  0.45594000000E+02  0.51100000000E-03 0. -1.
         11   -1    0    0    0    0 -0.00000000000E+00 -0.00000000000E+00 -0.45593999997E+02  0.45594000000E+02  0.51100000000E-03 0.  1.
    9900012    2    1    2    0    0 -0.99836100889E+01 -0.38751011905E+02  0.72016032243E+01  0.50528726973E+02  0.29999596105E+02 0.  0.
         12    1    1    2    0    0  0.99836100889E+01  0.38751011905E+02 -0.72016032243E+01  0.40659273027E+02  0.00000000000E+00 0. -1.
         11    1    3    3    0    0  0.31076968011E-01 -0.25150623214E+02  0.92815550615E+01  0.26808619481E+02  0.51100000000E-03 0. -1.
        -11    1    3    3    0    0 -0.10435129427E+02 -0.72417773430E+01  0.54792796400E+01  0.13833212602E+02  0.51100000000E-03 0.  1.
         12    1    3    3    0    0  0.42044237015E+00 -0.63586113478E+01 -0.75592314773E+01  0.98868948910E+01  0.00000000000E+00 0. -1.
</event>
<event>
 7    1  0.5748623E-013  0.5052886E+02  0.7816164E-02  0.1300439E+00
        -11   -1    0    0    0    0  0.00000000000E+00  0.00000000000E+00  0.45593999997E+02  0.45594000000E+02  0.51100000000E-03 0.  1.
         11   -1    0    0    0    0 -0.00000000000E+00 -0.00000000000E+00 -0.45593999997E+02  0.45594000000E+02  0.51100000000E-03 0. -1.
    9900012    2    1    2    0    0 -0.82830562752E+01  0.34060297342E+02  0.20602243031E+02  0.50528864566E+02  0.30000014335E+02 0.  0.
         12    1    1    2    0    0  0.82830562752E+01 -0.34060297342E+02 -0.20602243031E+02  0.40659135434E+02  0.00000000000E+00 0. -1.
         11    1    3    3    0    0  0.40101324611E+01 -0.30092686474E+01  0.23627117130E+01  0.55424964635E+01  0.51100000000E-03 0. -1.
        -11    1    3    3    0    0 -0.10661418107E+02  0.13203885191E+02  0.52420456912E+01  0.17761966768E+02  0.51100000000E-03 0.  1.
        -12    1    3    3    0    0 -0.16317706294E+01  0.23865680799E+02  0.12997485627E+02  0.27224401334E+02  0.00000000000E+00 0.  1.
</event>
<event>
 7    1  0.5748623E-013  0.5052886E+02  0.7816164E-02  0.1300439E+00
        -11   -1    0    0    0    0  0.00000000000E+00  0.00000000000E+00  0.45593999997E+02  0.45594000000E+02  0.51100000000E-03 0.  1.
         11   -1    0    0    0    0 -0.00000000000E+00 -0.00000000000E+00 -0.45593999997E+02  0.45594000000E+02  0.51100000000E-03 0. -1.
    9900012    2    1    2    0    0 -0.28053560144E+02 -0.22340508694E+02  0.19158951599E+02  0.50528855987E+02  0.29999988259E+02 0.  0.
         12    1    1    2    0    0  0.28053560144E+02  0.22340508694E+02 -0.19158951599E+02  0.40659144013E+02  0.00000000000E+00 0. -1.
         11    1    3    3    0    0 -0.28046477901E+01 -0.11329821580E+02 -0.20450190396E+01  0.11849599546E+02  0.51100000000E-03 0. -1.
        -11    1    3    3    0    0 -0.16955322150E+02 -0.13711329548E+02  0.20499780437E+02  0.29928656927E+02  0.51100000000E-03 0.  1.
        -12    1    3    3    0    0 -0.82935902040E+01  0.27006424343E+01  0.70419020095E+00  0.87505995148E+01  0.00000000000E+00 0.  1.
</event>
<event>
 7    1  0.5748623E-013  0.5052886E+02  0.7816164E-02  0.1300439E+00
        -11   -1    0    0    0    0  0.00000000000E+00  0.00000000000E+00  0.45593999997E+02  0.45594000000E+02  0.51100000000E-03 0. -1.
         11   -1    0    0    0    0 -0.00000000000E+00 -0.00000000000E+00 -0.45593999997E+02  0.45594000000E+02  0.51100000000E-03 0.  1.
    9900012    2    1    2    0    0  0.16096433899E+02 -0.83996971796E+01 -0.36380152946E+02  0.50528860494E+02  0.30000001957E+02 0.  0.
         12    1    1    2    0    0 -0.16096433899E+02  0.83996971796E+01  0.36380152946E+02  0.40659139506E+02  0.00000000000E+00 0. -1.
         11    1    3    3    0    0  0.29550460778E+00  0.55855268892E+01 -0.51873370661E+00  0.56173408765E+01  0.51100000000E-03 0. -1.
        -11    1    3    3    0    0  0.19393487655E+02 -0.10611478801E+02 -0.29116062468E+02  0.36557570210E+02  0.51100000000E-03 0.  1.
         12    1    3    3    0    0 -0.35925583632E+01 -0.33737452681E+01 -0.67453567716E+01  0.83539494075E+01  0.00000000000E+00 0. -1.
</event>
<event>
 7    1  0.5748623E-013  0.5052888E+02  0.7816164E-02  0.1300439E+00
        -11   -1    0    0    0    0  0.00000000000E+00  0.00000000000E+00  0.45593999997E+02  0.45594000000E+02  0.51100000000E-03 0.  1.
         11   -1    0    0    0    0 -0.00000000000E+00 -0.00000000000E+00 -0.45593999997E+02  0.45594000000E+02  0.51100000000E-03 0. -1.
    9900012    2    1    2    0    0 -0.29701630659E+02 -0.14425631445E+02  0.23725055966E+02  0.50528880642E+02  0.30000063199E+02 0.  0.
         12    1    1    2    0    0  0.29701630659E+02  0.14425631445E+02 -0.23725055966E+02  0.40659119358E+02  0.00000000000E+00 0. -1.
         11    1    3    3    0    0 -0.51460907891E+01  0.66961313783E+01  0.68267411398E+01  0.10859319532E+02  0.51100000000E-03 0. -1.
        -11    1    3    3    0    0 -0.95519147484E+01 -0.17777362729E+02  0.68812889165E+01  0.21321956720E+02  0.51100000000E-03 0.  1.
        -12    1    3    3    0    0 -0.15003625121E+02 -0.33444000940E+01  0.10017025910E+02  0.18347604390E+02  0.00000000000E+00 0.  1.
</event>
<event>
 7    1  0.5748623E-013  0.5052887E+02  0.7816164E-02  0.1300439E+00
        -11   -1    0    0    0    0  0.00000000000E+00  0.00000000000E+00  0.45593999997E+02  0.45594000000E+02  0.51100000000E-03 0. -1.
         11   -1    0    0    0    0 -0.00000000000E+00 -0.00000000000E+00 -0.45593999997E+02  0.45594000000E+02  0.51100000000E-03 0.  1.
    9900012    2    1    2    0    0  0.26987219686E+02  0.28798796793E+02 -0.97715956602E+01  0.50528870584E+02  0.30000032628E+02 0.  0.
         12    1    1    2    0    0 -0.26987219686E+02 -0.28798796793E+02  0.97715956602E+01  0.40659129416E+02  0.00000000000E+00 0. -1.
         11    1    3    3    0    0  0.24867705794E+02  0.21288820889E+02 -0.32258102408E+01  0.32894110997E+02  0.51100000000E-03 0.  1.
        -11    1    3    3    0    0 -0.71856360537E+00 -0.42328095989E+01 -0.17857174469E+01  0.46499244958E+01  0.51100000000E-03 0. -1.
         12    1    3    3    0    0  0.28380774971E+01  0.11742785503E+02 -0.47600679726E+01  0.12984835091E+02  0.00000000000E+00 0. -1.
</event>
<event>
 7    1  0.5748623E-013  0.5052886E+02  0.7816164E-02  0.1300439E+00
        -11   -1    0    0    0    0  0.00000000000E+00  0.00000000000E+00  0.45593999997E+02  0.45594000000E+02  0.51100000000E-03 0.  1.
         11   -1    0    0    0    0 -0.00000000000E+00 -0.00000000000E+00 -0.45593999997E+02  0.45594000000E+02  0.51100000000E-03 0. -1.
    9900012    2    1    2    0    0 -0.37422550633E+02  0.40038686017E+01 -0.15384639575E+02  0.50528863333E+02  0.30000010588E+02 0.  0.
         12    1    1    2    0    0  0.37422550633E+02 -0.40038686017E+01  0.15384639575E+02  0.40659136667E+02  0.00000000000E+00 0. -1.
         11    1    3    3    0    0 -0.31221314373E+02  0.60512021812E+01 -0.19578024799E+02  0.37345502732E+02  0.51100000000E-03 0. -1.
        -11    1    3    3    0    0  0.19197331435E+01 -0.31310204614E+01  0.33077820952E+01  0.49426801558E+01  0.51100000000E-03 0.  1.
        -12    1    3    3    0    0 -0.81209694030E+01  0.10836868820E+01  0.88560312912E+00  0.82406804455E+01  0.00000000000E+00 0.  1.
</event>
<event>
 7    1  0.5748623E-013  0.5052892E+02  0.7816164E-02  0.1300439E+00
        -11   -1    0    0    0    0  0.00000000000E+00  0.00000000000E+00  0.45593999997E+02  0.45594000000E+02  0.51100000000E-03 0. -1.
         11   -1    0    0    0    0 -0.00000000000E+00 -0.00000000000E+00 -0.45593999997E+02  0.45594000000E+02  0.51100000000E-03 0.  1.
    9900012    2    1    2    0    0  0.10248522143E+02 -0.21169189041E+02 -0.33166160884E+02  0.50528917392E+02  0.30000174903E+02 0.  0.
         12    1    1    2    0    0 -0.10248522143E+02  0.21169189041E+02  0.33166160884E+02  0.40659082608E+02  0.00000000000E+00 0. -1.
         11    1    3    3    0    0  0.26936338921E+01  0.39941804824E+01 -0.53661807879E+01  0.72114518496E+01  0.51100000000E-03 0. -1.
        -11    1    3    3    0    0  0.10290426436E+02 -0.27214134016E+02 -0.21596008982E+02  0.36233818053E+02  0.51100000000E-03 0.  1.
        -12    1    3    3    0    0 -0.27355381856E+01  0.20507644925E+01 -0.62039711142E+01  0.70836474895E+01  0.00000000000E+00 0.  1.
</event>
<event>
 7    1  0.5748623E-013  0.5052886E+02  0.7816164E-02  0.1300439E+00
        -11   -1    0    0    0    0  0.00000000000E+00  0.00000000000E+00  0.45593999997E+02  0.45594000000E+02  0.51100000000E-03 0. -1.
         11   -1    0    0    0    0 -0.00000000000E+00 -0.00000000000E+00 -0.45593999997E+02  0.45594000000E+02  0.51100000000E-03 0.  1.
    9900012    2    1    2    0    0 -0.37586807091E+02 -0.10221990993E+02  0.11657978768E+02  0.50528860362E+02  0.30000001555E+02 0.  0.
         12    1    1    2    0    0  0.37586807091E+02  0.10221990993E+02 -0.11657978768E+02  0.40659139638E+02  0.00000000000E+00 0. -1.
         11    1    3    3    0    0 -0.23570009932E+02  0.31931595900E+01  0.11875996112E+02  0.26585351611E+02  0.51100000000E-03 0. -1.
        -11    1    3    3    0    0 -0.35105792824E+01 -0.22937941891E+01 -0.62262954870E+01  0.75068245239E+01  0.51100000000E-03 0.  1.
         12    1    3    3    0    0 -0.10506217877E+02 -0.11121356394E+02  0.60082781429E+01  0.16436684227E+02  0.00000000000E+00 0. -1.
</event>
<event>
 7    1  0.5748623E-013  0.5052885E+02  0.7816164E-02  0.1300439E+00
        -11   -1    0    0    0    0  0.00000000000E+00  0.00000000000E+00  0.45593999997E+02  0.45594000000E+02  0.51100000000E-03 0. -1.
         11   -1    0    0    0    0 -0.00000000000E+00 -0.00000000000E+00 -0.45593999997E+02  0.45594000000E+02  0.51100000000E-03 0.  1.
    9900012    2    1    2    0    0  0.24671879913E+02 -0.32315167302E+02 -0.44137449246E+00  0.50528849644E+02  0.29999968979E+02 0.  0.
         12    1    1    2    0    0 -0.24671879913E+02  0.32315167302E+02  0.44137449246E+00  0.40659150356E+02  0.00000000000E+00 0. -1.
         11    1    3    3    0    0  0.30576668164E+02 -0.24593434422E+02 -0.36978721271E+01  0.39413752818E+02  0.51100000000E-03 0. -1.
        -11    1    3    3    0    0 -0.36318149600E+01 -0.62457750745E+01  0.48878610610E+00  0.72414569186E+01  0.51100000000E-03 0.  1.
         12    1    3    3    0    0 -0.22729732913E+01 -0.14759578060E+01  0.27677115286E+01  0.38736399076E+01  0.00000000000E+00 0. -1.
</event>
<event>
 7    1  0.5748623E-013  0.5052886E+02  0.7816164E-02  0.1300439E+00
        -11   -1    0    0    0    0  0.00000000000E+00  0.00000000000E+00  0.45593999997E+02  0.45594000000E+02  0.51100000000E-03 0.  1.
         11   -1    0    0    0    0 -0.00000000000E+00 -0.00000000000E+00 -0.45593999997E+02  0.45594000000E+02  0.51100000000E-03 0. -1.
    9900012    2    1    2    0    0 -0.28600159193E+02  0.94010285579E+01  0.27327959861E+02  0.50528857929E+02  0.29999994160E+02 0.  0.
         12    1    1    2    0    0  0.28600159193E+02 -0.94010285579E+01 -0.27327959861E+02  0.40659142071E+02  0.00000000000E+00 0. -1.
         11    1    3    3    0    0 -0.94006437455E+01  0.21963784129E+01  0.20094203601E+02  0.22292895720E+02  0.51100000000E-03 0.  1.
        -11    1    3    3    0    0 -0.20869593749E+02  0.44130813990E+01  0.11801744380E+01  0.21363708541E+02  0.51100000000E-03 0. -1.
         12    1    3    3    0    0  0.16700783009E+01  0.27915687460E+01  0.60535818217E+01  0.68722536672E+01  0.00000000000E+00 0. -1.
</event>
<event>
 7    1  0.5748623E-013  0.5052887E+02  0.7816164E-02  0.1300439E+00
        -11   -1    0    0    0    0  0.00000000000E+00  0.00000000000E+00  0.45593999997E+02  0.45594000000E+02  0.51100000000E-03 0.  1.
         11   -1    0    0    0    0 -0.00000000000E+00 -0.00000000000E+00 -0.45593999997E+02  0.45594000000E+02  0.51100000000E-03 0. -1.
    9900012    2    1    2    0    0 -0.29951362079E+02 -0.19672180768E+02  0.19211618476E+02  0.50528867311E+02  0.30000022678E+02 0.  0.
         12    1    1    2    0    0  0.29951362079E+02  0.19672180768E+02 -0.19211618476E+02  0.40659132689E+02  0.00000000000E+00 0. -1.
         11    1    3    3    0    0 -0.19309491190E+02 -0.17038777715E+02  0.16966673855E+02  0.30839008059E+02  0.51100000000E-03 0.  1.
        -11    1    3    3    0    0  0.42252189232E+01 -0.73912553478E+00  0.19188799162E+01  0.46990298891E+01  0.51100000000E-03 0. -1.
        -12    1    3    3    0    0 -0.14867089812E+02 -0.18942775183E+01  0.32606470417E+00  0.14990829363E+02  0.00000000000E+00 0.  1.
</event>
<event>
 7    1  0.5748623E-013  0.5052887E+02  0.7816164E-02  0.1300439E+00
        -11   -1    0    0    0    0  0.00000000000E+00  0.00000000000E+00  0.45593999997E+02  0.45594000000E+02  0.51100000000E-03 0.  1.
         11   -1    0    0    0    0 -0.00000000000E+00 -0.00000000000E+00 -0.45593999997E+02  0.45594000000E+02  0.51100000000E-03 0. -1.
    9900012    2    1    2    0    0 -0.31943922877E+01 -0.37888865583E+02 -0.14401203541E+02  0.50528868914E+02  0.30000027550E+02 0.  0.
         12    1    1    2    0    0  0.31943922877E+01  0.37888865583E+02  0.14401203541E+02  0.40659131086E+02  0.00000000000E+00 0. -1.
         11    1    3    3    0    0 -0.11836401733E+02 -0.22682946070E+02 -0.35742971645E+01  0.25833932122E+02  0.51100000000E-03 0. -1.
        -11    1    3    3    0    0  0.11706198477E+02 -0.13277008584E+02 -0.11363924424E+02  0.21034562470E+02  0.51100000000E-03 0.  1.
        -12    1    3    3    0    0 -0.30641890314E+01 -0.19289109296E+01  0.53701804754E+00  0.36603743221E+01  0.00000000000E+00 0.  1.
</event>
<event>
 7    1  0.5748623E-013  0.5052886E+02  0.7816164E-02  0.1300439E+00
        -11   -1    0    0    0    0  0.00000000000E+00  0.00000000000E+00  0.45593999997E+02  0.45594000000E+02  0.51100000000E-03 0.  1.
         11   -1    0    0    0    0 -0.00000000000E+00 -0.00000000000E+00 -0.45593999997E+02  0.45594000000E+02  0.51100000000E-03 0. -1.
    9900012    2    1    2    0    0 -0.30417577292E+02  0.21176125620E+02  0.16718513879E+02  0.50528855753E+02  0.29999987546E+02 0.  0.
         12    1    1    2    0    0  0.30417577292E+02 -0.21176125620E+02 -0.16718513879E+02  0.40659144247E+02  0.00000000000E+00 0. -1.
         11    1    3    3    0    0 -0.45979829588E+01  0.14843940334E+02 -0.26685677111E+01  0.15767221246E+02  0.51100000000E-03 0. -1.
        -11    1    3    3    0    0 -0.15799286070E+02 -0.11338068050E+01  0.75419500392E+01  0.17543772937E+02  0.51100000000E-03 0.  1.
         12    1    3    3    0    0 -0.10020308263E+02  0.74659920915E+01  0.11845131551E+02  0.17217861570E+02  0.00000000000E+00 0. -1.
</event>
<event>
 7    1  0.5748623E-013  0.5052886E+02  0.7816164E-02  0.1300439E+00
        -11   -1    0    0    0    0  0.00000000000E+00  0.00000000000E+00  0.45593999997E+02  0.45594000000E+02  0.51100000000E-03 0.  1.
         11   -1    0    0    0    0 -0.00000000000E+00 -0.00000000000E+00 -0.45593999997E+02  0.45594000000E+02  0.51100000000E-03 0. -1.
    9900012    2    1    2    0    0  0.69276385779E+01 -0.39851228823E+02  0.41295326257E+01  0.50528860134E+02  0.30000000864E+02 0.  0.
         12    1    1    2    0    0 -0.69276385779E+01  0.39851228823E+02 -0.41295326257E+01  0.40659139866E+02  0.00000000000E+00 0. -1.
         11    1    3    3    0    0  0.15615844764E+02 -0.21886061355E+02 -0.28100233511E+01  0.27032397615E+02  0.51100000000E-03 0. -1.
        -11    1    3    3    0    0 -0.41796642128E+01 -0.16298055340E+02  0.26090056824E+01  0.17026541390E+02  0.51100000000E-03 0.  1.
        -12    1    3    3    0    0 -0.45085419730E+01 -0.16671121282E+01  0.43305502944E+01  0.64699211296E+01  0.00000000000E+00 0.  1.
</event>
<event>
 7    1  0.5748623E-013  0.5052886E+02  0.7816164E-02  0.1300439E+00
        -11   -1    0    0    0    0  0.00000000000E+00  0.00000000000E+00  0.45593999997E+02  0.45594000000E+02  0.51100000000E-03 0.  1.
         11   -1    0    0    0    0 -0.00000000000E+00 -0.00000000000E+00 -0.45593999997E+02  0.45594000000E+02  0.51100000000E-03 0. -1.
    9900012    2    1    2    0    0  0.14559650287E+02  0.14942359573E+00  0.37962613731E+02  0.50528858528E+02  0.29999995983E+02 0.  0.
         12    1    1    2    0    0 -0.14559650287E+02 -0.14942359573E+00 -0.37962613731E+02  0.40659141472E+02  0.00000000000E+00 0. -1.
         11    1    3    3    0    0  0.44274885901E+01 -0.49410489463E+01 -0.30191377584E+01  0.72891572195E+01  0.51100000000E-03 0. -1.
        -11    1    3    3    0    0  0.57916398348E+01  0.10542828111E+01  0.31591486226E+02  0.32135286002E+02  0.51100000000E-03 0.  1.
        -12    1    3    3    0    0  0.43405218621E+01  0.40361897309E+01  0.93902652637E+01  0.11104415307E+02  0.00000000000E+00 0.  1.
</event>
<event>
 7    1  0.5748623E-013  0.5052886E+02  0.7816164E-02  0.1300439E+00
        -11   -1    0    0    0    0  0.00000000000E+00  0.00000000000E+00  0.45593999997E+02  0.45594000000E+02  0.51100000000E-03 0.  1.
         11   -1    0    0    0    0 -0.00000000000E+00 -0.00000000000E+00 -0.45593999997E+02  0.45594000000E+02  0.51100000000E-03 0. -1.
    9900012    2    1    2    0    0 -0.12796929961E+01  0.28497206892E+02  0.28973042999E+02  0.50528860370E+02  0.30000001581E+02 0.  0.
         12    1    1    2    0    0  0.12796929961E+01 -0.28497206892E+02 -0.28973042999E+02  0.40659139630E+02  0.00000000000E+00 0. -1.
         11    1    3    3    0    0  0.10821090600E+02  0.65657755354E+01  0.30309472976E+01  0.13015070186E+02  0.51100000000E-03 0. -1.
        -11    1    3    3    0    0 -0.56009200677E+01  0.18852683690E+02  0.21094708458E+02  0.28840608751E+02  0.51100000000E-03 0.  1.
         12    1    3    3    0    0 -0.64998635288E+01  0.30787476664E+01  0.48473872434E+01  0.86731814333E+01  0.00000000000E+00 0. -1.
</event>
<event>
 7    1  0.5748623E-013  0.5052887E+02  0.7816164E-02  0.1300439E+00
        -11   -1    0    0    0    0  0.00000000000E+00  0.00000000000E+00  0.45593999997E+02  0.45594000000E+02  0.51100000000E-03 0. -1.
         11   -1    0    0    0    0 -0.00000000000E+00 -0.00000000000E+00 -0.45593999997E+02  0.45594000000E+02  0.51100000000E-03 0.  1.
    9900012    2    1    2    0    0 -0.51993180539E+01 -0.83177166306E+01 -0.39458169389E+02  0.50528874951E+02  0.30000045902E+02 0.  0.
         12    1    1    2    0    0  0.51993180539E+01  0.83177166306E+01  0.39458169389E+02  0.40659125049E+02  0.00000000000E+00 0. -1.
         11    1    3    3    0    0  0.26483686306E+00 -0.55691790368E+01 -0.44524825333E+01  0.71351590507E+01  0.51100000000E-03 0. -1.
        -11    1    3    3    0    0 -0.30938138481E+01  0.72467261986E+01 -0.31605837456E+02  0.32573235735E+02  0.51100000000E-03 0.  1.
        -12    1    3    3    0    0 -0.23703410688E+01 -0.99952637924E+01 -0.33998494000E+01  0.10820480165E+02  0.00000000000E+00 0.  1.
</event>
<event>
 7    1  0.5748623E-013  0.5052886E+02  0.7816164E-02  0.1300439E+00
        -11   -1    0    0    0    0  0.00000000000E+00  0.00000000000E+00  0.45593999997E+02  0.45594000000E+02  0.51100000000E-03 0.  1.
         11   -1    0    0    0    0 -0.00000000000E+00 -0.00000000000E+00 -0.45593999997E+02  0.45594000000E+02  0.51100000000E-03 0. -1.
    9900012    2    1    2    0    0  0.20939918836E+02 -0.17790690562E+02  0.29969604165E+02  0.50528855330E+02  0.29999986260E+02 0.  0.
         12    1    1    2    0    0 -0.20939918836E+02  0.17790690562E+02 -0.29969604165E+02  0.40659144670E+02  0.00000000000E+00 0. -1.
         11    1    3    3    0    0  0.15849863998E+02 -0.13492862866E+02  0.74798495329E+01  0.22118401532E+02  0.51100000000E-03 0. -1.
        -11    1    3    3    0    0 -0.27867561457E+01  0.42255731854E+01  0.10853913773E+02  0.11976181487E+02  0.51100000000E-03 0.  1.
        -12    1    3    3    0    0  0.78768109839E+01 -0.85234008820E+01  0.11635840859E+02  0.16434272310E+02  0.00000000000E+00 0.  1.
</event>
<event>
 7    1  0.5748623E-013  0.5052887E+02  0.7816164E-02  0.1300439E+00
        -11   -1    0    0    0    0  0.00000000000E+00  0.00000000000E+00  0.45593999997E+02  0.45594000000E+02  0.51100000000E-03 0.  1.
         11   -1    0    0    0    0 -0.00000000000E+00 -0.00000000000E+00 -0.45593999997E+02  0.45594000000E+02  0.51100000000E-03 0. -1.
    9900012    2    1    2    0    0 -0.96037911646E+01  0.56635599700E+01  0.39100585401E+02  0.50528874395E+02  0.30000044212E+02 0.  0.
         12    1    1    2    0    0  0.96037911646E+01 -0.56635599700E+01 -0.39100585401E+02  0.40659125605E+02  0.00000000000E+00 0. -1.
         11    1    3    3    0    0 -0.16272367445E+02 -0.42843134374E+01  0.19462444365E+02  0.25728039662E+02  0.51100000000E-03 0. -1.
        -11    1    3    3    0    0  0.15700218024E+01 -0.17634108050E+01  0.27060164028E+01  0.35912548170E+01  0.51100000000E-03 0.  1.
         12    1    3    3    0    0  0.50985544781E+01  0.11711284212E+02  0.16932124633E+02  0.21209579917E+02  0.00000000000E+00 0. -1.
</event>
<event>
 7    1  0.5748623E-013  0.5052885E+02  0.7816164E-02  0.1300439E+00
        -11   -1    0    0    0    0  0.00000000000E+00  0.00000000000E+00  0.45593999997E+02  0.45594000000E+02  0.51100000000E-03 0. -1.
         11   -1    0    0    0    0 -0.00000000000E+00 -0.00000000000E+00 -0.45593999997E+02  0.45594000000E+02  0.51100000000E-03 0.  1.
    9900012    2    1    2    0    0  0.31982523180E+02  0.14448861323E+02 -0.20530825816E+02  0.50528853536E+02  0.29999980807E+02 0.  0.
         12    1    1    2    0    0 -0.31982523180E+02 -0.14448861323E+02  0.20530825816E+02  0.40659146464E+02  0.00000000000E+00 0. -1.
         11    1    3    3    0    0  0.52849011641E+01  0.80559708725E+01 -0.15665711548E+02  0.18391393791E+02  0.51100000000E-03 0.  1.
        -11    1    3    3    0    0  0.22568211229E+02 -0.11590825609E+01 -0.78358763467E+00  0.22611537769E+02  0.51100000000E-03 0. -1.
         12    1    3    3    0    0  0.41294107873E+01  0.75519730114E+01 -0.40815266340E+01  0.95259219753E+01  0.00000000000E+00 0. -1.
</event>
<event>
 7    1  0.5748623E-013  0.5052889E+02  0.7816164E-02  0.1300439E+00
        -11   -1    0    0    0    0  0.00000000000E+00  0.00000000000E+00  0.45593999997E+02  0.45594000000E+02  0.51100000000E-03 0. -1.
         11   -1    0    0    0    0 -0.00000000000E+00 -0.00000000000E+00 -0.45593999997E+02  0.45594000000E+02  0.51100000000E-03 0.  1.
    9900012    2    1    2    0    0 -0.37988355517E+02  0.14157089828E+02 -0.31024129300E+01  0.50528888927E+02  0.30000088382E+02 0.  0.
         12    1    1    2    0    0  0.37988355517E+02 -0.14157089828E+02  0.31024129300E+01  0.40659111073E+02  0.00000000000E+00 0. -1.
         11    1    3    3    0    0 -0.13980925292E+02  0.69611706659E+01  0.10056767091E+02  0.18575864277E+02  0.51100000000E-03 0. -1.
        -11    1    3    3    0    0 -0.94213301065E+01  0.76252397926E+01 -0.12401744196E+02  0.17340963129E+02  0.51100000000E-03 0.  1.
         12    1    3    3    0    0 -0.14586100118E+02 -0.42932063023E+00 -0.75743582534E+00  0.14612061521E+02  0.00000000000E+00 0. -1.
</event>
<event>
 7    1  0.5748623E-013  0.5052886E+02  0.7816164E-02  0.1300439E+00
        -11   -1    0    0    0    0  0.00000000000E+00  0.00000000000E+00  0.45593999997E+02  0.45594000000E+02  0.51100000000E-03 0. -1.
         11   -1    0    0    0    0 -0.00000000000E+00 -0.00000000000E+00 -0.45593999997E+02  0.45594000000E+02  0.51100000000E-03 0.  1.
    9900012    2    1    2    0    0  0.28689346015E+02  0.11640463295E+02 -0.26355012549E+02  0.50528860228E+02  0.30000001149E+02 0.  0.
         12    1    1    2    0    0 -0.28689346015E+02 -0.11640463295E+02  0.26355012549E+02  0.40659139772E+02  0.00000000000E+00 0. -1.
         11    1    3    3    0    0  0.11487977329E+02 -0.49091241464E+01 -0.62236475319E+01  0.13957324667E+02  0.51100000000E-03 0. -1.
        -11    1    3    3    0    0  0.14712174215E+02  0.13214804131E+02 -0.23855900352E+02  0.30986821396E+02  0.51100000000E-03 0.  1.
        -12    1    3    3    0    0  0.24891944722E+01  0.33347833105E+01  0.37245353349E+01  0.55847141654E+01  0.00000000000E+00 0.  1.
</event>
<event>
 7    1  0.5748623E-013  0.5052886E+02  0.7816164E-02  0.1300439E+00
        -11   -1    0    0    0    0  0.00000000000E+00  0.00000000000E+00  0.45593999997E+02  0.45594000000E+02  0.51100000000E-03 0.  1.
         11   -1    0    0    0    0 -0.00000000000E+00 -0.00000000000E+00 -0.45593999997E+02  0.45594000000E+02  0.51100000000E-03 0. -1.
    9900012    2    1    2    0    0  0.13412954329E+02  0.14687289253E+02  0.35461834549E+02  0.50528861802E+02  0.30000005933E+02 0.  0.
         12    1    1    2    0    0 -0.13412954329E+02 -0.14687289253E+02 -0.35461834549E+02  0.40659138198E+02  0.00000000000E+00 0. -1.
         11    1    3    3    0    0 -0.35536462358E+01  0.82745670913E+01  0.29834367373E+02  0.31163862709E+02  0.51100000000E-03 0. -1.
        -11    1    3    3    0    0  0.62609937743E+01  0.28546263927E+01  0.40210294008E+01  0.79697937606E+01  0.51100000000E-03 0.  1.
         12    1    3    3    0    0  0.10705606790E+02  0.35580957690E+01  0.16064377751E+01  0.11395205333E+02  0.00000000000E+00 0. -1.
</event>
<event>
 7    1  0.5748623E-013  0.5052887E+02  0.7816164E-02  0.1300439E+00
        -11   -1    0    0    0    0  0.00000000000E+00  0.00000000000E+00  0.45593999997E+02  0.45594000000E+02  0.51100000000E-03 0.  1.
         11   -1    0    0    0    0 -0.00000000000E+00 -0.00000000000E+00 -0.45593999997E+02  0.45594000000E+02  0.51100000000E-03 0. -1.
    9900012    2    1    2    0    0 -0.20141798523E+02 -0.33163881926E+02  0.12150310892E+02  0.50528866132E+02  0.30000019095E+02 0.  0.
         12    1    1    2    0    0  0.20141798523E+02  0.33163881926E+02 -0.12150310892E+02  0.40659133868E+02  0.00000000000E+00 0. -1.
         11    1    3    3    0    0  0.49374780331E+01 -0.73728780035E+01  0.81565225838E+01  0.12052671086E+02  0.51100000000E-03 0. -1.
        -11    1    3    3    0    0 -0.11381755353E+02 -0.15955664858E+02  0.79587450531E+01  0.21153468251E+02  0.51100000000E-03 0.  1.
         12    1    3    3    0    0 -0.13697521203E+02 -0.98353390641E+01 -0.39649567450E+01  0.17322726795E+02  0.00000000000E+00 0. -1.
</event>
<event>
 7    1  0.5748623E-013  0.5052886E+02  0.7816164E-02  0.1300439E+00
        -11   -1    0    0    0    0  0.00000000000E+00  0.00000000000E+00  0.45593999997E+02  0.45594000000E+02  0.51100000000E-03 0. -1.
         11   -1    0    0    0    0 -0.00000000000E+00 -0.00000000000E+00 -0.45593999997E+02  0.45594000000E+02  0.51100000000E-03 0.  1.
    9900012    2    1    2    0    0 -0.63234901944E+01  0.23519781982E+02 -0.32557622733E+02  0.50528862395E+02  0.30000007737E+02 0.  0.
         12    1    1    2    0    0  0.63234901944E+01 -0.23519781982E+02  0.32557622733E+02  0.40659137605E+02  0.00000000000E+00 0. -1.
         11    1    3    3    0    0 -0.14535133907E+01  0.10874975178E+02 -0.75255713983E+00  0.10997460107E+02  0.51100000000E-03 0. -1.
        -11    1    3    3    0    0 -0.10809975260E+02  0.77411413029E+01 -0.27876242827E+02  0.30884717065E+02  0.51100000000E-03 0.  1.
        -12    1    3    3    0    0  0.59399984566E+01  0.49036655013E+01 -0.39288227665E+01  0.86466852229E+01  0.00000000000E+00 0.  1.
</event>
<event>
 7    1  0.5748623E-013  0.5052886E+02  0.7816164E-02  0.1300439E+00
        -11   -1    0    0    0    0  0.00000000000E+00  0.00000000000E+00  0.45593999997E+02  0.45594000000E+02  0.51100000000E-03 0. -1.
         11   -1    0    0    0    0 -0.00000000000E+00 -0.00000000000E+00 -0.45593999997E+02  0.45594000000E+02  0.51100000000E-03 0.  1.
    9900012    2    1    2    0    0  0.22492653062E+02 -0.31962548930E+02  0.11208997390E+02  0.50528860826E+02  0.30000002967E+02 0.  0.
         12    1    1    2    0    0 -0.22492653062E+02  0.31962548930E+02 -0.11208997390E+02  0.40659139174E+02  0.00000000000E+00 0. -1.
         11    1    3    3    0    0 -0.54513587032E+01 -0.20544742720E+01  0.56756827740E+01  0.81333604038E+01  0.51100000000E-03 0. -1.
        -11    1    3    3    0    0  0.12072165531E+02 -0.14502893524E+02 -0.21237200463E+01  0.18988978073E+02  0.51100000000E-03 0.  1.
         12    1    3    3    0    0  0.15871846234E+02 -0.15405181134E+02  0.76570346624E+01  0.23406522349E+02  0.00000000000E+00 0. -1.
</event>
<event>
 7    1  0.5748623E-013  0.5052886E+02  0.7816164E-02  0.1300439E+00
        -11   -1    0    0    0    0  0.00000000000E+00  0.00000000000E+00  0.45593999997E+02  0.45594000000E+02  0.51100000000E-03 0. -1.
         11   -1    0    0    0    0 -0.00000000000E+00 -0.00000000000E+00 -0.45593999997E+02  0.45594000000E+02  0.51100000000E-03 0.  1.
    9900012    2    1    2    0    0 -0.29755969383E+02  0.26421559858E+02  0.83456113806E+01  0.50528858733E+02  0.29999996604E+02 0.  0.
         12    1    1    2    0    0  0.29755969383E+02 -0.26421559858E+02 -0.83456113806E+01  0.40659141267E+02  0.00000000000E+00 0. -1.
         11    1    3    3    0    0 -0.59811102457E+01 -0.53408963536E+00  0.11065974250E+02  0.12590262820E+02  0.51100000000E-03 0. -1.
        -11    1    3    3    0    0 -0.85762551011E+01  0.17912102274E+02 -0.38012430747E+01  0.20219916138E+02  0.51100000000E-03 0.  1.
        -12    1    3    3    0    0 -0.15198604036E+02  0.90435472195E+01  0.10808802054E+01  0.17718679775E+02  0.00000000000E+00 0.  1.
</event>
<event>
 7    1  0.5748623E-013  0.5052886E+02  0.7816164E-02  0.1300439E+00
        -11   -1    0    0    0    0  0.00000000000E+00  0.00000000000E+00  0.45593999997E+02  0.45594000000E+02  0.51100000000E-03 0. -1.
         11   -1    0    0    0    0 -0.00000000000E+00 -0.00000000000E+00 -0.45593999997E+02  0.45594000000E+02  0.51100000000E-03 0.  1.
    9900012    2    1    2    0    0 -0.21220447283E+02 -0.21019301373E+02 -0.27587079738E+02  0.50528863493E+02  0.30000011072E+02 0.  0.
         12    1    1    2    0    0  0.21220447283E+02  0.21019301373E+02  0.27587079738E+02  0.40659136507E+02  0.00000000000E+00 0. -1.
         11    1    3    3    0    0 -0.12586940225E+02  0.17561112477E+01  0.75444736215E+00  0.12731228614E+02  0.51100000000E-03 0. -1.
        -11    1    3    3    0    0 -0.21276918843E+01 -0.13148376669E+02 -0.13723975499E+02  0.19124706156E+02  0.51100000000E-03 0.  1.
         12    1    3    3    0    0 -0.65058151738E+01 -0.96270359508E+01 -0.14617551601E+02  0.18672928723E+02  0.00000000000E+00 0. -1.
</event>
<event>
 7    1  0.5748623E-013  0.5052887E+02  0.7816164E-02  0.1300439E+00
        -11   -1    0    0    0    0  0.00000000000E+00  0.00000000000E+00  0.45593999997E+02  0.45594000000E+02  0.51100000000E-03 0.  1.
         11   -1    0    0    0    0 -0.00000000000E+00 -0.00000000000E+00 -0.45593999997E+02  0.45594000000E+02  0.51100000000E-03 0. -1.
    9900012    2    1    2    0    0 -0.33220973466E+02  0.99812984940E+01  0.21210971256E+02  0.50528871883E+02  0.30000036575E+02 0.  0.
         12    1    1    2    0    0  0.33220973466E+02 -0.99812984940E+01 -0.21210971256E+02  0.40659128117E+02  0.00000000000E+00 0. -1.
         11    1    3    3    0    0 -0.85539364802E+01  0.26267457655E+01 -0.70712066592E+01  0.11404893095E+02  0.51100000000E-03 0. -1.
        -11    1    3    3    0    0 -0.66079797181E+01  0.12469128349E+01  0.13204634285E+02  0.14818318205E+02  0.51100000000E-03 0.  1.
         12    1    3    3    0    0 -0.18059057267E+02  0.61076398935E+01  0.15077543630E+02  0.24305660583E+02  0.00000000000E+00 0. -1.
</event>
<event>
 7    1  0.5748623E-013  0.5052888E+02  0.7816164E-02  0.1300439E+00
        -11   -1    0    0    0    0  0.00000000000E+00  0.00000000000E+00  0.45593999997E+02  0.45594000000E+02  0.51100000000E-03 0. -1.
         11   -1    0    0    0    0 -0.00000000000E+00 -0.00000000000E+00 -0.45593999997E+02  0.45594000000E+02  0.51100000000E-03 0.  1.
    9900012    2    1    2    0    0  0.15399756057E-03  0.49531201447E+01 -0.40356296433E+02  0.50528879732E+02  0.30000060433E+02 0.  0.
         12    1    1    2    0    0 -0.15399756057E-03 -0.49531201447E+01  0.40356296433E+02  0.40659120268E+02  0.00000000000E+00 0. -1.
         11    1    3    3    0    0 -0.11099569361E+02 -0.68025098065E+01 -0.17440210930E+02  0.21763169283E+02  0.51100000000E-03 0. -1.
        -11    1    3    3    0    0  0.77418494492E+01  0.84774801809E+01 -0.20479947842E+02  0.23478333991E+02  0.51100000000E-03 0.  1.
         12    1    3    3    0    0  0.33578739098E+01  0.32781497703E+01 -0.24361376608E+01  0.52873764584E+01  0.00000000000E+00 0. -1.
</event>
<event>
 7    1  0.5748623E-013  0.5052886E+02  0.7816164E-02  0.1300439E+00
        -11   -1    0    0    0    0  0.00000000000E+00  0.00000000000E+00  0.45593999997E+02  0.45594000000E+02  0.51100000000E-03 0.  1.
         11   -1    0    0    0    0 -0.00000000000E+00 -0.00000000000E+00 -0.45593999997E+02  0.45594000000E+02  0.51100000000E-03 0. -1.
    9900012    2    1    2    0    0 -0.27614607646E+02  0.82346017465E+01  0.28684320492E+02  0.50528862485E+02  0.30000008010E+02 0.  0.
         12    1    1    2    0    0  0.27614607646E+02 -0.82346017465E+01 -0.28684320492E+02  0.40659137515E+02  0.00000000000E+00 0. -1.
         11    1    3    3    0    0 -0.29887592210E+01 -0.23492652917E+01  0.15475796878E+02  0.15935872062E+02  0.51100000000E-03 0. -1.
        -11    1    3    3    0    0 -0.43111447884E+01  0.25012999627E+01 -0.43001484813E+01  0.65828373907E+01  0.51100000000E-03 0.  1.
        -12    1    3    3    0    0 -0.20314703637E+02  0.80825670756E+01  0.17508672095E+02  0.28010153033E+02  0.00000000000E+00 0.  1.
</event>
<event>
 7    1  0.5748623E-013  0.5052885E+02  0.7816164E-02  0.1300439E+00
        -11   -1    0    0    0    0  0.00000000000E+00  0.00000000000E+00  0.45593999997E+02  0.45594000000E+02  0.51100000000E-03 0.  1.
         11   -1    0    0    0    0 -0.00000000000E+00 -0.00000000000E+00 -0.45593999997E+02  0.45594000000E+02  0.51100000000E-03 0. -1.
    9900012    2    1    2    0    0  0.36153405288E+01  0.12695699736E+02  0.38456661133E+02  0.50528852635E+02  0.29999978070E+02 0.  0.
         12    1    1    2    0    0 -0.36153405288E+01 -0.12695699736E+02 -0.38456661133E+02  0.40659147365E+02  0.00000000000E+00 0. -1.
         11    1    3    3    0    0 -0.62616419627E+01  0.25445305644E+01  0.16661795483E+02  0.17980495678E+02  0.51100000000E-03 0. -1.
        -11    1    3    3    0    0  0.15431942766E+02  0.10310652918E+02  0.17688181900E+02  0.25638373590E+02  0.51100000000E-03 0.  1.
        -12    1    3    3    0    0 -0.55549602741E+01 -0.15948374707E+00  0.41066837498E+01  0.69099833670E+01  0.00000000000E+00 0.  1.
</event>
<event>
 7    1  0.5748623E-013  0.5052889E+02  0.7816164E-02  0.1300439E+00
        -11   -1    0    0    0    0  0.00000000000E+00  0.00000000000E+00  0.45593999997E+02  0.45594000000E+02  0.51100000000E-03 0. -1.
         11   -1    0    0    0    0 -0.00000000000E+00 -0.00000000000E+00 -0.45593999997E+02  0.45594000000E+02  0.51100000000E-03 0.  1.
    9900012    2    1    2    0    0  0.39520420408E+02  0.37120057959E+01 -0.88045967208E+01  0.50528886143E+02  0.30000079920E+02 0.  0.
         12    1    1    2    0    0 -0.39520420408E+02 -0.37120057959E+01  0.88045967208E+01  0.40659113857E+02  0.00000000000E+00 0. -1.
         11    1    3    3    0    0  0.24361734877E+02 -0.10451899134E+02 -0.25759212691E+01  0.26634032597E+02  0.51100000000E-03 0. -1.
        -11    1    3    3    0    0  0.56928545909E+01  0.28422744581E+01 -0.65529084855E+01  0.91338780027E+01  0.51100000000E-03 0.  1.
         12    1    3    3    0    0  0.94658309396E+01  0.11321630472E+02  0.32423303384E+00  0.14760975543E+02  0.00000000000E+00 0. -1.
</event>
<event>
 7    1  0.5748623E-013  0.5052886E+02  0.7816164E-02  0.1300439E+00
        -11   -1    0    0    0    0  0.00000000000E+00  0.00000000000E+00  0.45593999997E+02  0.45594000000E+02  0.51100000000E-03 0.  1.
         11   -1    0    0    0    0 -0.00000000000E+00 -0.00000000000E+00 -0.45593999997E+02  0.45594000000E+02  0.51100000000E-03 0. -1.
    9900012    2    1    2    0    0  0.19873427960E+02  0.32408312716E+02  0.14419228354E+02  0.50528855662E+02  0.29999987269E+02 0.  0.
         12    1    1    2    0    0 -0.19873427960E+02 -0.32408312716E+02 -0.14419228354E+02  0.40659144338E+02  0.00000000000E+00 0. -1.
         11    1    3    3    0    0  0.87861459564E+01  0.41392629322E+01  0.44472143312E+00  0.97225323760E+01  0.51100000000E-03 0. -1.
        -11    1    3    3    0    0  0.13547877078E+02  0.23405756515E+02  0.19270038862E+02  0.33207059631E+02  0.51100000000E-03 0.  1.
        -12    1    3    3    0    0 -0.24605950737E+01  0.48632932691E+01 -0.52955319419E+01  0.75992636542E+01  0.00000000000E+00 0.  1.
</event>
<event>
 7    1  0.5748623E-013  0.5052886E+02  0.7816164E-02  0.1300439E+00
        -11   -1    0    0    0    0  0.00000000000E+00  0.00000000000E+00  0.45593999997E+02  0.45594000000E+02  0.51100000000E-03 0.  1.
         11   -1    0    0    0    0 -0.00000000000E+00 -0.00000000000E+00 -0.45593999997E+02  0.45594000000E+02  0.51100000000E-03 0. -1.
    9900012    2    1    2    0    0  0.18409014512E+02  0.12744058414E+02  0.33939106378E+02  0.50528858569E+02  0.29999996106E+02 0.  0.
         12    1    1    2    0    0 -0.18409014512E+02 -0.12744058414E+02 -0.33939106378E+02  0.40659141431E+02  0.00000000000E+00 0. -1.
         11    1    3    3    0    0  0.19497467339E+02  0.47286758475E+01  0.19576778054E+02  0.28031443901E+02  0.51100000000E-03 0. -1.
        -11    1    3    3    0    0 -0.40288703824E+01 -0.28892205295E+01  0.11011129446E+01  0.50785669045E+01  0.51100000000E-03 0.  1.
        -12    1    3    3    0    0  0.29404175554E+01  0.10904603096E+02  0.13261215379E+02  0.17418847764E+02  0.00000000000E+00 0.  1.
</event>
<event>
 7    1  0.5748623E-013  0.5052887E+02  0.7816164E-02  0.1300439E+00
        -11   -1    0    0    0    0  0.00000000000E+00  0.00000000000E+00  0.45593999997E+02  0.45594000000E+02  0.51100000000E-03 0.  1.
         11   -1    0    0    0    0 -0.00000000000E+00 -0.00000000000E+00 -0.45593999997E+02  0.45594000000E+02  0.51100000000E-03 0. -1.
    9900012    2    1    2    0    0 -0.91077147856E+01  0.23108952733E+02  0.32189913577E+02  0.50528871860E+02  0.30000036505E+02 0.  0.
         12    1    1    2    0    0  0.91077147856E+01 -0.23108952733E+02 -0.32189913577E+02  0.40659128140E+02  0.00000000000E+00 0. -1.
         11    1    3    3    0    0  0.24921809573E+01 -0.63815303978E+01  0.63520272616E+01  0.93425449817E+01  0.51100000000E-03 0. -1.
        -11    1    3    3    0    0 -0.93204620446E+01  0.17832174816E+02  0.14884634348E+02  0.25028180344E+02  0.51100000000E-03 0.  1.
         12    1    3    3    0    0 -0.22794336983E+01  0.11658308315E+02  0.10953251967E+02  0.16158146534E+02  0.00000000000E+00 0. -1.
</event>
<event>
 7    1  0.5748623E-013  0.5052886E+02  0.7816164E-02  0.1300439E+00
        -11   -1    0    0    0    0  0.00000000000E+00  0.00000000000E+00  0.45593999997E+02  0.45594000000E+02  0.51100000000E-03 0. -1.
         11   -1    0    0    0    0 -0.00000000000E+00 -0.00000000000E+00 -0.45593999997E+02  0.45594000000E+02  0.51100000000E-03 0.  1.
    9900012    2    1    2    0    0  0.99789582562E+01 -0.38536912901E+02 -0.82760190888E+01  0.50528858891E+02  0.29999997084E+02 0.  0.
         12    1    1    2    0    0 -0.99789582562E+01  0.38536912901E+02  0.82760190888E+01  0.40659141109E+02  0.00000000000E+00 0. -1.
         11    1    3    3    0    0 -0.88709335151E+01 -0.16657873045E+02 -0.60341636999E+01  0.19813867054E+02  0.51100000000E-03 0. -1.
        -11    1    3    3    0    0  0.11253838525E+02 -0.16263855276E+02  0.28528398082E+01  0.19982506480E+02  0.51100000000E-03 0.  1.
        -12    1    3    3    0    0  0.75960532467E+01 -0.56151845798E+01 -0.50946951972E+01  0.10732485357E+02  0.00000000000E+00 0.  1.
</event>
<event>
 7    1  0.5748623E-013  0.5052887E+02  0.7816164E-02  0.1300439E+00
        -11   -1    0    0    0    0  0.00000000000E+00  0.00000000000E+00  0.45593999997E+02  0.45594000000E+02  0.51100000000E-03 0. -1.
         11   -1    0    0    0    0 -0.00000000000E+00 -0.00000000000E+00 -0.45593999997E+02  0.45594000000E+02  0.51100000000E-03 0.  1.
    9900012    2    1    2    0    0  0.30509997880E+02 -0.20708035925E+02  0.17131330234E+02  0.50528865749E+02  0.30000017930E+02 0.  0.
         12    1    1    2    0    0 -0.30509997880E+02  0.20708035925E+02 -0.17131330234E+02  0.40659134251E+02  0.00000000000E+00 0. -1.
         11    1    3    3    0    0 -0.29478013885E+01  0.12504980841E+01  0.28929487120E+01  0.43153714783E+01  0.51100000000E-03 0. -1.
        -11    1    3    3    0    0  0.25766237561E+02 -0.24503694668E+02  0.94076341556E+01  0.36780886763E+02  0.51100000000E-03 0.  1.
        -12    1    3    3    0    0  0.76915617069E+01  0.25451606587E+01  0.48307473662E+01  0.94326075072E+01  0.00000000000E+00 0.  1.
</event>
<event>
 7    1  0.5748623E-013  0.5052885E+02  0.7816164E-02  0.1300439E+00
        -11   -1    0    0    0    0  0.00000000000E+00  0.00000000000E+00  0.45593999997E+02  0.45594000000E+02  0.51100000000E-03 0. -1.
         11   -1    0    0    0    0 -0.00000000000E+00 -0.00000000000E+00 -0.45593999997E+02  0.45594000000E+02  0.51100000000E-03 0.  1.
    9900012    2    1    2    0    0  0.84029939355E+01 -0.36483649563E+02 -0.15858727567E+02  0.50528853028E+02  0.29999979263E+02 0.  0.
         12    1    1    2    0    0 -0.84029939355E+01  0.36483649563E+02  0.15858727567E+02  0.40659146972E+02  0.00000000000E+00 0. -1.
         11    1    3    3    0    0 -0.98840347221E+00 -0.13308010078E+02  0.58147485511E+01  0.14556489090E+02  0.51100000000E-03 0. -1.
        -11    1    3    3    0    0  0.21768960035E+01 -0.20938573486E+02 -0.17271407705E+02  0.27229841355E+02  0.51100000000E-03 0.  1.
        -12    1    3    3    0    0  0.72145014042E+01 -0.22370659981E+01 -0.44020684127E+01  0.87425225823E+01  0.00000000000E+00 0.  1.
</event>
<event>
 7    1  0.5748623E-013  0.5052886E+02  0.7816164E-02  0.1300439E+00
        -11   -1    0    0    0    0  0.00000000000E+00  0.00000000000E+00  0.45593999997E+02  0.45594000000E+02  0.51100000000E-03 0.  1.
         11   -1    0    0    0    0 -0.00000000000E+00 -0.00000000000E+00 -0.45593999997E+02  0.45594000000E+02  0.51100000000E-03 0. -1.
    9900012    2    1    2    0    0  0.11869472139E+02  0.12808608741E+02  0.36718122434E+02  0.50528863981E+02  0.30000012557E+02 0.  0.
         12    1    1    2    0    0 -0.11869472139E+02 -0.12808608741E+02 -0.36718122434E+02  0.40659136019E+02  0.00000000000E+00 0. -1.
         11    1    3    3    0    0  0.51471136536E+01  0.26998167329E+01 -0.21629966419E+01  0.62016404353E+01  0.51100000000E-03 0. -1.
        -11    1    3    3    0    0  0.47460086257E+01  0.14071748279E+02  0.36255165360E+02  0.39178766098E+02  0.51100000000E-03 0.  1.
        -12    1    3    3    0    0  0.19763498599E+01 -0.39629562700E+01  0.26259537161E+01  0.51484574472E+01  0.00000000000E+00 0.  1.
</event>
<event>
 7    1  0.5748623E-013  0.5052886E+02  0.7816164E-02  0.1300439E+00
        -11   -1    0    0    0    0  0.00000000000E+00  0.00000000000E+00  0.45593999997E+02  0.45594000000E+02  0.51100000000E-03 0.  1.
         11   -1    0    0    0    0 -0.00000000000E+00 -0.00000000000E+00 -0.45593999997E+02  0.45594000000E+02  0.51100000000E-03 0. -1.
    9900012    2    1    2    0    0  0.52627513676E+01 -0.21902527087E+02  0.33848909916E+02  0.50528856536E+02  0.29999989927E+02 0.  0.
         12    1    1    2    0    0 -0.52627513676E+01  0.21902527087E+02 -0.33848909916E+02  0.40659143464E+02  0.00000000000E+00 0. -1.
         11    1    3    3    0    0  0.13603038815E+02 -0.32363722048E+01  0.18479834804E+02  0.23173714952E+02  0.51100000000E-03 0. -1.
        -11    1    3    3    0    0 -0.99741338814E+00 -0.87644310854E+01  0.17634602996E+01  0.89955476880E+01  0.51100000000E-03 0.  1.
         12    1    3    3    0    0 -0.73428740592E+01 -0.99017237966E+01  0.13605614812E+02  0.18359593896E+02  0.00000000000E+00 0. -1.
</event>
<event>
 7    1  0.5748623E-013  0.5052886E+02  0.7816164E-02  0.1300439E+00
        -11   -1    0    0    0    0  0.00000000000E+00  0.00000000000E+00  0.45593999997E+02  0.45594000000E+02  0.51100000000E-03 0.  1.
         11   -1    0    0    0    0 -0.00000000000E+00 -0.00000000000E+00 -0.45593999997E+02  0.45594000000E+02  0.51100000000E-03 0. -1.
    9900012    2    1    2    0    0 -0.23262033073E+02 -0.20268164140E+02  0.26481035185E+02  0.50528857304E+02  0.29999992262E+02 0.  0.
         12    1    1    2    0    0  0.23262033073E+02  0.20268164140E+02 -0.26481035185E+02  0.40659142696E+02  0.00000000000E+00 0. -1.
         11    1    3    3    0    0  0.60228092610E+01  0.99718705639E+00  0.10476476104E+01  0.61940438485E+01  0.51100000000E-03 0. -1.
        -11    1    3    3    0    0 -0.11752302378E+02 -0.89997968943E+01  0.86838396490E+01  0.17161644054E+02  0.51100000000E-03 0.  1.
         12    1    3    3    0    0 -0.17532539955E+02 -0.12265554302E+02  0.16749547926E+02  0.27173169402E+02  0.00000000000E+00 0. -1.
</event>
<event>
 7    1  0.5748623E-013  0.5052886E+02  0.7816164E-02  0.1300439E+00
        -11   -1    0    0    0    0  0.00000000000E+00  0.00000000000E+00  0.45593999997E+02  0.45594000000E+02  0.51100000000E-03 0.  1.
         11   -1    0    0    0    0 -0.00000000000E+00 -0.00000000000E+00 -0.45593999997E+02  0.45594000000E+02  0.51100000000E-03 0. -1.
    9900012    2    1    2    0    0 -0.27963261032E+02 -0.28029327771E+02  0.92508594176E+01  0.50528861017E+02  0.30000003548E+02 0.  0.
         12    1    1    2    0    0  0.27963261032E+02  0.28029327771E+02 -0.92508594176E+01  0.40659138983E+02  0.00000000000E+00 0. -1.
         11    1    3    3    0    0 -0.19916974679E+01 -0.45983016735E+01 -0.75326029726E+01  0.90471733092E+01  0.51100000000E-03 0. -1.
        -11    1    3    3    0    0 -0.70948286331E+01 -0.16121486950E+02  0.64799874902E+01  0.18767769525E+02  0.51100000000E-03 0.  1.
         12    1    3    3    0    0 -0.18876734931E+02 -0.73095391479E+01  0.10303474900E+02  0.22713918183E+02  0.00000000000E+00 0. -1.
</event>
<event>
 7    1  0.5748623E-013  0.5052888E+02  0.7816164E-02  0.1300439E+00
        -11   -1    0    0    0    0  0.00000000000E+00  0.00000000000E+00  0.45593999997E+02  0.45594000000E+02  0.51100000000E-03 0.  1.
         11   -1    0    0    0    0 -0.00000000000E+00 -0.00000000000E+00 -0.45593999997E+02  0.45594000000E+02  0.51100000000E-03 0. -1.
    9900012    2    1    2    0    0 -0.28679440301E+02 -0.21596420625E+02  0.19085295152E+02  0.50528878381E+02  0.30000056327E+02 0.  0.
         12    1    1    2    0    0  0.28679440301E+02  0.21596420625E+02 -0.19085295152E+02  0.40659121619E+02  0.00000000000E+00 0. -1.
         11    1    3    3    0    0  0.45362015185E+00 -0.88532362999E+01  0.40076873473E+01  0.97286752622E+01  0.51100000000E-03 0. -1.
        -11    1    3    3    0    0 -0.24181700580E+02 -0.58180490056E+01  0.19124275665E+02  0.31374229188E+02  0.51100000000E-03 0.  1.
         12    1    3    3    0    0 -0.49513598726E+01 -0.69251353195E+01 -0.40466678599E+01  0.94259739311E+01  0.00000000000E+00 0. -1.
</event>
<event>
 7    1  0.5748623E-013  0.5052887E+02  0.7816164E-02  0.1300439E+00
        -11   -1    0    0    0    0  0.00000000000E+00  0.00000000000E+00  0.45593999997E+02  0.45594000000E+02  0.51100000000E-03 0.  1.
         11   -1    0    0    0    0 -0.00000000000E+00 -0.00000000000E+00 -0.45593999997E+02  0.45594000000E+02  0.51100000000E-03 0. -1.
    9900012    2    1    2    0    0  0.10991048839E+02 -0.37417639124E+02 -0.11501384695E+02  0.50528871602E+02  0.30000035722E+02 0.  0.
         12    1    1    2    0    0 -0.10991048839E+02  0.37417639124E+02  0.11501384695E+02  0.40659128398E+02  0.00000000000E+00 0. -1.
         11    1    3    3    0    0 -0.37246157574E+01 -0.14753498911E+02  0.32254062799E+01  0.15554476481E+02  0.51100000000E-03 0. -1.
        -11    1    3    3    0    0  0.12259705580E+02 -0.25284391997E+02 -0.13541760095E+02  0.31192629358E+02  0.51100000000E-03 0.  1.
        -12    1    3    3    0    0  0.24559590164E+01  0.26202517839E+01 -0.11850308794E+01  0.37817657630E+01  0.00000000000E+00 0.  1.
</event>
<event>
 7    1  0.5748623E-013  0.5052885E+02  0.7816164E-02  0.1300439E+00
        -11   -1    0    0    0    0  0.00000000000E+00  0.00000000000E+00  0.45593999997E+02  0.45594000000E+02  0.51100000000E-03 0.  1.
         11   -1    0    0    0    0 -0.00000000000E+00 -0.00000000000E+00 -0.45593999997E+02  0.45594000000E+02  0.51100000000E-03 0. -1.
    9900012    2    1    2    0    0 -0.38481100870E+02  0.12311957162E+02 -0.45592486961E+01  0.50528853895E+02  0.29999981900E+02 0.  0.
         12    1    1    2    0    0  0.38481100870E+02 -0.12311957162E+02  0.45592486961E+01  0.40659146105E+02  0.00000000000E+00 0. -1.
         11    1    3    3    0    0 -0.14898355905E+01 -0.42503829064E+01 -0.49172556384E+00  0.45306908115E+01  0.51100000000E-03 0. -1.
        -11    1    3    3    0    0 -0.35059602518E+02  0.20523798082E+02 -0.62111095065E+01  0.41097200610E+02  0.51100000000E-03 0.  1.
        -12    1    3    3    0    0 -0.19316627611E+01 -0.39614580143E+01  0.21435863743E+01  0.49009624734E+01  0.00000000000E+00 0.  1.
</event>
<event>
 7    1  0.5748623E-013  0.5052886E+02  0.7816164E-02  0.1300439E+00
        -11   -1    0    0    0    0  0.00000000000E+00  0.00000000000E+00  0.45593999997E+02  0.45594000000E+02  0.51100000000E-03 0. -1.
         11   -1    0    0    0    0 -0.00000000000E+00 -0.00000000000E+00 -0.45593999997E+02  0.45594000000E+02  0.51100000000E-03 0.  1.
    9900012    2    1    2    0    0  0.33687288425E+02 -0.19581247082E+02 -0.11614944461E+02  0.50528861131E+02  0.30000003895E+02 0.  0.
         12    1    1    2    0    0 -0.33687288425E+02  0.19581247082E+02  0.11614944461E+02  0.40659138869E+02  0.00000000000E+00 0. -1.
         11    1    3    3    0    0  0.12211060715E+02 -0.17553884491E+02 -0.28066424478E+00  0.21385220064E+02  0.51100000000E-03 0. -1.
        -11    1    3    3    0    0  0.17648226683E+02  0.54247103003E+01 -0.74571156873E+01  0.19912206345E+02  0.51100000000E-03 0.  1.
        -12    1    3    3    0    0  0.38280010272E+01 -0.74520728919E+01 -0.38771645291E+01  0.92314347225E+01  0.00000000000E+00 0.  1.
</event>
<event>
 7    1  0.5748623E-013  0.5052886E+02  0.7816164E-02  0.1300439E+00
        -11   -1    0    0    0    0  0.00000000000E+00  0.00000000000E+00  0.45593999997E+02  0.45594000000E+02  0.51100000000E-03 0.  1.
         11   -1    0    0    0    0 -0.00000000000E+00 -0.00000000000E+00 -0.45593999997E+02  0.45594000000E+02  0.51100000000E-03 0. -1.
    9900012    2    1    2    0    0  0.39830599744E+02 -0.36853102099E+01  0.72874749928E+01  0.50528862293E+02  0.30000007424E+02 0.  0.
         12    1    1    2    0    0 -0.39830599744E+02  0.36853102099E+01 -0.72874749928E+01  0.40659137707E+02  0.00000000000E+00 0. -1.
         11    1    3    3    0    0 -0.28252340392E+01 -0.23842162401E+01 -0.40223359448E+01  0.54631146034E+01  0.51100000000E-03 0. -1.
        -11    1    3    3    0    0  0.36433428181E+02  0.65918888414E-01  0.63292748441E+01  0.36979166494E+02  0.51100000000E-03 0.  1.
        -12    1    3    3    0    0  0.62224056029E+01 -0.13670128582E+01  0.49805360935E+01  0.80865811948E+01  0.00000000000E+00 0.  1.
</event>
<event>
 7    1  0.5748623E-013  0.5052886E+02  0.7816164E-02  0.1300439E+00
        -11   -1    0    0    0    0  0.00000000000E+00  0.00000000000E+00  0.45593999997E+02  0.45594000000E+02  0.51100000000E-03 0.  1.
         11   -1    0    0    0    0 -0.00000000000E+00 -0.00000000000E+00 -0.45593999997E+02  0.45594000000E+02  0.51100000000E-03 0. -1.
    9900012    2    1    2    0    0  0.18035053766E+01 -0.24183346764E+02  0.32635543130E+02  0.50528861203E+02  0.30000004111E+02 0.  0.
         12    1    1    2    0    0 -0.18035053766E+01  0.24183346764E+02 -0.32635543130E+02  0.40659138797E+02  0.00000000000E+00 0. -1.
         11    1    3    3    0    0  0.28539675959E+01 -0.68637716258E+01  0.32714559035E+01  0.81215094632E+01  0.51100000000E-03 0. -1.
        -11    1    3    3    0    0  0.73960806571E+01 -0.53459237576E+01  0.25744139351E+02  0.27313762485E+02  0.51100000000E-03 0.  1.
        -12    1    3    3    0    0 -0.84465428764E+01 -0.11973651381E+02  0.36199478753E+01  0.15093589254E+02  0.00000000000E+00 0.  1.
</event>
<event>
 7    1  0.5748623E-013  0.5052887E+02  0.7816164E-02  0.1300439E+00
        -11   -1    0    0    0    0  0.00000000000E+00  0.00000000000E+00  0.45593999997E+02  0.45594000000E+02  0.51100000000E-03 0. -1.
         11   -1    0    0    0    0 -0.00000000000E+00 -0.00000000000E+00 -0.45593999997E+02  0.45594000000E+02  0.51100000000E-03 0.  1.
    9900012    2    1    2    0    0 -0.27437742741E+02 -0.17452194947E+02 -0.24408121805E+02  0.50528865169E+02  0.30000016166E+02 0.  0.
         12    1    1    2    0    0  0.27437742741E+02  0.17452194947E+02  0.24408121805E+02  0.40659134831E+02  0.00000000000E+00 0. -1.
         11    1    3    3    0    0 -0.10444509567E+00 -0.31837910247E+01 -0.14399070223E+02  0.14747225420E+02  0.51100000000E-03 0. -1.
        -11    1    3    3    0    0 -0.18588917865E+02 -0.10095441051E+02  0.92342213028E+00  0.21173533151E+02  0.51100000000E-03 0.  1.
        -12    1    3    3    0    0 -0.87443797803E+01 -0.41729628716E+01 -0.10932473712E+02  0.14608106597E+02  0.00000000000E+00 0.  1.
</event>
<event>
 7    1  0.5748623E-013  0.5052884E+02  0.7816164E-02  0.1300439E+00
        -11   -1    0    0    0    0  0.00000000000E+00  0.00000000000E+00  0.45593999997E+02  0.45594000000E+02  0.51100000000E-03 0. -1.
         11   -1    0    0    0    0 -0.00000000000E+00 -0.00000000000E+00 -0.45593999997E+02  0.45594000000E+02  0.51100000000E-03 0.  1.
    9900012    2    1    2    0    0 -0.10801428063E+02  0.20515483266E+02 -0.33400767389E+02  0.50528841572E+02  0.29999944443E+02 0.  0.
         12    1    1    2    0    0  0.10801428063E+02 -0.20515483266E+02  0.33400767389E+02  0.40659158428E+02  0.00000000000E+00 0. -1.
         11    1    3    3    0    0 -0.19653004455E+01  0.32511386801E+01 -0.20486997504E+02  0.20836251475E+02  0.51100000000E-03 0. -1.
        -11    1    3    3    0    0  0.16245833497E+01  0.16110848647E+02 -0.72545223970E+01  0.17743359622E+02  0.51100000000E-03 0.  1.
        -12    1    3    3    0    0 -0.10460710967E+02  0.11534959389E+01 -0.56592474885E+01  0.11949230476E+02  0.00000000000E+00 0.  1.
</event>
<event>
 7    1  0.5748623E-013  0.5052887E+02  0.7816164E-02  0.1300439E+00
        -11   -1    0    0    0    0  0.00000000000E+00  0.00000000000E+00  0.45593999997E+02  0.45594000000E+02  0.51100000000E-03 0.  1.
         11   -1    0    0    0    0 -0.00000000000E+00 -0.00000000000E+00 -0.45593999997E+02  0.45594000000E+02  0.51100000000E-03 0. -1.
    9900012    2    1    2    0    0  0.12121900033E+02  0.12006865604E+02  0.36906095709E+02  0.50528865940E+02  0.30000018511E+02 0.  0.
         12    1    1    2    0    0 -0.12121900033E+02 -0.12006865604E+02 -0.36906095709E+02  0.40659134060E+02  0.00000000000E+00 0. -1.
         11    1    3    3    0    0  0.85554560603E+00  0.12994120545E+02  0.10088568600E+02  0.16472957952E+02  0.51100000000E-03 0. -1.
        -11    1    3    3    0    0  0.26086187280E+01 -0.52765146768E+01  0.22875576440E+02  0.23620721761E+02  0.51100000000E-03 0.  1.
         12    1    3    3    0    0  0.86577356988E+01  0.42892597361E+01  0.39419506684E+01  0.10435186227E+02  0.00000000000E+00 0. -1.
</event>
<event>
 7    1  0.5748623E-013  0.5052875E+02  0.7816164E-02  0.1300439E+00
        -11   -1    0    0    0    0  0.00000000000E+00  0.00000000000E+00  0.45593999997E+02  0.45594000000E+02  0.51100000000E-03 0.  1.
         11   -1    0    0    0    0 -0.00000000000E+00 -0.00000000000E+00 -0.45593999997E+02  0.45594000000E+02  0.51100000000E-03 0. -1.
    9900012    2    1    2    0    0 -0.38428613576E+02 -0.54332938714E+01  0.12120052866E+02  0.50528748836E+02  0.29999662561E+02 0.  0.
         12    1    1    2    0    0  0.38428613576E+02  0.54332938714E+01 -0.12120052866E+02  0.40659251164E+02  0.00000000000E+00 0. -1.
         11    1    3    3    0    0  0.31606746150E+01  0.17963262968E+01 -0.73229307696E+00  0.37084910136E+01  0.51100000000E-03 0. -1.
        -11    1    3    3    0    0 -0.19040211649E+02  0.17376179070E+01  0.11929977555E+02  0.22536045358E+02  0.51100000000E-03 0.  1.
        -12    1    3    3    0    0 -0.22549076542E+02 -0.89672380752E+01  0.92236838785E+00  0.24284212465E+02  0.00000000000E+00 0.  1.
</event>
<event>
 7    1  0.6232794E-013  0.5052887E+02  0.7816164E-02  0.1300439E+00
        -11   -1    0    0    0    0  0.00000000000E+00  0.00000000000E+00  0.45593999997E+02  0.45594000000E+02  0.51100000000E-03 0.  1.
         11   -1    0    0    0    0 -0.00000000000E+00 -0.00000000000E+00 -0.45593999997E+02  0.45594000000E+02  0.51100000000E-03 0. -1.
    9900012    2    1    2    0    0  0.40448234994E+02  0.31579158376E+01 -0.26707393473E+01  0.50528868243E+02  0.30000025512E+02 0.  0.
         12    1    1    2    0    0 -0.40448234994E+02 -0.31579158376E+01  0.26707393473E+01  0.40659131757E+02  0.00000000000E+00 0. -1.
         11    1    3    3    0    0 -0.11099005701E+01 -0.44868684202E+01 -0.24210085088E+01  0.52177725091E+01  0.51100000000E-03 0. -1.
        -11    1    3    3    0    0  0.27944087856E+02  0.51346238260E+01  0.75814675362E+01  0.29406037785E+02  0.51100000000E-03 0.  1.
        -12    1    3    3    0    0  0.13614047708E+02  0.25101604318E+01 -0.78311983747E+01  0.15905057949E+02  0.00000000000E+00 0.  1.
</event>
<event>
 7    1  0.5748623E-013  0.5052886E+02  0.7816164E-02  0.1300439E+00
        -11   -1    0    0    0    0  0.00000000000E+00  0.00000000000E+00  0.45593999997E+02  0.45594000000E+02  0.51100000000E-03 0. -1.
         11   -1    0    0    0    0 -0.00000000000E+00 -0.00000000000E+00 -0.45593999997E+02  0.45594000000E+02  0.51100000000E-03 0.  1.
    9900012    2    1    2    0    0 -0.30038866071E+02 -0.55446070991E+01 -0.26834488168E+02  0.50528857142E+02  0.29999991768E+02 0.  0.
         12    1    1    2    0    0  0.30038866071E+02  0.55446070991E+01  0.26834488168E+02  0.40659142858E+02  0.00000000000E+00 0. -1.
         11    1    3    3    0    0 -0.23912899419E+02  0.20576377134E+01 -0.30485338377E+02  0.38799697006E+02  0.51100000000E-03 0. -1.
        -11    1    3    3    0    0 -0.25203105773E+01 -0.55142621538E+01 -0.18501029302E+00  0.60657465803E+01  0.51100000000E-03 0.  1.
        -12    1    3    3    0    0 -0.36056560749E+01 -0.20879826587E+01  0.38358605012E+01  0.56634135553E+01  0.00000000000E+00 0.  1.
</event>
<event>
 7    1  0.5748623E-013  0.5052884E+02  0.7816164E-02  0.1300439E+00
        -11   -1    0    0    0    0  0.00000000000E+00  0.00000000000E+00  0.45593999997E+02  0.45594000000E+02  0.51100000000E-03 0.  1.
         11   -1    0    0    0    0 -0.00000000000E+00 -0.00000000000E+00 -0.45593999997E+02  0.45594000000E+02  0.51100000000E-03 0. -1.
    9900012    2    1    2    0    0  0.13960855118E+02 -0.21001744034E+01  0.38129399575E+02  0.50528839653E+02  0.29999938610E+02 0.  0.
         12    1    1    2    0    0 -0.13960855118E+02  0.21001744034E+01 -0.38129399575E+02  0.40659160347E+02  0.00000000000E+00 0. -1.
         11    1    3    3    0    0 -0.13144988872E+00 -0.46450147057E+01 -0.35011746151E+01  0.58182183386E+01  0.51100000000E-03 0. -1.
        -11    1    3    3    0    0  0.80529808786E+01  0.49516678239E+01  0.19954189425E+02  0.22080289652E+02  0.51100000000E-03 0.  1.
         12    1    3    3    0    0  0.60393241276E+01 -0.24068275216E+01  0.21676384766E+02  0.22630331662E+02  0.00000000000E+00 0. -1.
</event>
<event>
 7    1  0.5748623E-013  0.5052886E+02  0.7816164E-02  0.1300439E+00
        -11   -1    0    0    0    0  0.00000000000E+00  0.00000000000E+00  0.45593999997E+02  0.45594000000E+02  0.51100000000E-03 0.  1.
         11   -1    0    0    0    0 -0.00000000000E+00 -0.00000000000E+00 -0.45593999997E+02  0.45594000000E+02  0.51100000000E-03 0. -1.
    9900012    2    1    2    0    0 -0.22453697895E+02 -0.33870028673E+02  0.13484297617E+01  0.50528860139E+02  0.30000000877E+02 0.  0.
         12    1    1    2    0    0  0.22453697895E+02  0.33870028673E+02 -0.13484297617E+01  0.40659139861E+02  0.00000000000E+00 0. -1.
         11    1    3    3    0    0 -0.81155710498E+00  0.46827537422E+01 -0.99262563541E+00  0.48551120953E+01  0.51100000000E-03 0. -1.
        -11    1    3    3    0    0 -0.12632019267E+02 -0.17321136124E+02  0.61368622304E+01  0.22299119841E+02  0.51100000000E-03 0.  1.
         12    1    3    3    0    0 -0.90101215229E+01 -0.21231646291E+02 -0.37958068333E+01  0.23374628202E+02  0.00000000000E+00 0. -1.
</event>
<event>
 7    1  0.5748623E-013  0.5052886E+02  0.7816164E-02  0.1300439E+00
        -11   -1    0    0    0    0  0.00000000000E+00  0.00000000000E+00  0.45593999997E+02  0.45594000000E+02  0.51100000000E-03 0. -1.
         11   -1    0    0    0    0 -0.00000000000E+00 -0.00000000000E+00 -0.45593999997E+02  0.45594000000E+02  0.51100000000E-03 0.  1.
    9900012    2    1    2    0    0 -0.28825273702E+02 -0.17371325212E+02 -0.22814605416E+02  0.50528861249E+02  0.30000004254E+02 0.  0.
         12    1    1    2    0    0  0.28825273702E+02  0.17371325212E+02  0.22814605416E+02  0.40659138751E+02  0.00000000000E+00 0. -1.
         11    1    3    3    0    0  0.11856722248E+01 -0.68411119416E+01  0.47310704191E+01  0.84017652189E+01  0.51100000000E-03 0. -1.
        -11    1    3    3    0    0 -0.25889099296E+02 -0.83238509326E+01 -0.23264039043E+02  0.35787532320E+02  0.51100000000E-03 0.  1.
         12    1    3    3    0    0 -0.41218466308E+01 -0.22063623377E+01 -0.42816367923E+01  0.63395637101E+01  0.00000000000E+00 0. -1.
</event>
<event>
 7    1  0.5748623E-013  0.5052885E+02  0.7816164E-02  0.1300439E+00
        -11   -1    0    0    0    0  0.00000000000E+00  0.00000000000E+00  0.45593999997E+02  0.45594000000E+02  0.51100000000E-03 0. -1.
         11   -1    0    0    0    0 -0.00000000000E+00 -0.00000000000E+00 -0.45593999997E+02  0.45594000000E+02  0.51100000000E-03 0.  1.
    9900012    2    1    2    0    0 -0.44934945622E+00  0.32461219136E+02 -0.24479251206E+02  0.50528850940E+02  0.29999972916E+02 0.  0.
         12    1    1    2    0    0  0.44934945622E+00 -0.32461219136E+02  0.24479251206E+02  0.40659149060E+02  0.00000000000E+00 0. -1.
         11    1    3    3    0    0 -0.20966049380E+00 -0.53946906105E+00 -0.12736187133E+02  0.12749331251E+02  0.51100000000E-03 0.  1.
        -11    1    3    3    0    0 -0.70059309764E+01  0.17249927041E+02 -0.44048372392E+01  0.19132319335E+02  0.51100000000E-03 0. -1.
        -12    1    3    3    0    0  0.67662420140E+01  0.15750761156E+02 -0.73382268339E+01  0.18647200354E+02  0.00000000000E+00 0.  1.
</event>
<event>
 7    1  0.5748623E-013  0.5052898E+02  0.7816164E-02  0.1300438E+00
        -11   -1    0    0    0    0  0.00000000000E+00  0.00000000000E+00  0.45593999997E+02  0.45594000000E+02  0.51100000000E-03 0. -1.
         11   -1    0    0    0    0 -0.00000000000E+00 -0.00000000000E+00 -0.45593999997E+02  0.45594000000E+02  0.51100000000E-03 0.  1.
    9900012    2    1    2    0    0 -0.11321238028E+02  0.94775223890E+01 -0.37883534802E+02  0.50528977997E+02  0.30000359117E+02 0.  0.
         12    1    1    2    0    0  0.11321238028E+02 -0.94775223890E+01  0.37883534802E+02  0.40659022003E+02  0.00000000000E+00 0. -1.
         11    1    3    3    0    0  0.13075957068E+01 -0.29501670758E+01 -0.15302127289E+02  0.15638682558E+02  0.51100000000E-03 0. -1.
        -11    1    3    3    0    0 -0.13888656777E+02  0.11419572091E+02 -0.71105010227E+01  0.19335476174E+02  0.51100000000E-03 0.  1.
        -12    1    3    3    0    0  0.12598230416E+01  0.10081173734E+01 -0.15470906490E+02  0.15554819265E+02  0.00000000000E+00 0.  1.
</event>
<event>
 7    1  0.5748623E-013  0.5052886E+02  0.7816164E-02  0.1300439E+00
        -11   -1    0    0    0    0  0.00000000000E+00  0.00000000000E+00  0.45593999997E+02  0.45594000000E+02  0.51100000000E-03 0.  1.
         11   -1    0    0    0    0 -0.00000000000E+00 -0.00000000000E+00 -0.45593999997E+02  0.45594000000E+02  0.51100000000E-03 0. -1.
    9900012    2    1    2    0    0  0.38049296086E+02  0.10857928308E+02 -0.93553353911E+01  0.50528857854E+02  0.29999993933E+02 0.  0.
         12    1    1    2    0    0 -0.38049296086E+02 -0.10857928308E+02  0.93553353911E+01  0.40659142146E+02  0.00000000000E+00 0. -1.
         11    1    3    3    0    0  0.40049304426E+02  0.35167467161E+01 -0.10261497552E+02  0.41492320070E+02  0.51100000000E-03 0. -1.
        -11    1    3    3    0    0 -0.10449328581E+01  0.76334933131E+01  0.25186424525E-01  0.77047218935E+01  0.51100000000E-03 0.  1.
         12    1    3    3    0    0 -0.95507548249E+00 -0.29231172134E+00  0.88097573613E+00  0.13318158909E+01  0.00000000000E+00 0. -1.
</event>
<event>
 7    1  0.5748623E-013  0.5052886E+02  0.7816164E-02  0.1300439E+00
        -11   -1    0    0    0    0  0.00000000000E+00  0.00000000000E+00  0.45593999997E+02  0.45594000000E+02  0.51100000000E-03 0.  1.
         11   -1    0    0    0    0 -0.00000000000E+00 -0.00000000000E+00 -0.45593999997E+02  0.45594000000E+02  0.51100000000E-03 0. -1.
    9900012    2    1    2    0    0  0.79115995292E+01  0.20497230359E+02  0.34211630396E+02  0.50528861865E+02  0.30000006126E+02 0.  0.
         12    1    1    2    0    0 -0.79115995292E+01 -0.20497230359E+02 -0.34211630396E+02  0.40659138135E+02  0.00000000000E+00 0. -1.
         11    1    3    3    0    0 -0.20480225375E+01  0.39091261960E+01 -0.35806886229E+01  0.56830445367E+01  0.51100000000E-03 0. -1.
        -11    1    3    3    0    0  0.11404168642E+02  0.12781589262E+02  0.36893749964E+02  0.40676441255E+02  0.51100000000E-03 0.  1.
        -12    1    3    3    0    0 -0.14445465755E+01  0.38065149007E+01  0.89856905506E+00  0.41693760738E+01  0.00000000000E+00 0.  1.
</event>
<event>
 7    1  0.5748623E-013  0.5052886E+02  0.7816164E-02  0.1300439E+00
        -11   -1    0    0    0    0  0.00000000000E+00  0.00000000000E+00  0.45593999997E+02  0.45594000000E+02  0.51100000000E-03 0.  1.
         11   -1    0    0    0    0 -0.00000000000E+00 -0.00000000000E+00 -0.45593999997E+02  0.45594000000E+02  0.51100000000E-03 0. -1.
    9900012    2    1    2    0    0 -0.17100172980E+01 -0.27240468380E+02  0.30136326719E+02  0.50528862468E+02  0.30000007956E+02 0.  0.
         12    1    1    2    0    0  0.17100172980E+01  0.27240468380E+02 -0.30136326719E+02  0.40659137532E+02  0.00000000000E+00 0. -1.
         11    1    3    3    0    0  0.12144485196E+02 -0.19050114576E+02  0.10930726253E+02  0.25097333777E+02  0.51100000000E-03 0. -1.
        -11    1    3    3    0    0 -0.76469190793E+01 -0.47270126847E+01  0.13931290878E+02  0.16580135287E+02  0.51100000000E-03 0.  1.
         12    1    3    3    0    0 -0.62075834145E+01 -0.34633411193E+01  0.52743095879E+01  0.88513934036E+01  0.00000000000E+00 0. -1.
</event>
<event>
 7    1  0.5748623E-013  0.5052886E+02  0.7816164E-02  0.1300439E+00
        -11   -1    0    0    0    0  0.00000000000E+00  0.00000000000E+00  0.45593999997E+02  0.45594000000E+02  0.51100000000E-03 0. -1.
         11   -1    0    0    0    0 -0.00000000000E+00 -0.00000000000E+00 -0.45593999997E+02  0.45594000000E+02  0.51100000000E-03 0.  1.
    9900012    2    1    2    0    0 -0.12532359932E+02  0.35424087330E+02 -0.15531887874E+02  0.50528861427E+02  0.30000004793E+02 0.  0.
         12    1    1    2    0    0  0.12532359932E+02 -0.35424087330E+02  0.15531887874E+02  0.40659138573E+02  0.00000000000E+00 0. -1.
         11    1    3    3    0    0  0.50045261496E+00  0.12340761218E+02  0.74949222196E+01  0.14447100041E+02  0.51100000000E-03 0. -1.
        -11    1    3    3    0    0 -0.12057161954E+02  0.18966903029E+02 -0.15037556520E+02  0.27041573017E+02  0.51100000000E-03 0.  1.
         12    1    3    3    0    0 -0.97565059237E+00  0.41164230833E+01 -0.79892535737E+01  0.90401883689E+01  0.00000000000E+00 0. -1.
</event>
<event>
 7    1  0.5748623E-013  0.5052886E+02  0.7816164E-02  0.1300439E+00
        -11   -1    0    0    0    0  0.00000000000E+00  0.00000000000E+00  0.45593999997E+02  0.45594000000E+02  0.51100000000E-03 0.  1.
         11   -1    0    0    0    0 -0.00000000000E+00 -0.00000000000E+00 -0.45593999997E+02  0.45594000000E+02  0.51100000000E-03 0. -1.
    9900012    2    1    2    0    0 -0.16208283897E+02  0.29320065241E+02  0.23038905690E+02  0.50528857510E+02  0.29999992888E+02 0.  0.
         12    1    1    2    0    0  0.16208283897E+02 -0.29320065241E+02 -0.23038905690E+02  0.40659142490E+02  0.00000000000E+00 0. -1.
         11    1    3    3    0    0 -0.13452129504E+02  0.67474637449E+01  0.13818585928E+02  0.20431382051E+02  0.51100000000E-03 0.  1.
        -11    1    3    3    0    0  0.64943164858E+01  0.45532711738E+01  0.22461054467E+00  0.79346628887E+01  0.51100000000E-03 0. -1.
         12    1    3    3    0    0 -0.92504708791E+01  0.18019330322E+02  0.89957092168E+01  0.22162812571E+02  0.00000000000E+00 0. -1.
</event>
<event>
 7    1  0.5748623E-013  0.5052886E+02  0.7816164E-02  0.1300439E+00
        -11   -1    0    0    0    0  0.00000000000E+00  0.00000000000E+00  0.45593999997E+02  0.45594000000E+02  0.51100000000E-03 0. -1.
         11   -1    0    0    0    0 -0.00000000000E+00 -0.00000000000E+00 -0.45593999997E+02  0.45594000000E+02  0.51100000000E-03 0.  1.
    9900012    2    1    2    0    0 -0.24818124330E+02 -0.31559624503E+02  0.64199792742E+01  0.50528864152E+02  0.30000013077E+02 0.  0.
         12    1    1    2    0    0  0.24818124330E+02  0.31559624503E+02 -0.64199792742E+01  0.40659135848E+02  0.00000000000E+00 0. -1.
         11    1    3    3    0    0  0.34150997669E+00 -0.12582232608E+01  0.25955746487E+01  0.29046106204E+01  0.51100000000E-03 0. -1.
        -11    1    3    3    0    0 -0.27450327895E+02 -0.33639723795E+02  0.33374974915E+01  0.43546416710E+02  0.51100000000E-03 0.  1.
        -12    1    3    3    0    0  0.22906935891E+01  0.33383225527E+01  0.48690713400E+00  0.40778368215E+01  0.00000000000E+00 0.  1.
</event>
<event>
 7    1  0.5748623E-013  0.5052887E+02  0.7816164E-02  0.1300439E+00
        -11   -1    0    0    0    0  0.00000000000E+00  0.00000000000E+00  0.45593999997E+02  0.45594000000E+02  0.51100000000E-03 0. -1.
         11   -1    0    0    0    0 -0.00000000000E+00 -0.00000000000E+00 -0.45593999997E+02  0.45594000000E+02  0.51100000000E-03 0.  1.
    9900012    2    1    2    0    0 -0.37506272102E+02 -0.63339114977E+01  0.14364056983E+02  0.50528868002E+02  0.30000024777E+02 0.  0.
         12    1    1    2    0    0  0.37506272102E+02  0.63339114977E+01 -0.14364056983E+02  0.40659131998E+02  0.00000000000E+00 0. -1.
         11    1    3    3    0    0 -0.12658791498E+02 -0.15703703116E+02  0.40832164790E+01  0.20579697539E+02  0.51100000000E-03 0. -1.
        -11    1    3    3    0    0 -0.19002345675E+02  0.26253293003E+01  0.64675416746E+01  0.20243779061E+02  0.51100000000E-03 0.  1.
         12    1    3    3    0    0 -0.58451349286E+01  0.67444623175E+01  0.38132988294E+01  0.97053914011E+01  0.00000000000E+00 0. -1.
</event>
<event>
 7    1  0.5748623E-013  0.5052880E+02  0.7816164E-02  0.1300439E+00
        -11   -1    0    0    0    0  0.00000000000E+00  0.00000000000E+00  0.45593999997E+02  0.45594000000E+02  0.51100000000E-03 0. -1.
         11   -1    0    0    0    0 -0.00000000000E+00 -0.00000000000E+00 -0.45593999997E+02  0.45594000000E+02  0.51100000000E-03 0.  1.
    9900012    2    1    2    0    0  0.12977786657E+02  0.24237338448E+02 -0.29954947795E+02  0.50528801546E+02  0.29999822779E+02 0.  0.
         12    1    1    2    0    0 -0.12977786657E+02 -0.24237338448E+02  0.29954947795E+02  0.40659198454E+02  0.00000000000E+00 0. -1.
         11    1    3    3    0    0  0.13020072216E+01 -0.60183606573E+01 -0.22865329571E+00  0.61618317404E+01  0.51100000000E-03 0. -1.
        -11    1    3    3    0    0  0.57302132310E+01  0.13759645359E+02 -0.17517382418E+02  0.23000475454E+02  0.51100000000E-03 0.  1.
         12    1    3    3    0    0  0.59455662040E+01  0.16496053745E+02 -0.12208912082E+02  0.21366494352E+02  0.00000000000E+00 0. -1.
</event>
<event>
 7    1  0.5748623E-013  0.5052886E+02  0.7816164E-02  0.1300439E+00
        -11   -1    0    0    0    0  0.00000000000E+00  0.00000000000E+00  0.45593999997E+02  0.45594000000E+02  0.51100000000E-03 0.  1.
         11   -1    0    0    0    0 -0.00000000000E+00 -0.00000000000E+00 -0.45593999997E+02  0.45594000000E+02  0.51100000000E-03 0. -1.
    9900012    2    1    2    0    0 -0.93816479465E+01 -0.30864919131E+02  0.24748880014E+02  0.50528860645E+02  0.30000002415E+02 0.  0.
         12    1    1    2    0    0  0.93816479465E+01  0.30864919131E+02 -0.24748880014E+02  0.40659139355E+02  0.00000000000E+00 0. -1.
         11    1    3    3    0    0 -0.41204773865E+01  0.39746580492E+01 -0.95493186259E+00  0.58041481394E+01  0.51100000000E-03 0. -1.
        -11    1    3    3    0    0  0.20384175963E+01 -0.99635066623E+01  0.10740556196E+02  0.14791421803E+02  0.51100000000E-03 0.  1.
         12    1    3    3    0    0 -0.72995881564E+01 -0.24876070518E+02  0.14963255681E+02  0.29933290702E+02  0.00000000000E+00 0. -1.
</event>
<event>
 7    1  0.5748623E-013  0.5052885E+02  0.7816164E-02  0.1300439E+00
        -11   -1    0    0    0    0  0.00000000000E+00  0.00000000000E+00  0.45593999997E+02  0.45594000000E+02  0.51100000000E-03 0. -1.
         11   -1    0    0    0    0 -0.00000000000E+00 -0.00000000000E+00 -0.45593999997E+02  0.45594000000E+02  0.51100000000E-03 0.  1.
    9900012    2    1    2    0    0 -0.18142209376E+02 -0.87583030539E+01 -0.35317395766E+02  0.50528854939E+02  0.29999985071E+02 0.  0.
         12    1    1    2    0    0  0.18142209376E+02  0.87583030539E+01  0.35317395766E+02  0.40659145061E+02  0.00000000000E+00 0. -1.
         11    1    3    3    0    0 -0.79362550277E+01  0.27360473180E+01 -0.29922222914E+01  0.89119859343E+01  0.51100000000E-03 0. -1.
        -11    1    3    3    0    0 -0.10053508837E+02 -0.15939668613E+02 -0.32025528822E+02  0.37158855903E+02  0.51100000000E-03 0.  1.
        -12    1    3    3    0    0 -0.15244551134E+00  0.44453182408E+01 -0.29964465277E+00  0.44580131015E+01  0.00000000000E+00 0.  1.
</event>
<event>
 7    1  0.5748623E-013  0.5052886E+02  0.7816164E-02  0.1300439E+00
        -11   -1    0    0    0    0  0.00000000000E+00  0.00000000000E+00  0.45593999997E+02  0.45594000000E+02  0.51100000000E-03 0.  1.
         11   -1    0    0    0    0 -0.00000000000E+00 -0.00000000000E+00 -0.45593999997E+02  0.45594000000E+02  0.51100000000E-03 0. -1.
    9900012    2    1    2    0    0 -0.36713460172E+02 -0.15221687226E+02 -0.85783380782E+01  0.50528858297E+02  0.29999995281E+02 0.  0.
         12    1    1    2    0    0  0.36713460172E+02  0.15221687226E+02  0.85783380782E+01  0.40659141703E+02  0.00000000000E+00 0. -1.
         11    1    3    3    0    0 -0.40825851764E+01 -0.50371579508E+01  0.59798426242E+01  0.88203730088E+01  0.51100000000E-03 0.  1.
        -11    1    3    3    0    0 -0.20369803944E+02 -0.18715033736E+01 -0.17120789714E+02  0.26674948515E+02  0.51100000000E-03 0. -1.
         12    1    3    3    0    0 -0.12261071052E+02 -0.83130259020E+01  0.25626090115E+01  0.15033536774E+02  0.00000000000E+00 0. -1.
</event>
<event>
 7    1  0.5748623E-013  0.5052887E+02  0.7816164E-02  0.1300439E+00
        -11   -1    0    0    0    0  0.00000000000E+00  0.00000000000E+00  0.45593999997E+02  0.45594000000E+02  0.51100000000E-03 0.  1.
         11   -1    0    0    0    0 -0.00000000000E+00 -0.00000000000E+00 -0.45593999997E+02  0.45594000000E+02  0.51100000000E-03 0. -1.
    9900012    2    1    2    0    0  0.33294186988E+02  0.18260258180E+02  0.14533587091E+02  0.50528867327E+02  0.30000022727E+02 0.  0.
         12    1    1    2    0    0 -0.33294186988E+02 -0.18260258180E+02 -0.14533587091E+02  0.40659132673E+02  0.00000000000E+00 0. -1.
         11    1    3    3    0    0 -0.11937058459E+01 -0.17637781735E+00 -0.43169883379E+01  0.44824581818E+01  0.51100000000E-03 0. -1.
        -11    1    3    3    0    0  0.20254446580E+02  0.18523101350E+02  0.15100978474E+02  0.31327103936E+02  0.51100000000E-03 0.  1.
         12    1    3    3    0    0  0.14233446254E+02 -0.86465352878E-01  0.37495969557E+01  0.14719305210E+02  0.00000000000E+00 0. -1.
</event>
<event>
 7    1  0.5748623E-013  0.5052885E+02  0.7816164E-02  0.1300439E+00
        -11   -1    0    0    0    0  0.00000000000E+00  0.00000000000E+00  0.45593999997E+02  0.45594000000E+02  0.51100000000E-03 0. -1.
         11   -1    0    0    0    0 -0.00000000000E+00 -0.00000000000E+00 -0.45593999997E+02  0.45594000000E+02  0.51100000000E-03 0.  1.
    9900012    2    1    2    0    0 -0.25094832183E+02  0.28861539073E+02 -0.13799538401E+02  0.50528852198E+02  0.29999976740E+02 0.  0.
         12    1    1    2    0    0  0.25094832183E+02 -0.28861539073E+02  0.13799538401E+02  0.40659147802E+02  0.00000000000E+00 0. -1.
         11    1    3    3    0    0 -0.94746266324E+01  0.24407665040E+02  0.21470620765E+01  0.26269993116E+02  0.51100000000E-03 0. -1.
        -11    1    3    3    0    0 -0.13883166903E+02  0.25589693177E+01 -0.87304889922E+01  0.16598556730E+02  0.51100000000E-03 0.  1.
        -12    1    3    3    0    0 -0.17370386471E+01  0.18949047157E+01 -0.72161114850E+01  0.76603023509E+01  0.00000000000E+00 0.  1.
</event>
<event>
 7    1  0.5748623E-013  0.5052886E+02  0.7816164E-02  0.1300439E+00
        -11   -1    0    0    0    0  0.00000000000E+00  0.00000000000E+00  0.45593999997E+02  0.45594000000E+02  0.51100000000E-03 0.  1.
         11   -1    0    0    0    0 -0.00000000000E+00 -0.00000000000E+00 -0.45593999997E+02  0.45594000000E+02  0.51100000000E-03 0. -1.
    9900012    2    1    2    0    0  0.32405513186E+02  0.18552886521E+02  0.16088464633E+02  0.50528861085E+02  0.30000003753E+02 0.  0.
         12    1    1    2    0    0 -0.32405513186E+02 -0.18552886521E+02 -0.16088464633E+02  0.40659138915E+02  0.00000000000E+00 0. -1.
         11    1    3    3    0    0  0.29947070720E+02  0.63513738461E+01  0.60130191592E+01  0.31198131259E+02  0.51100000000E-03 0. -1.
        -11    1    3    3    0    0  0.47542353934E+01  0.29787404943E+01  0.77124458524E+01  0.95371625966E+01  0.51100000000E-03 0.  1.
         12    1    3    3    0    0 -0.22957929271E+01  0.92227721802E+01  0.23629996213E+01  0.97935672287E+01  0.00000000000E+00 0. -1.
</event>
<event>
 7    1  0.5748623E-013  0.5052887E+02  0.7816164E-02  0.1300439E+00
        -11   -1    0    0    0    0  0.00000000000E+00  0.00000000000E+00  0.45593999997E+02  0.45594000000E+02  0.51100000000E-03 0. -1.
         11   -1    0    0    0    0 -0.00000000000E+00 -0.00000000000E+00 -0.45593999997E+02  0.45594000000E+02  0.51100000000E-03 0.  1.
    9900012    2    1    2    0    0 -0.22470742522E+02  0.31554437831E+02 -0.12351048141E+02  0.50528865645E+02  0.30000017614E+02 0.  0.
         12    1    1    2    0    0  0.22470742522E+02 -0.31554437831E+02  0.12351048141E+02  0.40659134355E+02  0.00000000000E+00 0. -1.
         11    1    3    3    0    0  0.55758277878E+00 -0.46688692104E+01 -0.41559451502E+00  0.47203768198E+01  0.51100000000E-03 0. -1.
        -11    1    3    3    0    0 -0.23471748331E+02  0.35135753349E+02 -0.98072479225E+01  0.43377715998E+02  0.51100000000E-03 0.  1.
         12    1    3    3    0    0  0.44342303077E+00  0.10875536931E+01 -0.21282057037E+01  0.24307728270E+01  0.00000000000E+00 0. -1.
</event>
<event>
 7    1  0.5748623E-013  0.5052887E+02  0.7816164E-02  0.1300439E+00
        -11   -1    0    0    0    0  0.00000000000E+00  0.00000000000E+00  0.45593999997E+02  0.45594000000E+02  0.51100000000E-03 0. -1.
         11   -1    0    0    0    0 -0.00000000000E+00 -0.00000000000E+00 -0.45593999997E+02  0.45594000000E+02  0.51100000000E-03 0.  1.
    9900012    2    1    2    0    0  0.37136445014E+02  0.14588062403E+02 -0.78254290130E+01  0.50528874921E+02  0.30000045810E+02 0.  0.
         12    1    1    2    0    0 -0.37136445014E+02 -0.14588062403E+02  0.78254290130E+01  0.40659125079E+02  0.00000000000E+00 0. -1.
         11    1    3    3    0    0  0.58040900559E+01  0.63064060275E+01  0.71399195397E+01  0.11155118541E+02  0.51100000000E-03 0. -1.
        -11    1    3    3    0    0  0.23508810052E+02 -0.10005432648E+01 -0.13548349542E+02  0.27151850996E+02  0.51100000000E-03 0.  1.
        -12    1    3    3    0    0  0.78235449057E+01  0.92821996399E+01 -0.14169990104E+01  0.12221905385E+02  0.00000000000E+00 0.  1.
</event>
<event>
 7    1  0.5748623E-013  0.5052886E+02  0.7816164E-02  0.1300439E+00
        -11   -1    0    0    0    0  0.00000000000E+00  0.00000000000E+00  0.45593999997E+02  0.45594000000E+02  0.51100000000E-03 0.  1.
         11   -1    0    0    0    0 -0.00000000000E+00 -0.00000000000E+00 -0.45593999997E+02  0.45594000000E+02  0.51100000000E-03 0. -1.
    9900012    2    1    2    0    0  0.12824011985E+02 -0.12079411489E+02  0.36644209726E+02  0.50528861153E+02  0.30000003961E+02 0.  0.
         12    1    1    2    0    0 -0.12824011985E+02  0.12079411489E+02 -0.36644209726E+02  0.40659138847E+02  0.00000000000E+00 0. -1.
         11    1    3    3    0    0 -0.54776039659E+00  0.50586106215E+01  0.31988907263E+00  0.50982263731E+01  0.51100000000E-03 0. -1.
        -11    1    3    3    0    0  0.71053383919E+01 -0.12438900351E+02  0.34546433280E+02  0.37398771748E+02  0.51100000000E-03 0.  1.
        -12    1    3    3    0    0  0.62664339897E+01 -0.46991217595E+01  0.17778873736E+01  0.80318630324E+01  0.00000000000E+00 0.  1.
</event>
<event>
 7    1  0.5748623E-013  0.5052888E+02  0.7816164E-02  0.1300439E+00
        -11   -1    0    0    0    0  0.00000000000E+00  0.00000000000E+00  0.45593999997E+02  0.45594000000E+02  0.51100000000E-03 0.  1.
         11   -1    0    0    0    0 -0.00000000000E+00 -0.00000000000E+00 -0.45593999997E+02  0.45594000000E+02  0.51100000000E-03 0. -1.
    9900012    2    1    2    0    0  0.43965782580E+01  0.25781982599E+02  0.31130751073E+02  0.50528878151E+02  0.30000055629E+02 0.  0.
         12    1    1    2    0    0 -0.43965782580E+01 -0.25781982599E+02 -0.31130751073E+02  0.40659121849E+02  0.00000000000E+00 0. -1.
         11    1    3    3    0    0 -0.43004853072E+01  0.34255325179E+01  0.76355636144E+01  0.94090530277E+01  0.51100000000E-03 0. -1.
        -11    1    3    3    0    0  0.30392736542E+01  0.12299341226E+02 -0.22861264441E+01  0.12873902024E+02  0.51100000000E-03 0.  1.
        -12    1    3    3    0    0  0.56577899110E+01  0.10057108855E+02  0.25781313903E+02  0.28245923100E+02  0.00000000000E+00 0.  1.
</event>
<event>
 7    1  0.5748623E-013  0.5052887E+02  0.7816164E-02  0.1300439E+00
        -11   -1    0    0    0    0  0.00000000000E+00  0.00000000000E+00  0.45593999997E+02  0.45594000000E+02  0.51100000000E-03 0.  1.
         11   -1    0    0    0    0 -0.00000000000E+00 -0.00000000000E+00 -0.45593999997E+02  0.45594000000E+02  0.51100000000E-03 0. -1.
    9900012    2    1    2    0    0 -0.16916788509E+02 -0.13005797212E+02  0.34609766712E+02  0.50528874992E+02  0.30000046025E+02 0.  0.
         12    1    1    2    0    0  0.16916788509E+02  0.13005797212E+02 -0.34609766712E+02  0.40659125008E+02  0.00000000000E+00 0. -1.
         11    1    3    3    0    0 -0.80398800307E+01  0.69834524009E+01  0.29935067540E+01  0.11062068581E+02  0.51100000000E-03 0. -1.
        -11    1    3    3    0    0 -0.66736875387E+01 -0.14053145844E+02  0.28359842602E+02  0.32346710593E+02  0.51100000000E-03 0.  1.
        -12    1    3    3    0    0 -0.22032209401E+01 -0.59361037691E+01  0.32564173553E+01  0.71200958181E+01  0.00000000000E+00 0.  1.
</event>
<event>
 7    1  0.5748623E-013  0.5052886E+02  0.7816164E-02  0.1300439E+00
        -11   -1    0    0    0    0  0.00000000000E+00  0.00000000000E+00  0.45593999997E+02  0.45594000000E+02  0.51100000000E-03 0.  1.
         11   -1    0    0    0    0 -0.00000000000E+00 -0.00000000000E+00 -0.45593999997E+02  0.45594000000E+02  0.51100000000E-03 0. -1.
    9900012    2    1    2    0    0  0.33882884741E+02  0.97326980153E+01  0.20258096741E+02  0.50528858684E+02  0.29999996455E+02 0.  0.
         12    1    1    2    0    0 -0.33882884741E+02 -0.97326980153E+01 -0.20258096741E+02  0.40659141316E+02  0.00000000000E+00 0. -1.
         11    1    3    3    0    0  0.13005209891E+02 -0.32157239054E+01  0.34839380803E+01  0.13842477717E+02  0.51100000000E-03 0. -1.
        -11    1    3    3    0    0 -0.75524236700E-01  0.73252123375E+01  0.12628156879E+02  0.14599136486E+02  0.51100000000E-03 0.  1.
        -12    1    3    3    0    0  0.20953199087E+02  0.56232095832E+01  0.41460017810E+01  0.22087244481E+02  0.00000000000E+00 0.  1.
</event>
<event>
 7    1  0.5748623E-013  0.5052888E+02  0.7816164E-02  0.1300439E+00
        -11   -1    0    0    0    0  0.00000000000E+00  0.00000000000E+00  0.45593999997E+02  0.45594000000E+02  0.51100000000E-03 0.  1.
         11   -1    0    0    0    0 -0.00000000000E+00 -0.00000000000E+00 -0.45593999997E+02  0.45594000000E+02  0.51100000000E-03 0. -1.
    9900012    2    1    2    0    0  0.86687718074E+01 -0.91305009307E+01  0.38660713621E+02  0.50528875199E+02  0.30000046655E+02 0.  0.
         12    1    1    2    0    0 -0.86687718074E+01  0.91305009307E+01 -0.38660713621E+02  0.40659124801E+02  0.00000000000E+00 0. -1.
         11    1    3    3    0    0 -0.27340518861E+01 -0.46543331444E+01  0.85193783429E+00  0.54647648686E+01  0.51100000000E-03 0. -1.
        -11    1    3    3    0    0  0.16297843837E+01  0.97286612890E+00  0.32714579183E+02  0.32769595009E+02  0.51100000000E-03 0.  1.
        -12    1    3    3    0    0  0.97730393098E+01 -0.54490339153E+01  0.50941966034E+01  0.12294515322E+02  0.00000000000E+00 0.  1.
</event>
<event>
 7    1  0.5748623E-013  0.5052883E+02  0.7816164E-02  0.1300439E+00
        -11   -1    0    0    0    0  0.00000000000E+00  0.00000000000E+00  0.45593999997E+02  0.45594000000E+02  0.51100000000E-03 0. -1.
         11   -1    0    0    0    0 -0.00000000000E+00 -0.00000000000E+00 -0.45593999997E+02  0.45594000000E+02  0.51100000000E-03 0.  1.
    9900012    2    1    2    0    0 -0.50103901648E+01 -0.38950891466E+02  0.10530521204E+02  0.50528833352E+02  0.29999919458E+02 0.  0.
         12    1    1    2    0    0  0.50103901648E+01  0.38950891466E+02 -0.10530521204E+02  0.40659166648E+02  0.00000000000E+00 0. -1.
         11    1    3    3    0    0 -0.91404372707E+01 -0.17123335309E+02 -0.52032459393E+01  0.20095521247E+02  0.51100000000E-03 0.  1.
        -11    1    3    3    0    0  0.45316558710E+01 -0.69115709632E+00  0.47836032999E+01  0.66254406538E+01  0.51100000000E-03 0. -1.
        -12    1    3    3    0    0 -0.40160876513E+00 -0.21136399061E+02  0.10950163844E+02  0.23807871452E+02  0.00000000000E+00 0.  1.
</event>
<event>
 7    1  0.5748623E-013  0.5052886E+02  0.7816164E-02  0.1300439E+00
        -11   -1    0    0    0    0  0.00000000000E+00  0.00000000000E+00  0.45593999997E+02  0.45594000000E+02  0.51100000000E-03 0.  1.
         11   -1    0    0    0    0 -0.00000000000E+00 -0.00000000000E+00 -0.45593999997E+02  0.45594000000E+02  0.51100000000E-03 0. -1.
    9900012    2    1    2    0    0  0.21597362768E+02  0.33941797429E+02  0.58884707161E+01  0.50528858610E+02  0.29999996230E+02 0.  0.
         12    1    1    2    0    0 -0.21597362768E+02 -0.33941797429E+02 -0.58884707161E+01  0.40659141390E+02  0.00000000000E+00 0. -1.
         11    1    3    3    0    0  0.32265890462E+01 -0.15654952862E+01  0.88174665040E+01  0.95188953232E+01  0.51100000000E-03 0. -1.
        -11    1    3    3    0    0  0.10549015960E+02  0.19573567628E+02  0.26767296280E+01  0.22395784630E+02  0.51100000000E-03 0.  1.
         12    1    3    3    0    0  0.78217577613E+01  0.15933725087E+02 -0.56057254159E+01  0.18614178657E+02  0.00000000000E+00 0. -1.
</event>
<event>
 7    1  0.5748623E-013  0.5052886E+02  0.7816164E-02  0.1300439E+00
        -11   -1    0    0    0    0  0.00000000000E+00  0.00000000000E+00  0.45593999997E+02  0.45594000000E+02  0.51100000000E-03 0. -1.
         11   -1    0    0    0    0 -0.00000000000E+00 -0.00000000000E+00 -0.45593999997E+02  0.45594000000E+02  0.51100000000E-03 0.  1.
    9900012    2    1    2    0    0 -0.39112465547E+02 -0.74237672013E+01  0.82624525376E+01  0.50528863233E+02  0.30000010285E+02 0.  0.
         12    1    1    2    0    0  0.39112465547E+02  0.74237672013E+01 -0.82624525376E+01  0.40659136767E+02  0.00000000000E+00 0. -1.
         11    1    3    3    0    0 -0.10497505916E+02 -0.92332500405E+01 -0.90926627766E+01  0.16677141643E+02  0.51100000000E-03 0. -1.
        -11    1    3    3    0    0 -0.18919398266E+02 -0.28098236286E+00  0.93481869848E+01  0.21104766808E+02  0.51100000000E-03 0.  1.
         12    1    3    3    0    0 -0.96955613658E+01  0.20904652021E+01  0.80069283294E+01  0.12746954783E+02  0.00000000000E+00 0. -1.
</event>
<event>
 7    1  0.5748623E-013  0.5052886E+02  0.7816164E-02  0.1300439E+00
        -11   -1    0    0    0    0  0.00000000000E+00  0.00000000000E+00  0.45593999997E+02  0.45594000000E+02  0.51100000000E-03 0.  1.
         11   -1    0    0    0    0 -0.00000000000E+00 -0.00000000000E+00 -0.45593999997E+02  0.45594000000E+02  0.51100000000E-03 0. -1.
    9900012    2    1    2    0    0 -0.80370695137E+01  0.17690715122E+02  0.35715679654E+02  0.50528860055E+02  0.30000000625E+02 0.  0.
         12    1    1    2    0    0  0.80370695137E+01 -0.17690715122E+02 -0.35715679654E+02  0.40659139945E+02  0.00000000000E+00 0. -1.
         11    1    3    3    0    0  0.14138432538E+01  0.14793666921E+02  0.10746073724E+02  0.18339292093E+02  0.51100000000E-03 0. -1.
        -11    1    3    3    0    0 -0.14137761252E+02  0.40549714973E+01  0.22181276226E+02  0.26614434098E+02  0.51100000000E-03 0.  1.
         12    1    3    3    0    0  0.46868484846E+01 -0.11579232966E+01  0.27883297038E+01  0.55751338653E+01  0.00000000000E+00 0. -1.
</event>
<event>
 7    1  0.5748623E-013  0.5052893E+02  0.7816164E-02  0.1300439E+00
        -11   -1    0    0    0    0  0.00000000000E+00  0.00000000000E+00  0.45593999997E+02  0.45594000000E+02  0.51100000000E-03 0. -1.
         11   -1    0    0    0    0 -0.00000000000E+00 -0.00000000000E+00 -0.45593999997E+02  0.45594000000E+02  0.51100000000E-03 0.  1.
    9900012    2    1    2    0    0 -0.18002431361E+02  0.36430862507E+02 -0.13656491383E+01  0.50528926283E+02  0.30000201930E+02 0.  0.
         12    1    1    2    0    0  0.18002431361E+02 -0.36430862507E+02  0.13656491383E+01  0.40659073717E+02  0.00000000000E+00 0. -1.
         11    1    3    3    0    0 -0.21014820171E+02  0.22615377060E+02  0.41254705381E+01  0.31146387492E+02  0.51100000000E-03 0. -1.
        -11    1    3    3    0    0 -0.19657380058E+01  0.10414932512E+02 -0.75488602079E+01  0.13012310933E+02  0.51100000000E-03 0.  1.
         12    1    3    3    0    0  0.49781268160E+01  0.34005529359E+01  0.20577405315E+01  0.63702278578E+01  0.00000000000E+00 0. -1.
</event>
<event>
 7    1  0.5748623E-013  0.5052885E+02  0.7816164E-02  0.1300439E+00
        -11   -1    0    0    0    0  0.00000000000E+00  0.00000000000E+00  0.45593999997E+02  0.45594000000E+02  0.51100000000E-03 0.  1.
         11   -1    0    0    0    0 -0.00000000000E+00 -0.00000000000E+00 -0.45593999997E+02  0.45594000000E+02  0.51100000000E-03 0. -1.
    9900012    2    1    2    0    0 -0.34230838614E+02 -0.48703305288E+01  0.21393827600E+02  0.50528852308E+02  0.29999977075E+02 0.  0.
         12    1    1    2    0    0  0.34230838614E+02  0.48703305288E+01 -0.21393827600E+02  0.40659147692E+02  0.00000000000E+00 0. -1.
         11    1    3    3    0    0 -0.46841606953E+01  0.71839868259E+01  0.11385526338E+02  0.14254165650E+02  0.51100000000E-03 0. -1.
        -11    1    3    3    0    0 -0.20448380275E+02 -0.39250201308E+01  0.11815590067E+02  0.23940555712E+02  0.51100000000E-03 0.  1.
         12    1    3    3    0    0 -0.90982976439E+01 -0.81292972238E+01 -0.18072888046E+01  0.12334130946E+02  0.00000000000E+00 0. -1.
</event>
<event>
 7    1  0.5748623E-013  0.5052884E+02  0.7816164E-02  0.1300439E+00
        -11   -1    0    0    0    0  0.00000000000E+00  0.00000000000E+00  0.45593999997E+02  0.45594000000E+02  0.51100000000E-03 0. -1.
         11   -1    0    0    0    0 -0.00000000000E+00 -0.00000000000E+00 -0.45593999997E+02  0.45594000000E+02  0.51100000000E-03 0.  1.
    9900012    2    1    2    0    0  0.31666784001E+02 -0.16497499779E+02 -0.19447737798E+02  0.50528840966E+02  0.29999942600E+02 0.  0.
         12    1    1    2    0    0 -0.31666784001E+02  0.16497499779E+02  0.19447737798E+02  0.40659159034E+02  0.00000000000E+00 0. -1.
         11    1    3    3    0    0  0.45901590456E+01 -0.30224334900E+01  0.68662286949E+01  0.87948712905E+01  0.51100000000E-03 0. -1.
        -11    1    3    3    0    0  0.24422243415E+02 -0.85051545930E+01 -0.17334121174E+02  0.31132866640E+02  0.51100000000E-03 0.  1.
        -12    1    3    3    0    0  0.26543815402E+01 -0.49699116956E+01 -0.89798453191E+01  0.10601103036E+02  0.00000000000E+00 0.  1.
</event>
<event>
 7    1  0.5748623E-013  0.5052889E+02  0.7816164E-02  0.1300439E+00
        -11   -1    0    0    0    0  0.00000000000E+00  0.00000000000E+00  0.45593999997E+02  0.45594000000E+02  0.51100000000E-03 0. -1.
         11   -1    0    0    0    0 -0.00000000000E+00 -0.00000000000E+00 -0.45593999997E+02  0.45594000000E+02  0.51100000000E-03 0.  1.
    9900012    2    1    2    0    0  0.36877561775E+02 -0.62155491855E+01 -0.15955431066E+02  0.50528887926E+02  0.30000085340E+02 0.  0.
         12    1    1    2    0    0 -0.36877561775E+02  0.62155491855E+01  0.15955431066E+02  0.40659112074E+02  0.00000000000E+00 0. -1.
         11    1    3    3    0    0  0.23135446868E+02 -0.42531538169E+01  0.31500119749E+01  0.23733115996E+02  0.51100000000E-03 0. -1.
        -11    1    3    3    0    0  0.10732833137E+02  0.12229300094E+01 -0.19606344987E+02  0.22385218984E+02  0.51100000000E-03 0.  1.
         12    1    3    3    0    0  0.30092817693E+01 -0.31853253780E+01  0.50090194570E+00  0.44105529461E+01  0.00000000000E+00 0. -1.
</event>
<event>
 7    1  0.5748623E-013  0.5052885E+02  0.7816164E-02  0.1300439E+00
        -11   -1    0    0    0    0  0.00000000000E+00  0.00000000000E+00  0.45593999997E+02  0.45594000000E+02  0.51100000000E-03 0.  1.
         11   -1    0    0    0    0 -0.00000000000E+00 -0.00000000000E+00 -0.45593999997E+02  0.45594000000E+02  0.51100000000E-03 0. -1.
    9900012    2    1    2    0    0 -0.45554726275E+01  0.83310985624E+01  0.39534882187E+02  0.50528850431E+02  0.29999971369E+02 0.  0.
         12    1    1    2    0    0  0.45554726275E+01 -0.83310985624E+01 -0.39534882187E+02  0.40659149569E+02  0.00000000000E+00 0. -1.
         11    1    3    3    0    0  0.50026537660E-01  0.44381109844E+01 -0.27599691975E+00  0.44469659685E+01  0.51100000000E-03 0. -1.
        -11    1    3    3    0    0 -0.89392287509E+01  0.21471964905E+01  0.40345081341E+02  0.41379292552E+02  0.51100000000E-03 0.  1.
        -12    1    3    3    0    0  0.43337295858E+01  0.17457910874E+01 -0.53420223422E+00  0.47025919099E+01  0.00000000000E+00 0.  1.
</event>
<event>
 7    1  0.5748623E-013  0.5052886E+02  0.7816164E-02  0.1300439E+00
        -11   -1    0    0    0    0  0.00000000000E+00  0.00000000000E+00  0.45593999997E+02  0.45594000000E+02  0.51100000000E-03 0. -1.
         11   -1    0    0    0    0 -0.00000000000E+00 -0.00000000000E+00 -0.45593999997E+02  0.45594000000E+02  0.51100000000E-03 0.  1.
    9900012    2    1    2    0    0  0.33127097161E+01  0.30094169109E+02 -0.27139126985E+02  0.50528864821E+02  0.30000015110E+02 0.  0.
         12    1    1    2    0    0 -0.33127097161E+01 -0.30094169109E+02  0.27139126985E+02  0.40659135179E+02  0.00000000000E+00 0. -1.
         11    1    3    3    0    0  0.89802603161E+01  0.12617588827E+02 -0.88065213831E+01  0.17815820000E+02  0.51100000000E-03 0. -1.
        -11    1    3    3    0    0 -0.12697153352E+02  0.14501325105E+02 -0.14804123310E+02  0.24303666396E+02  0.51100000000E-03 0.  1.
        -12    1    3    3    0    0  0.70296027515E+01  0.29752551766E+01 -0.35284822912E+01  0.84093784247E+01  0.00000000000E+00 0.  1.
</event>
<event>
 7    1  0.5748623E-013  0.5052887E+02  0.7816164E-02  0.1300439E+00
        -11   -1    0    0    0    0  0.00000000000E+00  0.00000000000E+00  0.45593999997E+02  0.45594000000E+02  0.51100000000E-03 0.  1.
         11   -1    0    0    0    0 -0.00000000000E+00 -0.00000000000E+00 -0.45593999997E+02  0.45594000000E+02  0.51100000000E-03 0. -1.
    9900012    2    1    2    0    0 -0.12223205902E+02  0.21389962751E+02  0.32345435888E+02  0.50528874434E+02  0.30000044330E+02 0.  0.
         12    1    1    2    0    0  0.12223205902E+02 -0.21389962751E+02 -0.32345435888E+02  0.40659125566E+02  0.00000000000E+00 0. -1.
         11    1    3    3    0    0 -0.82592413434E+01  0.87564142708E+01  0.12446132270E+02  0.17314620041E+02  0.51100000000E-03 0. -1.
        -11    1    3    3    0    0 -0.56290798670E+01 -0.57302170549E+01  0.46137712267E+01  0.92633046392E+01  0.51100000000E-03 0.  1.
        -12    1    3    3    0    0  0.16651153079E+01  0.18363765535E+02  0.15285532391E+02  0.23950949754E+02  0.00000000000E+00 0.  1.
</event>
<event>
 7    1  0.5748623E-013  0.5052886E+02  0.7816164E-02  0.1300439E+00
        -11   -1    0    0    0    0  0.00000000000E+00  0.00000000000E+00  0.45593999997E+02  0.45594000000E+02  0.51100000000E-03 0. -1.
         11   -1    0    0    0    0 -0.00000000000E+00 -0.00000000000E+00 -0.45593999997E+02  0.45594000000E+02  0.51100000000E-03 0.  1.
    9900012    2    1    2    0    0  0.37623113922E+01  0.98097982534E+01 -0.39278221496E+02  0.50528858191E+02  0.29999994957E+02 0.  0.
         12    1    1    2    0    0 -0.37623113922E+01 -0.98097982534E+01  0.39278221496E+02  0.40659141809E+02  0.00000000000E+00 0. -1.
         11    1    3    3    0    0  0.11926357306E+02  0.76685479861E+01 -0.70707712834E+01  0.15844255540E+02  0.51100000000E-03 0. -1.
        -11    1    3    3    0    0 -0.69566815451E+01  0.47987567912E+01 -0.14875618127E+02  0.17108696613E+02  0.51100000000E-03 0.  1.
         12    1    3    3    0    0 -0.12073643688E+01 -0.26575065240E+01 -0.17331832085E+02  0.17575906038E+02  0.00000000000E+00 0. -1.
</event>
<event>
 7    1  0.5748623E-013  0.5052885E+02  0.7816164E-02  0.1300439E+00
        -11   -1    0    0    0    0  0.00000000000E+00  0.00000000000E+00  0.45593999997E+02  0.45594000000E+02  0.51100000000E-03 0.  1.
         11   -1    0    0    0    0 -0.00000000000E+00 -0.00000000000E+00 -0.45593999997E+02  0.45594000000E+02  0.51100000000E-03 0. -1.
    9900012    2    1    2    0    0  0.38631758294E+01  0.20516270411E+02  0.34890188338E+02  0.50528847016E+02  0.29999960991E+02 0.  0.
         12    1    1    2    0    0 -0.38631758294E+01 -0.20516270411E+02 -0.34890188338E+02  0.40659152984E+02  0.00000000000E+00 0. -1.
         11    1    3    3    0    0 -0.42055799306E+01  0.92282390215E+01  0.13801628262E+02  0.17126944881E+02  0.51100000000E-03 0. -1.
        -11    1    3    3    0    0 -0.25333912933E+01  0.10556404380E+01 -0.36747179561E+01  0.45865019892E+01  0.51100000000E-03 0.  1.
        -12    1    3    3    0    0  0.10602147053E+02  0.10232390951E+02  0.24763278032E+02  0.28815400147E+02  0.00000000000E+00 0.  1.
</event>
<event>
 7    1  0.5748623E-013  0.5052886E+02  0.7816164E-02  0.1300439E+00
        -11   -1    0    0    0    0  0.00000000000E+00  0.00000000000E+00  0.45593999997E+02  0.45594000000E+02  0.51100000000E-03 0. -1.
         11   -1    0    0    0    0 -0.00000000000E+00 -0.00000000000E+00 -0.45593999997E+02  0.45594000000E+02  0.51100000000E-03 0.  1.
    9900012    2    1    2    0    0  0.52997346691E+01  0.47488253410E+01 -0.40031574878E+02  0.50528861827E+02  0.30000006011E+02 0.  0.
         12    1    1    2    0    0 -0.52997346691E+01 -0.47488253410E+01  0.40031574878E+02  0.40659138173E+02  0.00000000000E+00 0. -1.
         11    1    3    3    0    0 -0.23523190970E+01 -0.35315959217E+01 -0.28380266217E+02  0.28695732883E+02  0.51100000000E-03 0.  1.
        -11    1    3    3    0    0  0.10571329294E+02  0.35289663669E+01 -0.11831056528E+02  0.16253630532E+02  0.51100000000E-03 0. -1.
         12    1    3    3    0    0 -0.29192755276E+01  0.47514548957E+01  0.17974786651E+00  0.55794984119E+01  0.00000000000E+00 0. -1.
</event>
<event>
 7    1  0.5748623E-013  0.5052887E+02  0.7816164E-02  0.1300439E+00
        -11   -1    0    0    0    0  0.00000000000E+00  0.00000000000E+00  0.45593999997E+02  0.45594000000E+02  0.51100000000E-03 0.  1.
         11   -1    0    0    0    0 -0.00000000000E+00 -0.00000000000E+00 -0.45593999997E+02  0.45594000000E+02  0.51100000000E-03 0. -1.
    9900012    2    1    2    0    0 -0.24761762940E+02  0.28648205427E+01  0.32121844635E+02  0.50528868142E+02  0.30000025206E+02 0.  0.
         12    1    1    2    0    0  0.24761762940E+02 -0.28648205427E+01 -0.32121844635E+02  0.40659131858E+02  0.00000000000E+00 0. -1.
         11    1    3    3    0    0  0.13725129448E+01 -0.78662550184E+01  0.23327784340E+01  0.83188710341E+01  0.51100000000E-03 0. -1.
        -11    1    3    3    0    0 -0.15099209743E+02  0.42085275633E+01  0.98719582936E+01  0.18524400123E+02  0.51100000000E-03 0.  1.
         12    1    3    3    0    0 -0.11035066142E+02  0.65225479978E+01  0.19917107908E+02  0.23685596985E+02  0.00000000000E+00 0. -1.
</event>
<event>
 7    1  0.5748623E-013  0.5052886E+02  0.7816164E-02  0.1300439E+00
        -11   -1    0    0    0    0  0.00000000000E+00  0.00000000000E+00  0.45593999997E+02  0.45594000000E+02  0.51100000000E-03 0.  1.
         11   -1    0    0    0    0 -0.00000000000E+00 -0.00000000000E+00 -0.45593999997E+02  0.45594000000E+02  0.51100000000E-03 0. -1.
    9900012    2    1    2    0    0 -0.25987798947E+02  0.35562060862E+01  0.31066916601E+02  0.50528860770E+02  0.30000002797E+02 0.  0.
         12    1    1    2    0    0  0.25987798947E+02 -0.35562060862E+01 -0.31066916601E+02  0.40659139230E+02  0.00000000000E+00 0. -1.
         11    1    3    3    0    0  0.11550288599E+01 -0.44293841156E+01  0.13833879099E+01  0.47819763363E+01  0.51100000000E-03 0. -1.
        -11    1    3    3    0    0 -0.21960612515E+02  0.33097149852E+01  0.31493124565E+02  0.38536211678E+02  0.51100000000E-03 0.  1.
        -12    1    3    3    0    0 -0.51822152917E+01  0.46758752166E+01 -0.18095958745E+01  0.72106727564E+01  0.00000000000E+00 0.  1.
</event>
<event>
 7    1  0.5748623E-013  0.5052884E+02  0.7816164E-02  0.1300439E+00
        -11   -1    0    0    0    0  0.00000000000E+00  0.00000000000E+00  0.45593999997E+02  0.45594000000E+02  0.51100000000E-03 0.  1.
         11   -1    0    0    0    0 -0.00000000000E+00 -0.00000000000E+00 -0.45593999997E+02  0.45594000000E+02  0.51100000000E-03 0. -1.
    9900012    2    1    2    0    0  0.28566728038E+02 -0.28099811398E+02  0.68927415855E+01  0.50528840663E+02  0.29999941679E+02 0.  0.
         12    1    1    2    0    0 -0.28566728038E+02  0.28099811398E+02 -0.68927415855E+01  0.40659159337E+02  0.00000000000E+00 0. -1.
         11    1    3    3    0    0  0.32488717528E+02 -0.23743745627E+02  0.17670733183E+01  0.40279086029E+02  0.51100000000E-03 0. -1.
        -11    1    3    3    0    0  0.14085379640E+01  0.17080531982E+00 -0.23499213670E+00  0.14381846956E+01  0.51100000000E-03 0.  1.
         12    1    3    3    0    0 -0.53305274534E+01 -0.45268710910E+01  0.53606604039E+01  0.88115699380E+01  0.00000000000E+00 0. -1.
</event>
<event>
 7    1  0.5748623E-013  0.5052887E+02  0.7816164E-02  0.1300439E+00
        -11   -1    0    0    0    0  0.00000000000E+00  0.00000000000E+00  0.45593999997E+02  0.45594000000E+02  0.51100000000E-03 0.  1.
         11   -1    0    0    0    0 -0.00000000000E+00 -0.00000000000E+00 -0.45593999997E+02  0.45594000000E+02  0.51100000000E-03 0. -1.
    9900012    2    1    2    0    0  0.41288777454E+01  0.30118129408E+02  0.27000293596E+02  0.50528865667E+02  0.30000017681E+02 0.  0.
         12    1    1    2    0    0 -0.41288777454E+01 -0.30118129408E+02 -0.27000293596E+02  0.40659134333E+02  0.00000000000E+00 0. -1.
         11    1    3    3    0    0  0.96321972802E+01  0.15442817247E+02  0.45302409130E+01  0.18755876732E+02  0.51100000000E-03 0.  1.
        -11    1    3    3    0    0 -0.11166094848E+02  0.86450869810E+01  0.12942568753E+02  0.19155398436E+02  0.51100000000E-03 0. -1.
         12    1    3    3    0    0  0.56627753133E+01  0.60302251791E+01  0.95274839301E+01  0.12617590499E+02  0.00000000000E+00 0. -1.
</event>
<event>
 7    1  0.5748623E-013  0.5052887E+02  0.7816164E-02  0.1300439E+00
        -11   -1    0    0    0    0  0.00000000000E+00  0.00000000000E+00  0.45593999997E+02  0.45594000000E+02  0.51100000000E-03 0. -1.
         11   -1    0    0    0    0 -0.00000000000E+00 -0.00000000000E+00 -0.45593999997E+02  0.45594000000E+02  0.51100000000E-03 0.  1.
    9900012    2    1    2    0    0  0.60868930444E+01 -0.39333909607E+02  0.83041160267E+01  0.50528867510E+02  0.30000023282E+02 0.  0.
         12    1    1    2    0    0 -0.60868930444E+01  0.39333909607E+02 -0.83041160267E+01  0.40659132490E+02  0.00000000000E+00 0. -1.
         11    1    3    3    0    0  0.98344442287E+01 -0.71327636438E+01  0.11733861865E+02  0.16890119154E+02  0.51100000000E-03 0. -1.
        -11    1    3    3    0    0  0.65931927937E+00 -0.42782351776E+01  0.21367230336E+01  0.48273785568E+01  0.51100000000E-03 0.  1.
         12    1    3    3    0    0 -0.44068704636E+01 -0.27922910785E+02 -0.55664688722E+01  0.28811369799E+02  0.00000000000E+00 0. -1.
</event>
<event>
 7    1  0.5748623E-013  0.5052886E+02  0.7816164E-02  0.1300439E+00
        -11   -1    0    0    0    0  0.00000000000E+00  0.00000000000E+00  0.45593999997E+02  0.45594000000E+02  0.51100000000E-03 0. -1.
         11   -1    0    0    0    0 -0.00000000000E+00 -0.00000000000E+00 -0.45593999997E+02  0.45594000000E+02  0.51100000000E-03 0.  1.
    9900012    2    1    2    0    0 -0.38490408238E+02  0.10233169475E+02 -0.81814811102E+01  0.50528856908E+02  0.29999991056E+02 0.  0.
         12    1    1    2    0    0  0.38490408238E+02 -0.10233169475E+02  0.81814811102E+01  0.40659143092E+02  0.00000000000E+00 0. -1.
         11    1    3    3    0    0 -0.14625481079E+02  0.21154984677E+00  0.79174750285E+01  0.16632373890E+02  0.51100000000E-03 0. -1.
        -11    1    3    3    0    0 -0.22159637054E+01 -0.60798959116E+00 -0.82034909496E+01  0.85192376717E+01  0.51100000000E-03 0.  1.
        -12    1    3    3    0    0 -0.21648963454E+02  0.10629609219E+02 -0.78954651891E+01  0.25377245346E+02  0.00000000000E+00 0.  1.
</event>
<event>
 7    1  0.5748623E-013  0.5052886E+02  0.7816164E-02  0.1300439E+00
        -11   -1    0    0    0    0  0.00000000000E+00  0.00000000000E+00  0.45593999997E+02  0.45594000000E+02  0.51100000000E-03 0.  1.
         11   -1    0    0    0    0 -0.00000000000E+00 -0.00000000000E+00 -0.45593999997E+02  0.45594000000E+02  0.51100000000E-03 0. -1.
    9900012    2    1    2    0    0  0.21891790266E+02  0.33346970190E+02 -0.78673101624E+01  0.50528862392E+02  0.30000007725E+02 0.  0.
         12    1    1    2    0    0 -0.21891790266E+02 -0.33346970190E+02  0.78673101624E+01  0.40659137608E+02  0.00000000000E+00 0. -1.
         11    1    3    3    0    0  0.13297906374E+02  0.12468261658E+02 -0.16217193437E+02  0.24398549669E+02  0.51100000000E-03 0. -1.
        -11    1    3    3    0    0  0.25697553313E+01  0.55089178446E+01  0.74253719124E+01  0.95962475260E+01  0.51100000000E-03 0.  1.
        -12    1    3    3    0    0  0.60241285606E+01  0.15369790687E+02  0.92451136226E+00  0.16534065197E+02  0.00000000000E+00 0.  1.
</event>
<event>
 7    1  0.5748623E-013  0.5052887E+02  0.7816164E-02  0.1300439E+00
        -11   -1    0    0    0    0  0.00000000000E+00  0.00000000000E+00  0.45593999997E+02  0.45594000000E+02  0.51100000000E-03 0.  1.
         11   -1    0    0    0    0 -0.00000000000E+00 -0.00000000000E+00 -0.45593999997E+02  0.45594000000E+02  0.51100000000E-03 0. -1.
    9900012    2    1    2    0    0 -0.15304618081E+02 -0.90069157019E+01  0.36576076711E+02  0.50528865078E+02  0.30000015891E+02 0.  0.
         12    1    1    2    0    0  0.15304618081E+02  0.90069157019E+01 -0.36576076711E+02  0.40659134922E+02  0.00000000000E+00 0. -1.
         11    1    3    3    0    0  0.19447191901E+01 -0.81901924538E+00  0.99740214651E+01  0.10194794245E+02  0.51100000000E-03 0. -1.
        -11    1    3    3    0    0 -0.17865918277E+02  0.78364987434E+00  0.78358787049E+01  0.19524500975E+02  0.51100000000E-03 0.  1.
        -12    1    3    3    0    0  0.61658100598E+00 -0.89715463309E+01  0.18766176541E+02  0.20809569858E+02  0.00000000000E+00 0.  1.
</event>
<event>
 7    1  0.5748623E-013  0.5052887E+02  0.7816164E-02  0.1300439E+00
        -11   -1    0    0    0    0  0.00000000000E+00  0.00000000000E+00  0.45593999997E+02  0.45594000000E+02  0.51100000000E-03 0. -1.
         11   -1    0    0    0    0 -0.00000000000E+00 -0.00000000000E+00 -0.45593999997E+02  0.45594000000E+02  0.51100000000E-03 0.  1.
    9900012    2    1    2    0    0  0.39332860491E+01  0.25145760844E+02 -0.31707798403E+02  0.50528874245E+02  0.30000043756E+02 0.  0.
         12    1    1    2    0    0 -0.39332860491E+01 -0.25145760844E+02  0.31707798403E+02  0.40659125755E+02  0.00000000000E+00 0. -1.
         11    1    3    3    0    0  0.47371911168E+01  0.70722146924E+01 -0.24133557984E+02  0.25590737026E+02  0.51100000000E-03 0. -1.
        -11    1    3    3    0    0  0.38941375908E+01  0.80878644993E+01  0.31857487066E+01  0.95250645571E+01  0.51100000000E-03 0.  1.
        -12    1    3    3    0    0 -0.46980426585E+01  0.99856816527E+01 -0.10759989126E+02  0.15413072662E+02  0.00000000000E+00 0.  1.
</event>
<event>
 7    1  0.5748623E-013  0.5052887E+02  0.7816164E-02  0.1300439E+00
        -11   -1    0    0    0    0  0.00000000000E+00  0.00000000000E+00  0.45593999997E+02  0.45594000000E+02  0.51100000000E-03 0. -1.
         11   -1    0    0    0    0 -0.00000000000E+00 -0.00000000000E+00 -0.45593999997E+02  0.45594000000E+02  0.51100000000E-03 0.  1.
    9900012    2    1    2    0    0 -0.27471448326E+02 -0.24105985877E+02 -0.17815332119E+02  0.50528867117E+02  0.30000022090E+02 0.  0.
         12    1    1    2    0    0  0.27471448326E+02  0.24105985877E+02  0.17815332119E+02  0.40659132883E+02  0.00000000000E+00 0. -1.
         11    1    3    3    0    0 -0.23033198726E+02 -0.20643661240E+02 -0.12110890739E+02  0.33216903343E+02  0.51100000000E-03 0. -1.
        -11    1    3    3    0    0  0.19807023463E+01 -0.52594992311E+01 -0.84124846076E+01  0.10117085128E+02  0.51100000000E-03 0.  1.
         12    1    3    3    0    0 -0.64189519469E+01  0.17971745945E+01  0.27080432273E+01  0.71948786467E+01  0.00000000000E+00 0. -1.
</event>
<event>
 7    1  0.5748623E-013  0.5052886E+02  0.7816164E-02  0.1300439E+00
        -11   -1    0    0    0    0  0.00000000000E+00  0.00000000000E+00  0.45593999997E+02  0.45594000000E+02  0.51100000000E-03 0. -1.
         11   -1    0    0    0    0 -0.00000000000E+00 -0.00000000000E+00 -0.45593999997E+02  0.45594000000E+02  0.51100000000E-03 0.  1.
    9900012    2    1    2    0    0 -0.20629751581E+01 -0.39872771132E+02 -0.76858477913E+01  0.50528855881E+02  0.29999987934E+02 0.  0.
         12    1    1    2    0    0  0.20629751581E+01  0.39872771132E+02  0.76858477913E+01  0.40659144119E+02  0.00000000000E+00 0. -1.
         11    1    3    3    0    0  0.95983594795E+01 -0.10211431872E+02 -0.99271096427E+01  0.17174089545E+02  0.51100000000E-03 0. -1.
        -11    1    3    3    0    0 -0.25953519066E+00 -0.70722918244E+01 -0.26976800154E+01  0.75737802907E+01  0.51100000000E-03 0.  1.
         12    1    3    3    0    0 -0.11401799447E+02 -0.22589047436E+02  0.49389418668E+01  0.25780986045E+02  0.00000000000E+00 0. -1.
</event>
<event>
 7    1  0.5748623E-013  0.5052890E+02  0.7816164E-02  0.1300439E+00
        -11   -1    0    0    0    0  0.00000000000E+00  0.00000000000E+00  0.45593999997E+02  0.45594000000E+02  0.51100000000E-03 0. -1.
         11   -1    0    0    0    0 -0.00000000000E+00 -0.00000000000E+00 -0.45593999997E+02  0.45594000000E+02  0.51100000000E-03 0.  1.
    9900012    2    1    2    0    0 -0.33268308087E+02 -0.16220545841E+02 -0.16830806194E+02  0.50528899328E+02  0.30000119997E+02 0.  0.
         12    1    1    2    0    0  0.33268308087E+02  0.16220545841E+02  0.16830806194E+02  0.40659100672E+02  0.00000000000E+00 0. -1.
         11    1    3    3    0    0 -0.20667274116E+02 -0.17706491252E+02 -0.12116221432E-02  0.27214996850E+02  0.51100000000E-03 0. -1.
        -11    1    3    3    0    0 -0.57986073353E+01  0.56702244979E+01 -0.76861116645E+01  0.11173701520E+02  0.51100000000E-03 0.  1.
        -12    1    3    3    0    0 -0.68024266360E+01 -0.41842790866E+01 -0.91434829075E+01  0.12140200958E+02  0.00000000000E+00 0.  1.
</event>
<event>
 7    1  0.5748623E-013  0.5052886E+02  0.7816164E-02  0.1300439E+00
        -11   -1    0    0    0    0  0.00000000000E+00  0.00000000000E+00  0.45593999997E+02  0.45594000000E+02  0.51100000000E-03 0.  1.
         11   -1    0    0    0    0 -0.00000000000E+00 -0.00000000000E+00 -0.45593999997E+02  0.45594000000E+02  0.51100000000E-03 0. -1.
    9900012    2    1    2    0    0  0.20498220006E+02  0.11241541505E+02  0.33265840897E+02  0.50528862658E+02  0.30000008534E+02 0.  0.
         12    1    1    2    0    0 -0.20498220006E+02 -0.11241541505E+02 -0.33265840897E+02  0.40659137342E+02  0.00000000000E+00 0. -1.
         11    1    3    3    0    0  0.16844158090E+01  0.10974760683E+02  0.36544932849E+01  0.11689223674E+02  0.51100000000E-03 0. -1.
        -11    1    3    3    0    0  0.33724770487E+01 -0.56520846243E+01  0.16406647028E+02  0.17677605296E+02  0.51100000000E-03 0.  1.
         12    1    3    3    0    0  0.15441327149E+02  0.59188654464E+01  0.13204700584E+02  0.21162033688E+02  0.00000000000E+00 0. -1.
</event>
<event>
 7    1  0.5748623E-013  0.5052886E+02  0.7816164E-02  0.1300439E+00
        -11   -1    0    0    0    0  0.00000000000E+00  0.00000000000E+00  0.45593999997E+02  0.45594000000E+02  0.51100000000E-03 0. -1.
         11   -1    0    0    0    0 -0.00000000000E+00 -0.00000000000E+00 -0.45593999997E+02  0.45594000000E+02  0.51100000000E-03 0.  1.
    9900012    2    1    2    0    0 -0.29966521411E+02 -0.27226530752E+02 -0.37268682467E+01  0.50528856758E+02  0.29999990601E+02 0.  0.
         12    1    1    2    0    0  0.29966521411E+02  0.27226530752E+02  0.37268682467E+01  0.40659143242E+02  0.00000000000E+00 0. -1.
         11    1    3    3    0    0 -0.88761591644E+00 -0.17372716890E+02  0.23402001535E+01  0.17552085095E+02  0.51100000000E-03 0. -1.
        -11    1    3    3    0    0 -0.15585432936E+02 -0.10300079028E+02 -0.15729469544E+01  0.18747573447E+02  0.51100000000E-03 0.  1.
         12    1    3    3    0    0 -0.13493472558E+02  0.44626516598E+00 -0.44941214459E+01  0.14229198215E+02  0.00000000000E+00 0. -1.
</event>
<event>
 7    1  0.5748623E-013  0.5052886E+02  0.7816164E-02  0.1300439E+00
        -11   -1    0    0    0    0  0.00000000000E+00  0.00000000000E+00  0.45593999997E+02  0.45594000000E+02  0.51100000000E-03 0.  1.
         11   -1    0    0    0    0 -0.00000000000E+00 -0.00000000000E+00 -0.45593999997E+02  0.45594000000E+02  0.51100000000E-03 0. -1.
    9900012    2    1    2    0    0  0.13301175128E+01 -0.10423500906E+02  0.39277820525E+02  0.50528858729E+02  0.29999996592E+02 0.  0.
         12    1    1    2    0    0 -0.13301175128E+01  0.10423500906E+02 -0.39277820525E+02  0.40659141271E+02  0.00000000000E+00 0. -1.
         11    1    3    3    0    0 -0.24126287787E+01  0.89320302496E+01  0.10908561042E+02  0.14303798316E+02  0.51100000000E-03 0. -1.
        -11    1    3    3    0    0  0.41837005395E+01 -0.11355221541E+02  0.84639081224E+01  0.14767604660E+02  0.51100000000E-03 0.  1.
        -12    1    3    3    0    0 -0.44095424788E+00 -0.80003096147E+01  0.19905351360E+02  0.21457455752E+02  0.00000000000E+00 0.  1.
</event>
<event>
 7    1  0.5748623E-013  0.5052886E+02  0.7816164E-02  0.1300439E+00
        -11   -1    0    0    0    0  0.00000000000E+00  0.00000000000E+00  0.45593999997E+02  0.45594000000E+02  0.51100000000E-03 0. -1.
         11   -1    0    0    0    0 -0.00000000000E+00 -0.00000000000E+00 -0.45593999997E+02  0.45594000000E+02  0.51100000000E-03 0.  1.
    9900012    2    1    2    0    0 -0.29609647335E+02  0.17129578056E+02 -0.21977532523E+02  0.50528860862E+02  0.30000003075E+02 0.  0.
         12    1    1    2    0    0  0.29609647335E+02 -0.17129578056E+02  0.21977532523E+02  0.40659139138E+02  0.00000000000E+00 0. -1.
         11    1    3    3    0    0 -0.88116470459E+01  0.11018860006E+02 -0.24489635061E+02  0.28263096525E+02  0.51100000000E-03 0. -1.
        -11    1    3    3    0    0 -0.12747038001E+02  0.49476409259E+01  0.33798230419E+01  0.14085074816E+02  0.51100000000E-03 0.  1.
         12    1    3    3    0    0 -0.80509622880E+01  0.11630771239E+01 -0.86772050405E+00  0.81806895206E+01  0.00000000000E+00 0. -1.
</event>
<event>
 7    1  0.5748623E-013  0.5052886E+02  0.7816164E-02  0.1300439E+00
        -11   -1    0    0    0    0  0.00000000000E+00  0.00000000000E+00  0.45593999997E+02  0.45594000000E+02  0.51100000000E-03 0.  1.
         11   -1    0    0    0    0 -0.00000000000E+00 -0.00000000000E+00 -0.45593999997E+02  0.45594000000E+02  0.51100000000E-03 0. -1.
    9900012    2    1    2    0    0  0.15376138400E+01  0.34741617120E+02  0.21067061107E+02  0.50528864740E+02  0.30000014863E+02 0.  0.
         12    1    1    2    0    0 -0.15376138400E+01 -0.34741617120E+02 -0.21067061107E+02  0.40659135260E+02  0.00000000000E+00 0. -1.
         11    1    3    3    0    0 -0.50769689572E+01  0.14813859704E+02  0.34947736154E+00  0.15663594345E+02  0.51100000000E-03 0. -1.
        -11    1    3    3    0    0  0.34023420984E+00  0.61877965532E+01  0.18609346163E+02  0.19614085510E+02  0.51100000000E-03 0.  1.
         12    1    3    3    0    0  0.62743485873E+01  0.13739960862E+02  0.21082375825E+01  0.15251184885E+02  0.00000000000E+00 0. -1.
</event>
<event>
 7    1  0.5748623E-013  0.5052887E+02  0.7816164E-02  0.1300439E+00
        -11   -1    0    0    0    0  0.00000000000E+00  0.00000000000E+00  0.45593999997E+02  0.45594000000E+02  0.51100000000E-03 0.  1.
         11   -1    0    0    0    0 -0.00000000000E+00 -0.00000000000E+00 -0.45593999997E+02  0.45594000000E+02  0.51100000000E-03 0. -1.
    9900012    2    1    2    0    0 -0.30456398276E+02  0.24360221168E+02  0.11495760091E+02  0.50528867307E+02  0.30000022665E+02 0.  0.
         12    1    1    2    0    0  0.30456398276E+02 -0.24360221168E+02 -0.11495760091E+02  0.40659132693E+02  0.00000000000E+00 0. -1.
         11    1    3    3    0    0 -0.14147524236E+02 -0.90398903617E+00  0.12423599518E+02  0.18849813353E+02  0.51100000000E-03 0. -1.
        -11    1    3    3    0    0 -0.13605248816E+02  0.13269503605E+02  0.17826018821E+01  0.19088221263E+02  0.51100000000E-03 0.  1.
         12    1    3    3    0    0 -0.27036252247E+01  0.11994706600E+02 -0.27104413095E+01  0.12590832691E+02  0.00000000000E+00 0. -1.
</event>
<event>
 7    1  0.5748623E-013  0.5052888E+02  0.7816164E-02  0.1300439E+00
        -11   -1    0    0    0    0  0.00000000000E+00  0.00000000000E+00  0.45593999997E+02  0.45594000000E+02  0.51100000000E-03 0. -1.
         11   -1    0    0    0    0 -0.00000000000E+00 -0.00000000000E+00 -0.45593999997E+02  0.45594000000E+02  0.51100000000E-03 0.  1.
    9900012    2    1    2    0    0  0.11923543140E+02  0.35751134944E+02 -0.15259399890E+02  0.50528882747E+02  0.30000069597E+02 0.  0.
         12    1    1    2    0    0 -0.11923543140E+02 -0.35751134944E+02  0.15259399890E+02  0.40659117253E+02  0.00000000000E+00 0. -1.
         11    1    3    3    0    0 -0.10160604728E+01  0.16040466210E+02  0.47504598203E+01  0.16759946416E+02  0.51100000000E-03 0. -1.
        -11    1    3    3    0    0  0.12150644565E+02  0.20081773162E+02 -0.21636975392E+02  0.31922945996E+02  0.51100000000E-03 0.  1.
         12    1    3    3    0    0  0.78895904755E+00 -0.37110442814E+00  0.16271156813E+01  0.18459903347E+01  0.00000000000E+00 0. -1.
</event>
<event>
 7    1  0.5748623E-013  0.5052886E+02  0.7816164E-02  0.1300439E+00
        -11   -1    0    0    0    0  0.00000000000E+00  0.00000000000E+00  0.45593999997E+02  0.45594000000E+02  0.51100000000E-03 0.  1.
         11   -1    0    0    0    0 -0.00000000000E+00 -0.00000000000E+00 -0.45593999997E+02  0.45594000000E+02  0.51100000000E-03 0. -1.
    9900012    2    1    2    0    0 -0.30293623405E+02  0.15437092454E+02  0.22297036911E+02  0.50528864527E+02  0.30000014215E+02 0.  0.
         12    1    1    2    0    0  0.30293623405E+02 -0.15437092454E+02 -0.22297036911E+02  0.40659135473E+02  0.00000000000E+00 0. -1.
         11    1    3    3    0    0  0.55585451662E+00 -0.35795589449E+01  0.82798315706E+01  0.90375786349E+01  0.51100000000E-03 0. -1.
        -11    1    3    3    0    0 -0.18425420702E+02  0.36451578317E+01  0.35112141750E+01  0.19107902264E+02  0.51100000000E-03 0.  1.
         12    1    3    3    0    0 -0.12424057220E+02  0.15371493567E+02  0.10505991165E+02  0.22383383628E+02  0.00000000000E+00 0. -1.
</event>
<event>
 7    1  0.5748623E-013  0.5052886E+02  0.7816164E-02  0.1300439E+00
        -11   -1    0    0    0    0  0.00000000000E+00  0.00000000000E+00  0.45593999997E+02  0.45594000000E+02  0.51100000000E-03 0. -1.
         11   -1    0    0    0    0 -0.00000000000E+00 -0.00000000000E+00 -0.45593999997E+02  0.45594000000E+02  0.51100000000E-03 0.  1.
    9900012    2    1    2    0    0 -0.72345014170E+01 -0.22901798542E+02 -0.32807548563E+02  0.50528860438E+02  0.30000001786E+02 0.  0.
         12    1    1    2    0    0  0.72345014170E+01  0.22901798542E+02  0.32807548563E+02  0.40659139562E+02  0.00000000000E+00 0. -1.
         11    1    3    3    0    0  0.11726855271E+01 -0.12323273192E+02 -0.17372112568E+02  0.21331398192E+02  0.51100000000E-03 0. -1.
        -11    1    3    3    0    0 -0.75712700928E+01 -0.11104058799E+02  0.28831017370E+00  0.13442744349E+02  0.51100000000E-03 0.  1.
        -12    1    3    3    0    0 -0.83591685130E+00  0.52553344887E+00 -0.15723746169E+02  0.15754717896E+02  0.00000000000E+00 0.  1.
</event>
<event>
 7    1  0.5748623E-013  0.5052886E+02  0.7816164E-02  0.1300439E+00
        -11   -1    0    0    0    0  0.00000000000E+00  0.00000000000E+00  0.45593999997E+02  0.45594000000E+02  0.51100000000E-03 0.  1.
         11   -1    0    0    0    0 -0.00000000000E+00 -0.00000000000E+00 -0.45593999997E+02  0.45594000000E+02  0.51100000000E-03 0. -1.
    9900012    2    1    2    0    0  0.31328036414E+02 -0.19994732539E+02 -0.16490324164E+02  0.50528856061E+02  0.29999988482E+02 0.  0.
         12    1    1    2    0    0 -0.31328036414E+02  0.19994732539E+02  0.16490324164E+02  0.40659143939E+02  0.00000000000E+00 0. -1.
         11    1    3    3    0    0  0.21280205680E+01  0.22849788873E+01 -0.30464829133E+01  0.43624142920E+01  0.51100000000E-03 0. -1.
        -11    1    3    3    0    0  0.29625809158E+02 -0.19684061102E+02 -0.33395401827E+01  0.35725388152E+02  0.51100000000E-03 0.  1.
        -12    1    3    3    0    0 -0.42579331224E+00 -0.25956503244E+01 -0.10104301068E+02  0.10441053616E+02  0.00000000000E+00 0.  1.
</event>
<event>
 7    1  0.5748623E-013  0.5052886E+02  0.7816164E-02  0.1300439E+00
        -11   -1    0    0    0    0  0.00000000000E+00  0.00000000000E+00  0.45593999997E+02  0.45594000000E+02  0.51100000000E-03 0. -1.
         11   -1    0    0    0    0 -0.00000000000E+00 -0.00000000000E+00 -0.45593999997E+02  0.45594000000E+02  0.51100000000E-03 0.  1.
    9900012    2    1    2    0    0  0.38318155745E+02 -0.10300061705E+02  0.88765636734E+01  0.50528859411E+02  0.29999998665E+02 0.  0.
         12    1    1    2    0    0 -0.38318155745E+02  0.10300061705E+02 -0.88765636734E+01  0.40659140589E+02  0.00000000000E+00 0. -1.
         11    1    3    3    0    0  0.16084896781E+02 -0.12242176188E+02  0.27549064532E+01  0.20400595386E+02  0.51100000000E-03 0. -1.
        -11    1    3    3    0    0  0.21577981080E+02  0.74993365939E+01  0.15395340399E+01  0.22895839844E+02  0.51100000000E-03 0.  1.
        -12    1    3    3    0    0  0.65527788326E+00 -0.55572221104E+01  0.45821231803E+01  0.72324241805E+01  0.00000000000E+00 0.  1.
</event>
<event>
 7    1  0.5748623E-013  0.5052887E+02  0.7816164E-02  0.1300439E+00
        -11   -1    0    0    0    0  0.00000000000E+00  0.00000000000E+00  0.45593999997E+02  0.45594000000E+02  0.51100000000E-03 0.  1.
         11   -1    0    0    0    0 -0.00000000000E+00 -0.00000000000E+00 -0.45593999997E+02  0.45594000000E+02  0.51100000000E-03 0. -1.
    9900012    2    1    2    0    0  0.31589206721E+02  0.20953808136E+02  0.14704585070E+02  0.50528869676E+02  0.30000029866E+02 0.  0.
         12    1    1    2    0    0 -0.31589206721E+02 -0.20953808136E+02 -0.14704585070E+02  0.40659130324E+02  0.00000000000E+00 0. -1.
         11    1    3    3    0    0  0.96497234400E+01  0.10200673687E+02 -0.86719911698E+01  0.16503767365E+02  0.51100000000E-03 0. -1.
        -11    1    3    3    0    0  0.10333840335E+02  0.68623199879E+01  0.10415212606E+02  0.16197417867E+02  0.51100000000E-03 0.  1.
         12    1    3    3    0    0  0.11605642947E+02  0.38908144612E+01  0.12961363633E+02  0.17827684444E+02  0.00000000000E+00 0. -1.
</event>
<event>
 7    1  0.6677744E-013  0.5052885E+02  0.7816164E-02  0.1300439E+00
        -11   -1    0    0    0    0  0.00000000000E+00  0.00000000000E+00  0.45593999997E+02  0.45594000000E+02  0.51100000000E-03 0. -1.
         11   -1    0    0    0    0 -0.00000000000E+00 -0.00000000000E+00 -0.45593999997E+02  0.45594000000E+02  0.51100000000E-03 0.  1.
    9900012    2    1    2    0    0 -0.24853535785E+02  0.49576699349E+01 -0.31794489518E+02  0.50528852248E+02  0.29999976892E+02 0.  0.
         12    1    1    2    0    0  0.24853535785E+02 -0.49576699349E+01  0.31794489518E+02  0.40659147752E+02  0.00000000000E+00 0. -1.
         11    1    3    3    0    0  0.72996681251E+00  0.10320879523E+01  0.43403417975E+01  0.45206884729E+01  0.51100000000E-03 0. -1.
        -11    1    3    3    0    0 -0.21415264461E+02  0.37343100446E+01 -0.20693491090E+02  0.30012983810E+02  0.51100000000E-03 0.  1.
        -12    1    3    3    0    0 -0.41682381365E+01  0.19127193800E+00 -0.15441340226E+02  0.15995179965E+02  0.00000000000E+00 0.  1.
</event>
<event>
 7    1  0.5748623E-013  0.5052887E+02  0.7816164E-02  0.1300439E+00
        -11   -1    0    0    0    0  0.00000000000E+00  0.00000000000E+00  0.45593999997E+02  0.45594000000E+02  0.51100000000E-03 0.  1.
         11   -1    0    0    0    0 -0.00000000000E+00 -0.00000000000E+00 -0.45593999997E+02  0.45594000000E+02  0.51100000000E-03 0. -1.
    9900012    2    1    2    0    0  0.61699098503E+01 -0.14600657514E+02  0.37442193026E+02  0.50528870571E+02  0.30000032586E+02 0.  0.
         12    1    1    2    0    0 -0.61699098503E+01  0.14600657514E+02 -0.37442193026E+02  0.40659129429E+02  0.00000000000E+00 0. -1.
         11    1    3    3    0    0  0.16430372370E+02 -0.46682688080E+01  0.11521669170E+02  0.20603366973E+02  0.51100000000E-03 0. -1.
        -11    1    3    3    0    0 -0.51716366622E+01 -0.37058230289E+01  0.15559122113E+02  0.16809676715E+02  0.51100000000E-03 0.  1.
         12    1    3    3    0    0 -0.50888258577E+01 -0.62265656770E+01  0.10361401743E+02  0.13115826882E+02  0.00000000000E+00 0. -1.
</event>
<event>
 7    1  0.5748623E-013  0.5052886E+02  0.7816164E-02  0.1300439E+00
        -11   -1    0    0    0    0  0.00000000000E+00  0.00000000000E+00  0.45593999997E+02  0.45594000000E+02  0.51100000000E-03 0.  1.
         11   -1    0    0    0    0 -0.00000000000E+00 -0.00000000000E+00 -0.45593999997E+02  0.45594000000E+02  0.51100000000E-03 0. -1.
    9900012    2    1    2    0    0 -0.12922176085E+02  0.43713687771E+01  0.38302400878E+02  0.50528863108E+02  0.30000009904E+02 0.  0.
         12    1    1    2    0    0  0.12922176085E+02 -0.43713687771E+01 -0.38302400878E+02  0.40659136892E+02  0.00000000000E+00 0. -1.
         11    1    3    3    0    0  0.21992921869E+01 -0.45794264184E+01 -0.24983724934E+01  0.56612629175E+01  0.51100000000E-03 0. -1.
        -11    1    3    3    0    0 -0.15371555249E+02  0.73627759443E+01  0.37746009997E+02  0.41415654666E+02  0.51100000000E-03 0.  1.
         12    1    3    3    0    0  0.25008697796E+00  0.15880192511E+01  0.30547633740E+01  0.34519455253E+01  0.00000000000E+00 0. -1.
</event>
<event>
 7    1  0.5748623E-013  0.5052886E+02  0.7816164E-02  0.1300439E+00
        -11   -1    0    0    0    0  0.00000000000E+00  0.00000000000E+00  0.45593999997E+02  0.45594000000E+02  0.51100000000E-03 0.  1.
         11   -1    0    0    0    0 -0.00000000000E+00 -0.00000000000E+00 -0.45593999997E+02  0.45594000000E+02  0.51100000000E-03 0. -1.
    9900012    2    1    2    0    0 -0.36316162630E+02  0.60687127415E+01  0.17247396633E+02  0.50528860399E+02  0.30000001669E+02 0.  0.
         12    1    1    2    0    0  0.36316162630E+02 -0.60687127415E+01 -0.17247396633E+02  0.40659139601E+02  0.00000000000E+00 0. -1.
         11    1    3    3    0    0 -0.95035373124E+01 -0.22177858658E+01  0.10160746809E+02  0.14088171335E+02  0.51100000000E-03 0. -1.
        -11    1    3    3    0    0 -0.22032564364E+02  0.27583235548E+01 -0.45819706645E+01  0.22672377395E+02  0.51100000000E-03 0.  1.
        -12    1    3    3    0    0 -0.47800609529E+01  0.55281750525E+01  0.11668620488E+02  0.13768311669E+02  0.00000000000E+00 0.  1.
</event>
<event>
 7    1  0.5748623E-013  0.5052886E+02  0.7816164E-02  0.1300439E+00
        -11   -1    0    0    0    0  0.00000000000E+00  0.00000000000E+00  0.45593999997E+02  0.45594000000E+02  0.51100000000E-03 0. -1.
         11   -1    0    0    0    0 -0.00000000000E+00 -0.00000000000E+00 -0.45593999997E+02  0.45594000000E+02  0.51100000000E-03 0.  1.
    9900012    2    1    2    0    0 -0.21451434242E+02 -0.27028885204E+02 -0.21504448238E+02  0.50528856373E+02  0.29999989432E+02 0.  0.
         12    1    1    2    0    0  0.21451434242E+02  0.27028885204E+02  0.21504448238E+02  0.40659143627E+02  0.00000000000E+00 0. -1.
         11    1    3    3    0    0 -0.12100572115E+02  0.21473692826E+01 -0.56325742415E+01  0.13518910207E+02  0.51100000000E-03 0. -1.
        -11    1    3    3    0    0 -0.32414946834E+01 -0.24607280389E+02 -0.80719548512E+01  0.26099463429E+02  0.51100000000E-03 0.  1.
        -12    1    3    3    0    0 -0.61093674438E+01 -0.45689740983E+01 -0.77999191454E+01  0.10910482737E+02  0.00000000000E+00 0.  1.
</event>
<event>
 7    1  0.5748623E-013  0.5052885E+02  0.7816164E-02  0.1300439E+00
        -11   -1    0    0    0    0  0.00000000000E+00  0.00000000000E+00  0.45593999997E+02  0.45594000000E+02  0.51100000000E-03 0. -1.
         11   -1    0    0    0    0 -0.00000000000E+00 -0.00000000000E+00 -0.45593999997E+02  0.45594000000E+02  0.51100000000E-03 0.  1.
    9900012    2    1    2    0    0  0.15817816470E+02  0.35246937981E+02 -0.12673458483E+02  0.50528849679E+02  0.29999969084E+02 0.  0.
         12    1    1    2    0    0 -0.15817816470E+02 -0.35246937981E+02  0.12673458483E+02  0.40659150321E+02  0.00000000000E+00 0. -1.
         11    1    3    3    0    0 -0.86290956446E+00 -0.21517686882E+01  0.46215532197E+01  0.51704425175E+01  0.51100000000E-03 0. -1.
        -11    1    3    3    0    0  0.10165271583E+02  0.27752096953E+02 -0.84529758969E+01  0.30740273802E+02  0.51100000000E-03 0.  1.
        -12    1    3    3    0    0  0.65154544517E+01  0.96466097163E+01 -0.88420358060E+01  0.14618133360E+02  0.00000000000E+00 0.  1.
</event>
<event>
 7    1  0.5748623E-013  0.5052889E+02  0.7816164E-02  0.1300439E+00
        -11   -1    0    0    0    0  0.00000000000E+00  0.00000000000E+00  0.45593999997E+02  0.45594000000E+02  0.51100000000E-03 0.  1.
         11   -1    0    0    0    0 -0.00000000000E+00 -0.00000000000E+00 -0.45593999997E+02  0.45594000000E+02  0.51100000000E-03 0. -1.
    9900012    2    1    2    0    0 -0.79436779433E+01  0.18041521130E+02  0.35560722671E+02  0.50528886620E+02  0.30000081371E+02 0.  0.
         12    1    1    2    0    0  0.79436779433E+01 -0.18041521130E+02 -0.35560722671E+02  0.40659113380E+02  0.00000000000E+00 0. -1.
         11    1    3    3    0    0 -0.54619145895E+00  0.97260566492E+00 -0.26190175973E+01  0.28466717979E+01  0.51100000000E-03 0. -1.
        -11    1    3    3    0    0 -0.60925622473E+01  0.58482091077E+01  0.34917508659E+02  0.35924271401E+02  0.51100000000E-03 0.  1.
        -12    1    3    3    0    0 -0.13049242370E+01  0.11220706357E+02  0.32622316091E+01  0.11757943421E+02  0.00000000000E+00 0.  1.
</event>
<event>
 7    1  0.5748623E-013  0.5052885E+02  0.7816164E-02  0.1300439E+00
        -11   -1    0    0    0    0  0.00000000000E+00  0.00000000000E+00  0.45593999997E+02  0.45594000000E+02  0.51100000000E-03 0. -1.
         11   -1    0    0    0    0 -0.00000000000E+00 -0.00000000000E+00 -0.45593999997E+02  0.45594000000E+02  0.51100000000E-03 0.  1.
    9900012    2    1    2    0    0  0.19730782462E+02 -0.19090487441E+02 -0.29990262676E+02  0.50528851673E+02  0.29999975145E+02 0.  0.
         12    1    1    2    0    0 -0.19730782462E+02  0.19090487441E+02  0.29990262676E+02  0.40659148327E+02  0.00000000000E+00 0. -1.
         11    1    3    3    0    0 -0.48165196987E+01 -0.55381676356E+01 -0.10343689170E+02  0.12683141120E+02  0.51100000000E-03 0. -1.
        -11    1    3    3    0    0  0.16590410236E+02 -0.44524303508E+00 -0.71751929322E+01  0.18081021737E+02  0.51100000000E-03 0.  1.
        -12    1    3    3    0    0  0.79568919250E+01 -0.13107076771E+02 -0.12471380574E+02  0.19764688816E+02  0.00000000000E+00 0.  1.
</event>
<event>
 7    1  0.5748623E-013  0.5052886E+02  0.7816164E-02  0.1300439E+00
        -11   -1    0    0    0    0  0.00000000000E+00  0.00000000000E+00  0.45593999997E+02  0.45594000000E+02  0.51100000000E-03 0. -1.
         11   -1    0    0    0    0 -0.00000000000E+00 -0.00000000000E+00 -0.45593999997E+02  0.45594000000E+02  0.51100000000E-03 0.  1.
    9900012    2    1    2    0    0  0.97443729711E+01 -0.39306099052E+02 -0.36391733629E+01  0.50528858222E+02  0.29999995053E+02 0.  0.
         12    1    1    2    0    0 -0.97443729711E+01  0.39306099052E+02  0.36391733629E+01  0.40659141778E+02  0.00000000000E+00 0. -1.
         11    1    3    3    0    0  0.14252456516E+02 -0.21846131214E+02  0.94190399276E+01  0.27732729386E+02  0.51100000000E-03 0. -1.
        -11    1    3    3    0    0  0.47052636045E+00 -0.13248957774E+00  0.70471148105E-01  0.49387750296E+00  0.51100000000E-03 0.  1.
         12    1    3    3    0    0 -0.49786099054E+01 -0.17327478261E+02 -0.13128684439E+02  0.22302251334E+02  0.00000000000E+00 0. -1.
</event>
<event>
 7    1  0.5748623E-013  0.5052887E+02  0.7816164E-02  0.1300439E+00
        -11   -1    0    0    0    0  0.00000000000E+00  0.00000000000E+00  0.45593999997E+02  0.45594000000E+02  0.51100000000E-03 0.  1.
         11   -1    0    0    0    0 -0.00000000000E+00 -0.00000000000E+00 -0.45593999997E+02  0.45594000000E+02  0.51100000000E-03 0. -1.
    9900012    2    1    2    0    0 -0.87773639859E+01 -0.36006440647E+02  0.16722998080E+02  0.50528873701E+02  0.30000042102E+02 0.  0.
         12    1    1    2    0    0  0.87773639859E+01  0.36006440647E+02 -0.16722998080E+02  0.40659126299E+02  0.00000000000E+00 0. -1.
         11    1    3    3    0    0 -0.60222642199E+00 -0.20550283892E+02 -0.24796932280E+01  0.20708107675E+02  0.51100000000E-03 0. -1.
        -11    1    3    3    0    0 -0.46097884236E+01 -0.17880806067E+02  0.14872370353E+02  0.23709929884E+02  0.51100000000E-03 0.  1.
         12    1    3    3    0    0 -0.35653491403E+01  0.24246493129E+01  0.43303209549E+01  0.61108361420E+01  0.00000000000E+00 0. -1.
</event>
<event>
 7    1  0.5748623E-013  0.5052886E+02  0.7816164E-02  0.1300439E+00
        -11   -1    0    0    0    0  0.00000000000E+00  0.00000000000E+00  0.45593999997E+02  0.45594000000E+02  0.51100000000E-03 0.  1.
         11   -1    0    0    0    0 -0.00000000000E+00 -0.00000000000E+00 -0.45593999997E+02  0.45594000000E+02  0.51100000000E-03 0. -1.
    9900012    2    1    2    0    0  0.83758516852E+01  0.62382956567E+01  0.39294962805E+02  0.50528864176E+02  0.30000013148E+02 0.  0.
         12    1    1    2    0    0 -0.83758516852E+01 -0.62382956567E+01 -0.39294962805E+02  0.40659135824E+02  0.00000000000E+00 0. -1.
         11    1    3    3    0    0 -0.69961810432E+01 -0.39949880484E+01  0.26677045604E+01  0.84866440116E+01  0.51100000000E-03 0. -1.
        -11    1    3    3    0    0  0.46019861859E+01  0.80943725115E+01  0.20689122043E+02  0.22687814226E+02  0.51100000000E-03 0.  1.
         12    1    3    3    0    0  0.10770046543E+02  0.21389111936E+01  0.15938136202E+02  0.19354405938E+02  0.00000000000E+00 0. -1.
</event>
<event>
 7    1  0.5748623E-013  0.5052887E+02  0.7816164E-02  0.1300439E+00
        -11   -1    0    0    0    0  0.00000000000E+00  0.00000000000E+00  0.45593999997E+02  0.45594000000E+02  0.51100000000E-03 0. -1.
         11   -1    0    0    0    0 -0.00000000000E+00 -0.00000000000E+00 -0.45593999997E+02  0.45594000000E+02  0.51100000000E-03 0.  1.
    9900012    2    1    2    0    0 -0.38963410611E+02  0.11303261268E+02  0.26933265043E+01  0.50528867085E+02  0.30000021992E+02 0.  0.
         12    1    1    2    0    0  0.38963410611E+02 -0.11303261268E+02 -0.26933265043E+01  0.40659132915E+02  0.00000000000E+00 0. -1.
         11    1    3    3    0    0 -0.31513955133E+02 -0.28578419183E+01 -0.12509072984E+01  0.31667986957E+02  0.51100000000E-03 0.  1.
        -11    1    3    3    0    0 -0.51767557728E+01  0.11112095302E+02 -0.13603250282E+01  0.12334015841E+02  0.51100000000E-03 0. -1.
        -12    1    3    3    0    0 -0.22726997050E+01  0.30490078844E+01  0.53045588309E+01  0.65268642868E+01  0.00000000000E+00 0.  1.
</event>
<event>
 7    1  0.5748623E-013  0.5052885E+02  0.7816164E-02  0.1300439E+00
        -11   -1    0    0    0    0  0.00000000000E+00  0.00000000000E+00  0.45593999997E+02  0.45594000000E+02  0.51100000000E-03 0.  1.
         11   -1    0    0    0    0 -0.00000000000E+00 -0.00000000000E+00 -0.45593999997E+02  0.45594000000E+02  0.51100000000E-03 0. -1.
    9900012    2    1    2    0    0 -0.26306975232E+01 -0.26466385605E+02  0.30753477038E+02  0.50528849906E+02  0.29999969773E+02 0.  0.
         12    1    1    2    0    0  0.26306975232E+01  0.26466385605E+02 -0.30753477038E+02  0.40659150094E+02  0.00000000000E+00 0. -1.
         11    1    3    3    0    0 -0.12946056766E+02 -0.16123948509E+01  0.10502152547E+02  0.16747997233E+02  0.51100000000E-03 0. -1.
        -11    1    3    3    0    0  0.67963724784E+01 -0.15385066905E+02  0.11113275769E+02  0.20159262415E+02  0.51100000000E-03 0.  1.
         12    1    3    3    0    0  0.35189867640E+01 -0.94689238485E+01  0.91380487222E+01  0.13621590258E+02  0.00000000000E+00 0. -1.
</event>
<event>
 7    1  0.5748623E-013  0.5052885E+02  0.7816164E-02  0.1300439E+00
        -11   -1    0    0    0    0  0.00000000000E+00  0.00000000000E+00  0.45593999997E+02  0.45594000000E+02  0.51100000000E-03 0. -1.
         11   -1    0    0    0    0 -0.00000000000E+00 -0.00000000000E+00 -0.45593999997E+02  0.45594000000E+02  0.51100000000E-03 0.  1.
    9900012    2    1    2    0    0 -0.45128017107E+01 -0.18101198479E+02 -0.36126822710E+02  0.50528854844E+02  0.29999984785E+02 0.  0.
         12    1    1    2    0    0  0.45128017107E+01  0.18101198479E+02  0.36126822710E+02  0.40659145156E+02  0.00000000000E+00 0. -1.
         11    1    3    3    0    0  0.39019065465E+00 -0.65738935776E+01 -0.42780180078E+01  0.78530098595E+01  0.51100000000E-03 0. -1.
        -11    1    3    3    0    0 -0.13555854428E+02 -0.35462476274E+01 -0.81381909562E+01  0.16203925876E+02  0.51100000000E-03 0.  1.
        -12    1    3    3    0    0  0.86528620625E+01 -0.79810572740E+01 -0.23710613746E+02  0.26471919109E+02  0.00000000000E+00 0.  1.
</event>
<event>
 7    1  0.5748623E-013  0.5052885E+02  0.7816164E-02  0.1300439E+00
        -11   -1    0    0    0    0  0.00000000000E+00  0.00000000000E+00  0.45593999997E+02  0.45594000000E+02  0.51100000000E-03 0.  1.
         11   -1    0    0    0    0 -0.00000000000E+00 -0.00000000000E+00 -0.45593999997E+02  0.45594000000E+02  0.51100000000E-03 0. -1.
    9900012    2    1    2    0    0 -0.44372067083E+01 -0.69984024647E+01  0.39805776757E+02  0.50528852152E+02  0.29999976602E+02 0.  0.
         12    1    1    2    0    0  0.44372067083E+01  0.69984024647E+01 -0.39805776757E+02  0.40659147848E+02  0.00000000000E+00 0. -1.
         11    1    3    3    0    0 -0.86409490674E+00  0.33317793107E+01 -0.22450404910E+01  0.41094550065E+01  0.51100000000E-03 0. -1.
        -11    1    3    3    0    0 -0.16471050458E+01 -0.14737133554E+01  0.34643862244E+02  0.34714290682E+02  0.51100000000E-03 0.  1.
        -12    1    3    3    0    0 -0.19260067558E+01 -0.88564684200E+01  0.74069550041E+01  0.11705106464E+02  0.00000000000E+00 0.  1.
</event>
<event>
 7    1  0.5748623E-013  0.5052886E+02  0.7816164E-02  0.1300439E+00
        -11   -1    0    0    0    0  0.00000000000E+00  0.00000000000E+00  0.45593999997E+02  0.45594000000E+02  0.51100000000E-03 0.  1.
         11   -1    0    0    0    0 -0.00000000000E+00 -0.00000000000E+00 -0.45593999997E+02  0.45594000000E+02  0.51100000000E-03 0. -1.
    9900012    2    1    2    0    0 -0.27966856206E+02  0.18066885247E+02 -0.23336839017E+02  0.50528862725E+02  0.30000008740E+02 0.  0.
         12    1    1    2    0    0  0.27966856206E+02 -0.18066885247E+02  0.23336839017E+02  0.40659137275E+02  0.00000000000E+00 0. -1.
         11    1    3    3    0    0  0.19561668131E+01  0.93900313470E+01 -0.16128161109E+01  0.97262764390E+01  0.51100000000E-03 0. -1.
        -11    1    3    3    0    0 -0.23520077962E+02  0.45670850382E+00 -0.11425275386E+02  0.26152238296E+02  0.51100000000E-03 0.  1.
         12    1    3    3    0    0 -0.64029450572E+01  0.82201453965E+01 -0.10298747520E+02  0.14650347990E+02  0.00000000000E+00 0. -1.
</event>
<event>
 7    1  0.5748623E-013  0.5052886E+02  0.7816164E-02  0.1300439E+00
        -11   -1    0    0    0    0  0.00000000000E+00  0.00000000000E+00  0.45593999997E+02  0.45594000000E+02  0.51100000000E-03 0. -1.
         11   -1    0    0    0    0 -0.00000000000E+00 -0.00000000000E+00 -0.45593999997E+02  0.45594000000E+02  0.51100000000E-03 0.  1.
    9900012    2    1    2    0    0 -0.38695522439E+02  0.78658519945E+01  0.96927939470E+01  0.50528864017E+02  0.30000012666E+02 0.  0.
         12    1    1    2    0    0  0.38695522439E+02 -0.78658519945E+01 -0.96927939470E+01  0.40659135983E+02  0.00000000000E+00 0. -1.
         11    1    3    3    0    0 -0.23086581742E+02  0.12799969182E+02 -0.11901913908E+01  0.26424345278E+02  0.51100000000E-03 0. -1.
        -11    1    3    3    0    0 -0.12637488594E+02 -0.40659921136E+01  0.51632746162E+00  0.13285518588E+02  0.51100000000E-03 0.  1.
         12    1    3    3    0    0 -0.29714521024E+01 -0.86812507360E+00  0.10366657876E+02  0.10819000151E+02  0.00000000000E+00 0. -1.
</event>
<event>
 7    1  0.5748623E-013  0.5052886E+02  0.7816164E-02  0.1300439E+00
        -11   -1    0    0    0    0  0.00000000000E+00  0.00000000000E+00  0.45593999997E+02  0.45594000000E+02  0.51100000000E-03 0. -1.
         11   -1    0    0    0    0 -0.00000000000E+00 -0.00000000000E+00 -0.45593999997E+02  0.45594000000E+02  0.51100000000E-03 0.  1.
    9900012    2    1    2    0    0 -0.38631355032E+02  0.10742365747E+02 -0.67368833877E+01  0.50528860668E+02  0.30000002487E+02 0.  0.
         12    1    1    2    0    0  0.38631355032E+02 -0.10742365747E+02  0.67368833877E+01  0.40659139332E+02  0.00000000000E+00 0. -1.
         11    1    3    3    0    0 -0.15992026974E+02  0.70117855868E+01  0.10019981443E+02  0.20132314626E+02  0.51100000000E-03 0. -1.
        -11    1    3    3    0    0 -0.11964372126E+02  0.48830667714E+00 -0.14853161928E+02  0.19078811894E+02  0.51100000000E-03 0.  1.
         12    1    3    3    0    0 -0.10674955932E+02  0.32422734829E+01 -0.19037029028E+01  0.11317734148E+02  0.00000000000E+00 0. -1.
</event>
<event>
 7    1  0.5748623E-013  0.5052885E+02  0.7816164E-02  0.1300439E+00
        -11   -1    0    0    0    0  0.00000000000E+00  0.00000000000E+00  0.45593999997E+02  0.45594000000E+02  0.51100000000E-03 0.  1.
         11   -1    0    0    0    0 -0.00000000000E+00 -0.00000000000E+00 -0.45593999997E+02  0.45594000000E+02  0.51100000000E-03 0. -1.
    9900012    2    1    2    0    0 -0.15010781615E+01 -0.32284101287E+01  0.40502969256E+02  0.50528851138E+02  0.29999973519E+02 0.  0.
         12    1    1    2    0    0  0.15010781615E+01  0.32284101287E+01 -0.40502969256E+02  0.40659148862E+02  0.00000000000E+00 0. -1.
         11    1    3    3    0    0 -0.80083970563E+01  0.51523538645E+01  0.67040942958E+01  0.11645859966E+02  0.51100000000E-03 0. -1.
        -11    1    3    3    0    0 -0.19759033828E+01 -0.97677970076E+01  0.23105523328E+02  0.25163053493E+02  0.51100000000E-03 0.  1.
         12    1    3    3    0    0  0.84832222776E+01  0.13870330144E+01  0.10693351632E+02  0.13719937679E+02  0.00000000000E+00 0. -1.
</event>
<event>
 7    1  0.5748623E-013  0.5052886E+02  0.7816164E-02  0.1300439E+00
        -11   -1    0    0    0    0  0.00000000000E+00  0.00000000000E+00  0.45593999997E+02  0.45594000000E+02  0.51100000000E-03 0.  1.
         11   -1    0    0    0    0 -0.00000000000E+00 -0.00000000000E+00 -0.45593999997E+02  0.45594000000E+02  0.51100000000E-03 0. -1.
    9900012    2    1    2    0    0 -0.28846660229E+02 -0.12056973538E+02  0.25993557700E+02  0.50528862538E+02  0.30000008170E+02 0.  0.
         12    1    1    2    0    0  0.28846660229E+02  0.12056973538E+02 -0.25993557700E+02  0.40659137462E+02  0.00000000000E+00 0. -1.
         11    1    3    3    0    0 -0.17869438658E+02  0.56268045573E+01  0.17021070790E+02  0.25311946163E+02  0.51100000000E-03 0. -1.
        -11    1    3    3    0    0 -0.58492050509E+01 -0.15154816085E+02  0.10444945311E+02  0.19312652151E+02  0.51100000000E-03 0.  1.
         12    1    3    3    0    0 -0.51280165202E+01 -0.25289620103E+01 -0.14724584007E+01  0.59042642236E+01  0.00000000000E+00 0. -1.
</event>
<event>
 7    1  0.5748623E-013  0.5052890E+02  0.7816164E-02  0.1300439E+00
        -11   -1    0    0    0    0  0.00000000000E+00  0.00000000000E+00  0.45593999997E+02  0.45594000000E+02  0.51100000000E-03 0. -1.
         11   -1    0    0    0    0 -0.00000000000E+00 -0.00000000000E+00 -0.45593999997E+02  0.45594000000E+02  0.51100000000E-03 0.  1.
    9900012    2    1    2    0    0  0.34826966375E+02 -0.18316087880E+02 -0.10235531825E+02  0.50528895560E+02  0.30000108545E+02 0.  0.
         12    1    1    2    0    0 -0.34826966375E+02  0.18316087880E+02  0.10235531825E+02  0.40659104440E+02  0.00000000000E+00 0. -1.
         11    1    3    3    0    0  0.25820979734E+02 -0.46223694263E+00 -0.32259241136E+01  0.26025818797E+02  0.51100000000E-03 0. -1.
        -11    1    3    3    0    0  0.83994267367E+00 -0.12587092207E+02 -0.76695366695E+01  0.14763542491E+02  0.51100000000E-03 0.  1.
        -12    1    3    3    0    0  0.81660439670E+01 -0.52667587310E+01  0.65992895816E+00  0.97395342718E+01  0.00000000000E+00 0.  1.
</event>
<event>
 7    1  0.5748623E-013  0.5052891E+02  0.7816164E-02  0.1300439E+00
        -11   -1    0    0    0    0  0.00000000000E+00  0.00000000000E+00  0.45593999997E+02  0.45594000000E+02  0.51100000000E-03 0.  1.
         11   -1    0    0    0    0 -0.00000000000E+00 -0.00000000000E+00 -0.45593999997E+02  0.45594000000E+02  0.51100000000E-03 0. -1.
    9900012    2    1    2    0    0  0.23929838078E+02 -0.10641699878E+02  0.31101102015E+02  0.50528911554E+02  0.30000157159E+02 0.  0.
         12    1    1    2    0    0 -0.23929838078E+02  0.10641699878E+02 -0.31101102015E+02  0.40659088446E+02  0.00000000000E+00 0. -1.
         11    1    3    3    0    0 -0.15331742079E+01  0.63167339540E+01  0.12059937873E+01  0.66110643828E+01  0.51100000000E-03 0. -1.
        -11    1    3    3    0    0  0.13575159430E+02 -0.14792186159E+02  0.19229749747E+02  0.27800665468E+02  0.51100000000E-03 0.  1.
        -12    1    3    3    0    0  0.11887852856E+02 -0.21662476734E+01  0.10665358481E+02  0.16117181703E+02  0.00000000000E+00 0.  1.
</event>
<event>
 7    1  0.5748623E-013  0.5052886E+02  0.7816164E-02  0.1300439E+00
        -11   -1    0    0    0    0  0.00000000000E+00  0.00000000000E+00  0.45593999997E+02  0.45594000000E+02  0.51100000000E-03 0.  1.
         11   -1    0    0    0    0 -0.00000000000E+00 -0.00000000000E+00 -0.45593999997E+02  0.45594000000E+02  0.51100000000E-03 0. -1.
    9900012    2    1    2    0    0  0.29792038527E+02 -0.27669386516E+02  0.72726835455E-01  0.50528858360E+02  0.29999995470E+02 0.  0.
         12    1    1    2    0    0 -0.29792038527E+02  0.27669386516E+02 -0.72726835455E-01  0.40659141640E+02  0.00000000000E+00 0. -1.
         11    1    3    3    0    0  0.74035259475E+01 -0.90398693480E+01 -0.90842069837E+01  0.14800481447E+02  0.51100000000E-03 0. -1.
        -11    1    3    3    0    0  0.11477317629E+02 -0.20448811850E+02  0.68361885376E+01  0.24425728239E+02  0.51100000000E-03 0.  1.
        -12    1    3    3    0    0  0.10911194950E+02  0.18192946817E+01  0.23207452816E+01  0.11302648674E+02  0.00000000000E+00 0.  1.
</event>
<event>
 7    1  0.5748623E-013  0.5052886E+02  0.7816164E-02  0.1300439E+00
        -11   -1    0    0    0    0  0.00000000000E+00  0.00000000000E+00  0.45593999997E+02  0.45594000000E+02  0.51100000000E-03 0. -1.
         11   -1    0    0    0    0 -0.00000000000E+00 -0.00000000000E+00 -0.45593999997E+02  0.45594000000E+02  0.51100000000E-03 0.  1.
    9900012    2    1    2    0    0 -0.29694753296E+02  0.21588420538E+02 -0.17473624812E+02  0.50528857870E+02  0.29999993983E+02 0.  0.
         12    1    1    2    0    0  0.29694753296E+02 -0.21588420538E+02  0.17473624812E+02  0.40659142130E+02  0.00000000000E+00 0. -1.
         11    1    3    3    0    0 -0.13940774545E+01  0.20691346509E+00  0.20682235021E+01  0.25027612445E+01  0.51100000000E-03 0. -1.
        -11    1    3    3    0    0 -0.32309252518E+02  0.15280693513E+02 -0.19525207974E+02  0.40726172656E+02  0.51100000000E-03 0.  1.
        -12    1    3    3    0    0  0.40085766766E+01  0.61008135601E+01 -0.16640339899E-01  0.72999239700E+01  0.00000000000E+00 0.  1.
</event>
<event>
 7    1  0.5748623E-013  0.5052888E+02  0.7816164E-02  0.1300439E+00
        -11   -1    0    0    0    0  0.00000000000E+00  0.00000000000E+00  0.45593999997E+02  0.45594000000E+02  0.51100000000E-03 0. -1.
         11   -1    0    0    0    0 -0.00000000000E+00 -0.00000000000E+00 -0.45593999997E+02  0.45594000000E+02  0.51100000000E-03 0.  1.
    9900012    2    1    2    0    0 -0.36865883843E+02 -0.74836940879E+00  0.17132157378E+02  0.50528877227E+02  0.30000052818E+02 0.  0.
         12    1    1    2    0    0  0.36865883843E+02  0.74836940879E+00 -0.17132157378E+02  0.40659122773E+02  0.00000000000E+00 0. -1.
         11    1    3    3    0    0 -0.36879349523E+00  0.28819441693E+00  0.72879486547E+01  0.73029624481E+01  0.51100000000E-03 0. -1.
        -11    1    3    3    0    0 -0.24657299220E+02 -0.14096207810E+01 -0.39849460629E+01  0.25016978853E+02  0.51100000000E-03 0.  1.
        -12    1    3    3    0    0 -0.11839791128E+02  0.37305695525E+00  0.13829154786E+02  0.18208935925E+02  0.00000000000E+00 0.  1.
</event>
<event>
 7    1  0.5748623E-013  0.5052886E+02  0.7816164E-02  0.1300439E+00
        -11   -1    0    0    0    0  0.00000000000E+00  0.00000000000E+00  0.45593999997E+02  0.45594000000E+02  0.51100000000E-03 0.  1.
         11   -1    0    0    0    0 -0.00000000000E+00 -0.00000000000E+00 -0.45593999997E+02  0.45594000000E+02  0.51100000000E-03 0. -1.
    9900012    2    1    2    0    0  0.67452126351E+01 -0.12306021347E+02  0.38160581136E+02  0.50528855795E+02  0.29999987674E+02 0.  0.
         12    1    1    2    0    0 -0.67452126351E+01  0.12306021347E+02 -0.38160581136E+02  0.40659144205E+02  0.00000000000E+00 0. -1.
         11    1    3    3    0    0 -0.89420843426E+01 -0.38148964938E+01  0.47574223582E+01  0.10823464113E+02  0.51100000000E-03 0. -1.
        -11    1    3    3    0    0  0.13123842938E+02 -0.43595541890E+01  0.13908184474E+02  0.19613224156E+02  0.51100000000E-03 0.  1.
        -12    1    3    3    0    0  0.25634540399E+01 -0.41315706639E+01  0.19494974304E+02  0.20092167526E+02  0.00000000000E+00 0.  1.
</event>
<event>
 7    1  0.5748623E-013  0.5052887E+02  0.7816164E-02  0.1300439E+00
        -11   -1    0    0    0    0  0.00000000000E+00  0.00000000000E+00  0.45593999997E+02  0.45594000000E+02  0.51100000000E-03 0.  1.
         11   -1    0    0    0    0 -0.00000000000E+00 -0.00000000000E+00 -0.45593999997E+02  0.45594000000E+02  0.51100000000E-03 0. -1.
    9900012    2    1    2    0    0  0.26057445713E+02  0.23424801299E+02 -0.20626522366E+02  0.50528865505E+02  0.30000017188E+02 0.  0.
         12    1    1    2    0    0 -0.26057445713E+02 -0.23424801299E+02  0.20626522366E+02  0.40659134495E+02  0.00000000000E+00 0. -1.
         11    1    3    3    0    0  0.39305294351E+01 -0.35712777546E+01 -0.78955692944E+01  0.95154138736E+01  0.51100000000E-03 0. -1.
        -11    1    3    3    0    0  0.49055536658E+01  0.15505629646E+02  0.79706776641E+00  0.16282638753E+02  0.51100000000E-03 0.  1.
        -12    1    3    3    0    0  0.17221362612E+02  0.11490449408E+02 -0.13528020838E+02  0.24730812878E+02  0.00000000000E+00 0.  1.
</event>
<event>
 7    1  0.5748623E-013  0.5052884E+02  0.7816164E-02  0.1300439E+00
        -11   -1    0    0    0    0  0.00000000000E+00  0.00000000000E+00  0.45593999997E+02  0.45594000000E+02  0.51100000000E-03 0.  1.
         11   -1    0    0    0    0 -0.00000000000E+00 -0.00000000000E+00 -0.45593999997E+02  0.45594000000E+02  0.51100000000E-03 0. -1.
    9900012    2    1    2    0    0 -0.19620161085E+02  0.14391338799E+02  0.32574618980E+02  0.50528841682E+02  0.29999944777E+02 0.  0.
         12    1    1    2    0    0  0.19620161085E+02 -0.14391338799E+02 -0.32574618980E+02  0.40659158318E+02  0.00000000000E+00 0. -1.
         11    1    3    3    0    0 -0.16535569649E+01  0.61017544755E+01  0.29774411940E+01  0.69879048820E+01  0.51100000000E-03 0. -1.
        -11    1    3    3    0    0 -0.25531582939E+01 -0.51659898499E+01 -0.18249801343E+01  0.60445530152E+01  0.51100000000E-03 0.  1.
        -12    1    3    3    0    0 -0.15413445826E+02  0.13455574174E+02  0.31422157920E+02  0.37496383785E+02  0.00000000000E+00 0.  1.
</event>
<event>
 7    1  0.5748623E-013  0.5052887E+02  0.7816164E-02  0.1300439E+00
        -11   -1    0    0    0    0  0.00000000000E+00  0.00000000000E+00  0.45593999997E+02  0.45594000000E+02  0.51100000000E-03 0.  1.
         11   -1    0    0    0    0 -0.00000000000E+00 -0.00000000000E+00 -0.45593999997E+02  0.45594000000E+02  0.51100000000E-03 0. -1.
    9900012    2    1    2    0    0 -0.43114577834E+00 -0.16299231160E+02  0.37246664176E+02  0.50528870456E+02  0.30000032237E+02 0.  0.
         12    1    1    2    0    0  0.43114577834E+00  0.16299231160E+02 -0.37246664176E+02  0.40659129544E+02  0.00000000000E+00 0. -1.
         11    1    3    3    0    0  0.17749826012E-01 -0.38200495142E+01  0.39738171623E+00  0.38407038205E+01  0.51100000000E-03 0. -1.
        -11    1    3    3    0    0  0.42343851047E+01 -0.10980289107E+02  0.39420172882E+02  0.41139358240E+02  0.51100000000E-03 0.  1.
        -12    1    3    3    0    0 -0.46832807090E+01 -0.14988925389E+01 -0.25708904224E+01  0.55488083952E+01  0.00000000000E+00 0.  1.
</event>
<event>
 7    1  0.5748623E-013  0.5052886E+02  0.7816164E-02  0.1300439E+00
        -11   -1    0    0    0    0  0.00000000000E+00  0.00000000000E+00  0.45593999997E+02  0.45594000000E+02  0.51100000000E-03 0.  1.
         11   -1    0    0    0    0 -0.00000000000E+00 -0.00000000000E+00 -0.45593999997E+02  0.45594000000E+02  0.51100000000E-03 0. -1.
    9900012    2    1    2    0    0  0.40093174304E+01 -0.13879042549E+02  0.38006096997E+02  0.50528857643E+02  0.29999993291E+02 0.  0.
         12    1    1    2    0    0 -0.40093174304E+01  0.13879042549E+02 -0.38006096997E+02  0.40659142357E+02  0.00000000000E+00 0. -1.
         11    1    3    3    0    0  0.93001726667E+01  0.15846554809E+00  0.44029738507E+01  0.10290991301E+02  0.51100000000E-03 0. -1.
        -11    1    3    3    0    0  0.18980874664E+00 -0.10151324595E+02  0.31653631952E+02  0.33242109355E+02  0.51100000000E-03 0.  1.
         12    1    3    3    0    0 -0.54806639828E+01 -0.38861835016E+01  0.19494911943E+01  0.69957569868E+01  0.00000000000E+00 0. -1.
</event>
<event>
 7    1  0.5748623E-013  0.5052886E+02  0.7816164E-02  0.1300439E+00
        -11   -1    0    0    0    0  0.00000000000E+00  0.00000000000E+00  0.45593999997E+02  0.45594000000E+02  0.51100000000E-03 0.  1.
         11   -1    0    0    0    0 -0.00000000000E+00 -0.00000000000E+00 -0.45593999997E+02  0.45594000000E+02  0.51100000000E-03 0. -1.
    9900012    2    1    2    0    0  0.16378329683E+02  0.31711697092E+02 -0.19475221927E+02  0.50528859764E+02  0.29999999738E+02 0.  0.
         12    1    1    2    0    0 -0.16378329683E+02 -0.31711697092E+02  0.19475221927E+02  0.40659140236E+02  0.00000000000E+00 0. -1.
         11    1    3    3    0    0 -0.53731004552E+01  0.18037117664E+02 -0.11099857174E+02  0.21849820403E+02  0.51100000000E-03 0. -1.
        -11    1    3    3    0    0  0.42356847808E+01  0.46863604011E+01  0.17302780289E+01  0.65495695805E+01  0.51100000000E-03 0.  1.
         12    1    3    3    0    0  0.17515745358E+02  0.89882190270E+01 -0.10105642781E+02  0.22129469780E+02  0.00000000000E+00 0. -1.
</event>
<event>
 7    1  0.5748623E-013  0.5052886E+02  0.7816164E-02  0.1300439E+00
        -11   -1    0    0    0    0  0.00000000000E+00  0.00000000000E+00  0.45593999997E+02  0.45594000000E+02  0.51100000000E-03 0.  1.
         11   -1    0    0    0    0 -0.00000000000E+00 -0.00000000000E+00 -0.45593999997E+02  0.45594000000E+02  0.51100000000E-03 0. -1.
    9900012    2    1    2    0    0  0.31102049592E+02  0.23406998824E+02 -0.11744812997E+02  0.50528859391E+02  0.29999998604E+02 0.  0.
         12    1    1    2    0    0 -0.31102049592E+02 -0.23406998824E+02  0.11744812997E+02  0.40659140609E+02  0.00000000000E+00 0. -1.
         11    1    3    3    0    0  0.39675392382E+01  0.18506058799E+01 -0.57714187212E+01  0.72439895117E+01  0.51100000000E-03 0. -1.
        -11    1    3    3    0    0  0.25048675608E+02  0.51539541907E+01  0.36784697524E+00  0.25576057264E+02  0.51100000000E-03 0.  1.
        -12    1    3    3    0    0  0.20858347459E+01  0.16402438753E+02 -0.63412412514E+01  0.17708812615E+02  0.00000000000E+00 0.  1.
</event>
<event>
 7    1  0.5748623E-013  0.5052886E+02  0.7816164E-02  0.1300439E+00
        -11   -1    0    0    0    0  0.00000000000E+00  0.00000000000E+00  0.45593999997E+02  0.45594000000E+02  0.51100000000E-03 0. -1.
         11   -1    0    0    0    0 -0.00000000000E+00 -0.00000000000E+00 -0.45593999997E+02  0.45594000000E+02  0.51100000000E-03 0.  1.
    9900012    2    1    2    0    0  0.37383664656E+02 -0.15151419799E+02  0.51050465683E+01  0.50528863198E+02  0.30000010176E+02 0.  0.
         12    1    1    2    0    0 -0.37383664656E+02  0.15151419799E+02 -0.51050465683E+01  0.40659136802E+02  0.00000000000E+00 0. -1.
         11    1    3    3    0    0  0.26893115653E+02 -0.19732503262E+02  0.15100285314E+01  0.33389991629E+02  0.51100000000E-03 0. -1.
        -11    1    3    3    0    0  0.10534955801E+02  0.32184117996E+01 -0.21592999583E+01  0.11225241414E+02  0.51100000000E-03 0.  1.
         12    1    3    3    0    0 -0.44406798110E-01  0.13626716631E+01  0.57543179952E+01  0.59136301554E+01  0.00000000000E+00 0. -1.
</event>
<event>
 7    1  0.5748623E-013  0.5052886E+02  0.7816164E-02  0.1300439E+00
        -11   -1    0    0    0    0  0.00000000000E+00  0.00000000000E+00  0.45593999997E+02  0.45594000000E+02  0.51100000000E-03 0.  1.
         11   -1    0    0    0    0 -0.00000000000E+00 -0.00000000000E+00 -0.45593999997E+02  0.45594000000E+02  0.51100000000E-03 0. -1.
    9900012    2    1    2    0    0  0.12231221704E+01 -0.37450171558E+02  0.15784624503E+02  0.50528858982E+02  0.29999997363E+02 0.  0.
         12    1    1    2    0    0 -0.12231221704E+01  0.37450171558E+02 -0.15784624503E+02  0.40659141018E+02  0.00000000000E+00 0. -1.
         11    1    3    3    0    0 -0.19979064828E+01  0.75105475922E+00  0.18064832321E+00  0.21420428668E+01  0.51100000000E-03 0. -1.
        -11    1    3    3    0    0  0.90688180335E+01 -0.29755961835E+02  0.17719763940E+01  0.31157673627E+02  0.51100000000E-03 0.  1.
        -12    1    3    3    0    0 -0.58477893803E+01 -0.84452644827E+01  0.13831999786E+02  0.17229142488E+02  0.00000000000E+00 0.  1.
</event>
<event>
 7    1  0.5748623E-013  0.5052883E+02  0.7816164E-02  0.1300439E+00
        -11   -1    0    0    0    0  0.00000000000E+00  0.00000000000E+00  0.45593999997E+02  0.45594000000E+02  0.51100000000E-03 0.  1.
         11   -1    0    0    0    0 -0.00000000000E+00 -0.00000000000E+00 -0.45593999997E+02  0.45594000000E+02  0.51100000000E-03 0. -1.
    9900012    2    1    2    0    0  0.31705243187E+02 -0.19852624806E+01  0.25377241778E+02  0.50528829904E+02  0.29999908976E+02 0.  0.
         12    1    1    2    0    0 -0.31705243187E+02  0.19852624806E+01 -0.25377241778E+02  0.40659170096E+02  0.00000000000E+00 0. -1.
         11    1    3    3    0    0  0.72647986649E+01 -0.26227544739E+01 -0.45596668587E+01  0.89692085935E+01  0.51100000000E-03 0. -1.
        -11    1    3    3    0    0  0.26479496793E+02  0.60421228215E+00  0.25942897886E+02  0.37075096411E+02  0.51100000000E-03 0.  1.
        -12    1    3    3    0    0 -0.20390522708E+01  0.33279711134E-01  0.39940107504E+01  0.44845248997E+01  0.00000000000E+00 0.  1.
</event>
<event>
 7    1  0.5748623E-013  0.5052886E+02  0.7816164E-02  0.1300439E+00
        -11   -1    0    0    0    0  0.00000000000E+00  0.00000000000E+00  0.45593999997E+02  0.45594000000E+02  0.51100000000E-03 0.  1.
         11   -1    0    0    0    0 -0.00000000000E+00 -0.00000000000E+00 -0.45593999997E+02  0.45594000000E+02  0.51100000000E-03 0. -1.
    9900012    2    1    2    0    0  0.85347619830E+01  0.22075600631E+02  0.33060419726E+02  0.50528860095E+02  0.30000000745E+02 0.  0.
         12    1    1    2    0    0 -0.85347619830E+01 -0.22075600631E+02 -0.33060419726E+02  0.40659139905E+02  0.00000000000E+00 0. -1.
         11    1    3    3    0    0 -0.81331463491E+01 -0.12485097321E+01  0.10902714870E+02  0.13659283945E+02  0.51100000000E-03 0. -1.
        -11    1    3    3    0    0  0.58939225514E+01  0.10315617022E+02  0.13167998230E+02  0.17735457571E+02  0.51100000000E-03 0.  1.
         12    1    3    3    0    0  0.10773985781E+02  0.13008493341E+02  0.89897066262E+01  0.19134118580E+02  0.00000000000E+00 0. -1.
</event>
<event>
 7    1  0.5748623E-013  0.5052886E+02  0.7816164E-02  0.1300439E+00
        -11   -1    0    0    0    0  0.00000000000E+00  0.00000000000E+00  0.45593999997E+02  0.45594000000E+02  0.51100000000E-03 0. -1.
         11   -1    0    0    0    0 -0.00000000000E+00 -0.00000000000E+00 -0.45593999997E+02  0.45594000000E+02  0.51100000000E-03 0.  1.
    9900012    2    1    2    0    0  0.38613468838E+01 -0.22173882803E+01 -0.40414583378E+02  0.50528863755E+02  0.30000011870E+02 0.  0.
         12    1    1    2    0    0 -0.38613468838E+01  0.22173882803E+01  0.40414583378E+02  0.40659136245E+02  0.00000000000E+00 0. -1.
         11    1    3    3    0    0 -0.37819982420E-01  0.53443691752E+01 -0.98698828313E+01  0.11224005506E+02  0.51100000000E-03 0. -1.
        -11    1    3    3    0    0  0.27924644368E+00 -0.14616566694E+02 -0.26817080862E+02  0.30543048746E+02  0.51100000000E-03 0.  1.
        -12    1    3    3    0    0  0.36199204225E+01  0.70548092381E+01 -0.37276196853E+01  0.87618095032E+01  0.00000000000E+00 0.  1.
</event>
<event>
 7    1  0.5748623E-013  0.5052894E+02  0.7816164E-02  0.1300439E+00
        -11   -1    0    0    0    0  0.00000000000E+00  0.00000000000E+00  0.45593999997E+02  0.45594000000E+02  0.51100000000E-03 0.  1.
         11   -1    0    0    0    0 -0.00000000000E+00 -0.00000000000E+00 -0.45593999997E+02  0.45594000000E+02  0.51100000000E-03 0. -1.
    9900012    2    1    2    0    0  0.11255347454E+02 -0.25686757520E+02  0.29439206943E+02  0.50528938726E+02  0.30000239751E+02 0.  0.
         12    1    1    2    0    0 -0.11255347454E+02  0.25686757520E+02 -0.29439206943E+02  0.40659061274E+02  0.00000000000E+00 0. -1.
         11    1    3    3    0    0 -0.14916333181E+01 -0.15831238172E+01 -0.22744512963E+01  0.31471224852E+01  0.51100000000E-03 0. -1.
        -11    1    3    3    0    0  0.10313495758E+02 -0.78994064274E+01  0.27574016266E+02  0.30481062808E+02  0.51100000000E-03 0.  1.
        -12    1    3    3    0    0  0.24334850140E+01 -0.16204227276E+02  0.41396419737E+01  0.16900753433E+02  0.00000000000E+00 0.  1.
</event>
<event>
 7    1  0.5748623E-013  0.5052885E+02  0.7816164E-02  0.1300439E+00
        -11   -1    0    0    0    0  0.00000000000E+00  0.00000000000E+00  0.45593999997E+02  0.45594000000E+02  0.51100000000E-03 0. -1.
         11   -1    0    0    0    0 -0.00000000000E+00 -0.00000000000E+00 -0.45593999997E+02  0.45594000000E+02  0.51100000000E-03 0.  1.
    9900012    2    1    2    0    0  0.31690547702E+02 -0.51760624794E+01  0.24941604917E+02  0.50528854753E+02  0.29999984506E+02 0.  0.
         12    1    1    2    0    0 -0.31690547702E+02  0.51760624794E+01 -0.24941604917E+02  0.40659145247E+02  0.00000000000E+00 0. -1.
         11    1    3    3    0    0  0.13776735828E+01  0.14395209414E+01 -0.30962106090E+01  0.36819458765E+01  0.51100000000E-03 0. -1.
        -11    1    3    3    0    0  0.27105070846E+02 -0.12412562469E+02  0.26840119698E+02  0.40114194474E+02  0.51100000000E-03 0.  1.
        -12    1    3    3    0    0  0.32078032725E+01  0.57969790482E+01  0.11976958274E+01  0.67327144017E+01  0.00000000000E+00 0.  1.
</event>
<event>
 7    1  0.5748623E-013  0.5052886E+02  0.7816164E-02  0.1300439E+00
        -11   -1    0    0    0    0  0.00000000000E+00  0.00000000000E+00  0.45593999997E+02  0.45594000000E+02  0.51100000000E-03 0.  1.
         11   -1    0    0    0    0 -0.00000000000E+00 -0.00000000000E+00 -0.45593999997E+02  0.45594000000E+02  0.51100000000E-03 0. -1.
    9900012    2    1    2    0    0  0.23979093007E+02  0.27619948373E+02  0.17756902053E+02  0.50528855640E+02  0.29999987203E+02 0.  0.
         12    1    1    2    0    0 -0.23979093007E+02 -0.27619948373E+02 -0.17756902053E+02  0.40659144360E+02  0.00000000000E+00 0. -1.
         11    1    3    3    0    0 -0.22262728259E+01  0.69922447486E+01 -0.37010250118E+01  0.82185986469E+01  0.51100000000E-03 0. -1.
        -11    1    3    3    0    0  0.24490387746E+02  0.19977897729E+02  0.23633817399E+02  0.39464576708E+02  0.51100000000E-03 0.  1.
        -12    1    3    3    0    0  0.17149780871E+01  0.64980589538E+00 -0.21758903337E+01  0.28456802852E+01  0.00000000000E+00 0.  1.
</event>
<event>
 7    1  0.5748623E-013  0.5052886E+02  0.7816164E-02  0.1300439E+00
        -11   -1    0    0    0    0  0.00000000000E+00  0.00000000000E+00  0.45593999997E+02  0.45594000000E+02  0.51100000000E-03 0.  1.
         11   -1    0    0    0    0 -0.00000000000E+00 -0.00000000000E+00 -0.45593999997E+02  0.45594000000E+02  0.51100000000E-03 0. -1.
    9900012    2    1    2    0    0  0.38581529712E+02  0.30505459431E+01  0.12462949877E+02  0.50528863449E+02  0.30000010938E+02 0.  0.
         12    1    1    2    0    0 -0.38581529712E+02 -0.30505459431E+01 -0.12462949877E+02  0.40659136551E+02  0.00000000000E+00 0. -1.
         11    1    3    3    0    0  0.23829195204E+02  0.79483865616E+01  0.18951382471E+02  0.31466844310E+02  0.51100000000E-03 0. -1.
        -11    1    3    3    0    0  0.14248977965E+02 -0.51181528757E+01 -0.28797464917E+01  0.15411742342E+02  0.51100000000E-03 0.  1.
         12    1    3    3    0    0  0.50335654308E+00  0.22031225716E+00 -0.36086861028E+01  0.36502767962E+01  0.00000000000E+00 0. -1.
</event>
<event>
 7    1  0.5748623E-013  0.5052889E+02  0.7816164E-02  0.1300439E+00
        -11   -1    0    0    0    0  0.00000000000E+00  0.00000000000E+00  0.45593999997E+02  0.45594000000E+02  0.51100000000E-03 0.  1.
         11   -1    0    0    0    0 -0.00000000000E+00 -0.00000000000E+00 -0.45593999997E+02  0.45594000000E+02  0.51100000000E-03 0. -1.
    9900012    2    1    2    0    0 -0.27985586218E+02 -0.29447613927E+02  0.16757357275E+01  0.50528891645E+02  0.30000096644E+02 0.  0.
         12    1    1    2    0    0  0.27985586218E+02  0.29447613927E+02 -0.16757357275E+01  0.40659108355E+02  0.00000000000E+00 0. -1.
         11    1    3    3    0    0 -0.93449771371E+01 -0.13182833584E+02  0.10573071189E+02  0.19310762119E+02  0.51100000000E-03 0.  1.
        -11    1    3    3    0    0 -0.81514634069E+01 -0.12656683522E+01 -0.99017532563E+01  0.12887706928E+02  0.51100000000E-03 0. -1.
         12    1    3    3    0    0 -0.10489145674E+02 -0.14999111991E+02  0.10044177947E+01  0.18330422598E+02  0.00000000000E+00 0. -1.
</event>
<event>
 7    1  0.5748623E-013  0.5052885E+02  0.7816164E-02  0.1300439E+00
        -11   -1    0    0    0    0  0.00000000000E+00  0.00000000000E+00  0.45593999997E+02  0.45594000000E+02  0.51100000000E-03 0. -1.
         11   -1    0    0    0    0 -0.00000000000E+00 -0.00000000000E+00 -0.45593999997E+02  0.45594000000E+02  0.51100000000E-03 0.  1.
    9900012    2    1    2    0    0  0.39076345561E+02 -0.10235453442E+02 -0.46304211770E+01  0.50528854782E+02  0.29999984597E+02 0.  0.
         12    1    1    2    0    0 -0.39076345561E+02  0.10235453442E+02  0.46304211770E+01  0.40659145218E+02  0.00000000000E+00 0. -1.
         11    1    3    3    0    0  0.14984064797E+02  0.12588888158E+01  0.53936994658E+01  0.15974948922E+02  0.51100000000E-03 0. -1.
        -11    1    3    3    0    0  0.11394706029E+02 -0.85442397238E+01 -0.14922449470E+02  0.20628205360E+02  0.51100000000E-03 0.  1.
        -12    1    3    3    0    0  0.12697574735E+02 -0.29501025339E+01  0.48983288269E+01  0.13925700500E+02  0.00000000000E+00 0.  1.
</event>
<event>
 7    1  0.5748623E-013  0.5052886E+02  0.7816164E-02  0.1300439E+00
        -11   -1    0    0    0    0  0.00000000000E+00  0.00000000000E+00  0.45593999997E+02  0.45594000000E+02  0.51100000000E-03 0. -1.
         11   -1    0    0    0    0 -0.00000000000E+00 -0.00000000000E+00 -0.45593999997E+02  0.45594000000E+02  0.51100000000E-03 0.  1.
    9900012    2    1    2    0    0 -0.36600028315E+02 -0.15372251099E+02  0.87918814388E+01  0.50528863810E+02  0.30000012037E+02 0.  0.
         12    1    1    2    0    0  0.36600028315E+02  0.15372251099E+02 -0.87918814388E+01  0.40659136190E+02  0.00000000000E+00 0. -1.
         11    1    3    3    0    0 -0.47724936568E+01 -0.65428932119E+01 -0.71399855783E+01  0.10796552302E+02  0.51100000000E-03 0. -1.
        -11    1    3    3    0    0 -0.28060700537E+02 -0.17392234412E+01  0.14288909427E+02  0.31537291350E+02  0.51100000000E-03 0.  1.
        -12    1    3    3    0    0 -0.37668341205E+01 -0.70901344457E+01  0.16429575897E+01  0.81950201581E+01  0.00000000000E+00 0.  1.
</event>
<event>
 7    1  0.5748623E-013  0.5052885E+02  0.7816164E-02  0.1300439E+00
        -11   -1    0    0    0    0  0.00000000000E+00  0.00000000000E+00  0.45593999997E+02  0.45594000000E+02  0.51100000000E-03 0.  1.
         11   -1    0    0    0    0 -0.00000000000E+00 -0.00000000000E+00 -0.45593999997E+02  0.45594000000E+02  0.51100000000E-03 0. -1.
    9900012    2    1    2    0    0  0.21686507504E+02 -0.33512682977E+02  0.77305852237E+01  0.50528850034E+02  0.29999970165E+02 0.  0.
         12    1    1    2    0    0 -0.21686507504E+02  0.33512682977E+02 -0.77305852237E+01  0.40659149966E+02  0.00000000000E+00 0. -1.
         11    1    3    3    0    0  0.59298955049E+01 -0.11722834807E+02 -0.69762337823E+01  0.14874688389E+02  0.51100000000E-03 0. -1.
        -11    1    3    3    0    0  0.17987155682E+02 -0.22263756503E+02  0.16238216041E+02  0.32907328722E+02  0.51100000000E-03 0.  1.
        -12    1    3    3    0    0 -0.22305436827E+01  0.47390833419E+00 -0.15313970352E+01  0.27468329234E+01  0.00000000000E+00 0.  1.
</event>
<event>
 7    1  0.5748623E-013  0.5052886E+02  0.7816164E-02  0.1300439E+00
        -11   -1    0    0    0    0  0.00000000000E+00  0.00000000000E+00  0.45593999997E+02  0.45594000000E+02  0.51100000000E-03 0.  1.
         11   -1    0    0    0    0 -0.00000000000E+00 -0.00000000000E+00 -0.45593999997E+02  0.45594000000E+02  0.51100000000E-03 0. -1.
    9900012    2    1    2    0    0 -0.24477859020E+02 -0.27833714781E+02 -0.16711813764E+02  0.50528856133E+02  0.29999988702E+02 0.  0.
         12    1    1    2    0    0  0.24477859020E+02  0.27833714781E+02  0.16711813764E+02  0.40659143867E+02  0.00000000000E+00 0. -1.
         11    1    3    3    0    0 -0.43987062720E+01 -0.30678469245E+01 -0.84583450713E+01  0.10015183634E+02  0.51100000000E-03 0. -1.
        -11    1    3    3    0    0 -0.24304250686E+02 -0.25099439352E+02 -0.52765485941E+01  0.35334408478E+02  0.51100000000E-03 0.  1.
        -12    1    3    3    0    0  0.42250979375E+01  0.33357149557E+00 -0.29769200982E+01  0.51792640206E+01  0.00000000000E+00 0.  1.
</event>
<event>
 7    1  0.5748623E-013  0.5052885E+02  0.7816164E-02  0.1300439E+00
        -11   -1    0    0    0    0  0.00000000000E+00  0.00000000000E+00  0.45593999997E+02  0.45594000000E+02  0.51100000000E-03 0.  1.
         11   -1    0    0    0    0 -0.00000000000E+00 -0.00000000000E+00 -0.45593999997E+02  0.45594000000E+02  0.51100000000E-03 0. -1.
    9900012    2    1    2    0    0 -0.22739610050E+02  0.18915621640E+02  0.27897591481E+02  0.50528853210E+02  0.29999979819E+02 0.  0.
         12    1    1    2    0    0  0.22739610050E+02 -0.18915621640E+02 -0.27897591481E+02  0.40659146790E+02  0.00000000000E+00 0. -1.
         11    1    3    3    0    0 -0.15839805538E+01  0.36217729911E+01  0.17304113719E+02  0.17749889742E+02  0.51100000000E-03 0. -1.
        -11    1    3    3    0    0 -0.21917579265E+02  0.10437750328E+02  0.40763444041E+01  0.24615919578E+02  0.51100000000E-03 0.  1.
        -12    1    3    3    0    0  0.76194976862E+00  0.48560983210E+01  0.65171333575E+01  0.81630438901E+01  0.00000000000E+00 0.  1.
</event>
<event>
 7    1  0.5748623E-013  0.5052886E+02  0.7816164E-02  0.1300439E+00
        -11   -1    0    0    0    0  0.00000000000E+00  0.00000000000E+00  0.45593999997E+02  0.45594000000E+02  0.51100000000E-03 0. -1.
         11   -1    0    0    0    0 -0.00000000000E+00 -0.00000000000E+00 -0.45593999997E+02  0.45594000000E+02  0.51100000000E-03 0.  1.
    9900012    2    1    2    0    0 -0.39516829598E+02 -0.33211042861E+01 -0.89753053403E+01  0.50528860054E+02  0.30000000621E+02 0.  0.
         12    1    1    2    0    0  0.39516829598E+02  0.33211042861E+01  0.89753053403E+01  0.40659139946E+02  0.00000000000E+00 0. -1.
         11    1    3    3    0    0 -0.10935003775E+02  0.82785418379E+01  0.30891718845E+01  0.14058860043E+02  0.51100000000E-03 0. -1.
        -11    1    3    3    0    0 -0.21510577312E+02 -0.31442971308E+01 -0.13129180100E+02  0.25396198753E+02  0.51100000000E-03 0.  1.
        -12    1    3    3    0    0 -0.70712485114E+01 -0.84553489931E+01  0.10647028748E+01  0.11073801259E+02  0.00000000000E+00 0.  1.
</event>
<event>
 7    1  0.5748623E-013  0.5052887E+02  0.7816164E-02  0.1300439E+00
        -11   -1    0    0    0    0  0.00000000000E+00  0.00000000000E+00  0.45593999997E+02  0.45594000000E+02  0.51100000000E-03 0.  1.
         11   -1    0    0    0    0 -0.00000000000E+00 -0.00000000000E+00 -0.45593999997E+02  0.45594000000E+02  0.51100000000E-03 0. -1.
    9900012    2    1    2    0    0  0.18071913735E+02  0.69465879650E+01  0.35753539363E+02  0.50528871537E+02  0.30000035524E+02 0.  0.
         12    1    1    2    0    0 -0.18071913735E+02 -0.69465879650E+01 -0.35753539363E+02  0.40659128463E+02  0.00000000000E+00 0. -1.
         11    1    3    3    0    0 -0.29570379089E+01 -0.14864945356E+01  0.10596558117E+01  0.34751417092E+01  0.51100000000E-03 0. -1.
        -11    1    3    3    0    0  0.12170721749E+02  0.13400036898E+02  0.31633755812E+02  0.36446974686E+02  0.51100000000E-03 0.  1.
        -12    1    3    3    0    0  0.88582298948E+01 -0.49669543970E+01  0.30601277390E+01  0.10606755141E+02  0.00000000000E+00 0.  1.
</event>
<event>
 7    1  0.5748623E-013  0.5052886E+02  0.7816164E-02  0.1300439E+00
        -11   -1    0    0    0    0  0.00000000000E+00  0.00000000000E+00  0.45593999997E+02  0.45594000000E+02  0.51100000000E-03 0.  1.
         11   -1    0    0    0    0 -0.00000000000E+00 -0.00000000000E+00 -0.45593999997E+02  0.45594000000E+02  0.51100000000E-03 0. -1.
    9900012    2    1    2    0    0 -0.48374063740E+01  0.13341617905E+02  0.38102049588E+02  0.50528862632E+02  0.30000008455E+02 0.  0.
         12    1    1    2    0    0  0.48374063740E+01 -0.13341617905E+02 -0.38102049588E+02  0.40659137368E+02  0.00000000000E+00 0. -1.
         11    1    3    3    0    0 -0.13944607441E+02  0.10135433612E+02  0.13459759098E+02  0.21871081510E+02  0.51100000000E-03 0. -1.
        -11    1    3    3    0    0  0.27250685212E+01  0.54646337901E+01  0.18623975538E+02  0.19599507290E+02  0.51100000000E-03 0.  1.
         12    1    3    3    0    0  0.63821325454E+01 -0.22584494968E+01  0.60183149524E+01  0.90582738324E+01  0.00000000000E+00 0. -1.
</event>
<event>
 7    1  0.5748623E-013  0.5052886E+02  0.7816164E-02  0.1300439E+00
        -11   -1    0    0    0    0  0.00000000000E+00  0.00000000000E+00  0.45593999997E+02  0.45594000000E+02  0.51100000000E-03 0. -1.
         11   -1    0    0    0    0 -0.00000000000E+00 -0.00000000000E+00 -0.45593999997E+02  0.45594000000E+02  0.51100000000E-03 0.  1.
    9900012    2    1    2    0    0 -0.40068736153E+02  0.69028695183E+01 -0.11111928910E+00  0.50528861151E+02  0.30000003954E+02 0.  0.
         12    1    1    2    0    0  0.40068736153E+02 -0.69028695183E+01  0.11111928910E+00  0.40659138849E+02  0.00000000000E+00 0. -1.
         11    1    3    3    0    0 -0.18335194110E+02 -0.65104278049E+01  0.80517338921E+01  0.21056956860E+02  0.51100000000E-03 0. -1.
        -11    1    3    3    0    0 -0.16625246504E+02  0.10824041648E+02 -0.11412880490E+02  0.22886951310E+02  0.51100000000E-03 0.  1.
         12    1    3    3    0    0 -0.51082955387E+01  0.25892556754E+01  0.32500273085E+01  0.65849529815E+01  0.00000000000E+00 0. -1.
</event>
<event>
 7    1  0.5748623E-013  0.5052885E+02  0.7816164E-02  0.1300439E+00
        -11   -1    0    0    0    0  0.00000000000E+00  0.00000000000E+00  0.45593999997E+02  0.45594000000E+02  0.51100000000E-03 0.  1.
         11   -1    0    0    0    0 -0.00000000000E+00 -0.00000000000E+00 -0.45593999997E+02  0.45594000000E+02  0.51100000000E-03 0. -1.
    9900012    2    1    2    0    0 -0.33506065107E+02 -0.22032781016E+02  0.67131555718E+01  0.50528852247E+02  0.29999976889E+02 0.  0.
         12    1    1    2    0    0  0.33506065107E+02  0.22032781016E+02 -0.67131555718E+01  0.40659147753E+02  0.00000000000E+00 0. -1.
         11    1    3    3    0    0  0.62209802038E+00 -0.91147915666E+01  0.39976302533E+01  0.99723356919E+01  0.51100000000E-03 0. -1.
        -11    1    3    3    0    0 -0.33508567583E+02 -0.13470458801E+02 -0.16113680302E+01  0.36150710491E+02  0.51100000000E-03 0.  1.
        -12    1    3    3    0    0 -0.61959554465E+00  0.55246935196E+00  0.43268933487E+01  0.44058060642E+01  0.00000000000E+00 0.  1.
</event>
<event>
 7    1  0.5748623E-013  0.5052887E+02  0.7816164E-02  0.1300439E+00
        -11   -1    0    0    0    0  0.00000000000E+00  0.00000000000E+00  0.45593999997E+02  0.45594000000E+02  0.51100000000E-03 0. -1.
         11   -1    0    0    0    0 -0.00000000000E+00 -0.00000000000E+00 -0.45593999997E+02  0.45594000000E+02  0.51100000000E-03 0.  1.
    9900012    2    1    2    0    0 -0.20978014593E+00 -0.15593466628E+02 -0.37549499625E+02  0.50528866570E+02  0.30000020427E+02 0.  0.
         12    1    1    2    0    0  0.20978014593E+00  0.15593466628E+02  0.37549499625E+02  0.40659133430E+02  0.00000000000E+00 0. -1.
         11    1    3    3    0    0 -0.40420232905E+01  0.66127725051E+01 -0.24918589320E+01  0.81410118341E+01  0.51100000000E-03 0. -1.
        -11    1    3    3    0    0  0.25647628288E+01 -0.79205403527E+01 -0.19636116874E+02  0.21328151678E+02  0.51100000000E-03 0.  1.
         12    1    3    3    0    0  0.12674803158E+01 -0.14285698781E+02 -0.15421523818E+02  0.21059703058E+02  0.00000000000E+00 0. -1.
</event>
<event>
 7    1  0.5748623E-013  0.5052886E+02  0.7816164E-02  0.1300439E+00
        -11   -1    0    0    0    0  0.00000000000E+00  0.00000000000E+00  0.45593999997E+02  0.45594000000E+02  0.51100000000E-03 0. -1.
         11   -1    0    0    0    0 -0.00000000000E+00 -0.00000000000E+00 -0.45593999997E+02  0.45594000000E+02  0.51100000000E-03 0.  1.
    9900012    2    1    2    0    0  0.50350459833E+01  0.38867741085E+02  0.10821868985E+02  0.50528857936E+02  0.29999994181E+02 0.  0.
         12    1    1    2    0    0 -0.50350459833E+01 -0.38867741085E+02 -0.10821868985E+02  0.40659142064E+02  0.00000000000E+00 0. -1.
         11    1    3    3    0    0 -0.60881892745E+01  0.27402688079E+02 -0.15363475482E+01  0.28112874749E+02  0.51100000000E-03 0. -1.
        -11    1    3    3    0    0  0.67006010615E+01  0.11533217552E+02  0.58922779295E+01  0.14581910065E+02  0.51100000000E-03 0.  1.
         12    1    3    3    0    0  0.44226341963E+01 -0.68164547008E-01  0.64659386037E+01  0.78340731211E+01  0.00000000000E+00 0. -1.
</event>
<event>
 7    1  0.5748623E-013  0.5052890E+02  0.7816164E-02  0.1300439E+00
        -11   -1    0    0    0    0  0.00000000000E+00  0.00000000000E+00  0.45593999997E+02  0.45594000000E+02  0.51100000000E-03 0.  1.
         11   -1    0    0    0    0 -0.00000000000E+00 -0.00000000000E+00 -0.45593999997E+02  0.45594000000E+02  0.51100000000E-03 0. -1.
    9900012    2    1    2    0    0 -0.22654866081E+02 -0.15984682275E+02  0.29739018426E+02  0.50528902106E+02  0.30000128443E+02 0.  0.
         12    1    1    2    0    0  0.22654866081E+02  0.15984682275E+02 -0.29739018426E+02  0.40659097894E+02  0.00000000000E+00 0. -1.
         11    1    3    3    0    0 -0.10935182649E+02  0.35633221468E+01  0.16727650009E+02  0.20299994073E+02  0.51100000000E-03 0. -1.
        -11    1    3    3    0    0 -0.31402956541E+01 -0.17510816280E+02  0.11752367614E+02  0.21321545169E+02  0.51100000000E-03 0.  1.
        -12    1    3    3    0    0 -0.85793877782E+01 -0.20371881411E+01  0.12590008024E+01  0.89073628641E+01  0.00000000000E+00 0.  1.
</event>
<event>
 7    1  0.5748623E-013  0.5052886E+02  0.7816164E-02  0.1300439E+00
        -11   -1    0    0    0    0  0.00000000000E+00  0.00000000000E+00  0.45593999997E+02  0.45594000000E+02  0.51100000000E-03 0.  1.
         11   -1    0    0    0    0 -0.00000000000E+00 -0.00000000000E+00 -0.45593999997E+02  0.45594000000E+02  0.51100000000E-03 0. -1.
    9900012    2    1    2    0    0  0.40221484759E+02 -0.56305866220E+00  0.59228922519E+01  0.50528861741E+02  0.30000005749E+02 0.  0.
         12    1    1    2    0    0 -0.40221484759E+02  0.56305866220E+00 -0.59228922519E+01  0.40659138259E+02  0.00000000000E+00 0. -1.
         11    1    3    3    0    0  0.14382747550E+02  0.14030531137E+01  0.33008108888E+00  0.14454789480E+02  0.51100000000E-03 0. -1.
        -11    1    3    3    0    0  0.27563319240E+01  0.44609838893E+01  0.10389799686E+02  0.11638113280E+02  0.51100000000E-03 0.  1.
        -12    1    3    3    0    0  0.23082405285E+02 -0.64270956652E+01 -0.47969885231E+01  0.24435958981E+02  0.00000000000E+00 0.  1.
</event>
<event>
 7    1  0.5748623E-013  0.5052888E+02  0.7816164E-02  0.1300439E+00
        -11   -1    0    0    0    0  0.00000000000E+00  0.00000000000E+00  0.45593999997E+02  0.45594000000E+02  0.51100000000E-03 0.  1.
         11   -1    0    0    0    0 -0.00000000000E+00 -0.00000000000E+00 -0.45593999997E+02  0.45594000000E+02  0.51100000000E-03 0. -1.
    9900012    2    1    2    0    0  0.67963244716E+01 -0.34631579271E+02  0.20189789518E+02  0.50528881590E+02  0.30000066079E+02 0.  0.
         12    1    1    2    0    0 -0.67963244716E+01  0.34631579271E+02 -0.20189789518E+02  0.40659118410E+02  0.00000000000E+00 0. -1.
         11    1    3    3    0    0 -0.28759990392E+01 -0.17599289158E+01  0.54932518534E+01  0.64455051353E+01  0.51100000000E-03 0. -1.
        -11    1    3    3    0    0 -0.84613429572E+00 -0.28955740842E+02  0.53074653114E+01  0.29450298118E+02  0.51100000000E-03 0.  1.
        -12    1    3    3    0    0  0.10518457807E+02 -0.39159095136E+01  0.93890723533E+01  0.14633078336E+02  0.00000000000E+00 0.  1.
</event>
<event>
 7    1  0.5748623E-013  0.5052884E+02  0.7816164E-02  0.1300439E+00
        -11   -1    0    0    0    0  0.00000000000E+00  0.00000000000E+00  0.45593999997E+02  0.45594000000E+02  0.51100000000E-03 0. -1.
         11   -1    0    0    0    0 -0.00000000000E+00 -0.00000000000E+00 -0.45593999997E+02  0.45594000000E+02  0.51100000000E-03 0.  1.
    9900012    2    1    2    0    0  0.23142108317E+02  0.15578882670E+02  0.29578849306E+02  0.50528842497E+02  0.29999947254E+02 0.  0.
         12    1    1    2    0    0 -0.23142108317E+02 -0.15578882670E+02 -0.29578849306E+02  0.40659157503E+02  0.00000000000E+00 0. -1.
         11    1    3    3    0    0  0.16154237276E+02 -0.25465523502E+01  0.19409790479E+02  0.25380785598E+02  0.51100000000E-03 0. -1.
        -11    1    3    3    0    0  0.17545032994E+01  0.20200305134E+01 -0.27587546070E+01  0.38431149274E+01  0.51100000000E-03 0.  1.
         12    1    3    3    0    0  0.52333677414E+01  0.16105404507E+02  0.12927813434E+02  0.21304941972E+02  0.00000000000E+00 0. -1.
</event>
<event>
 7    1  0.5748623E-013  0.5052888E+02  0.7816164E-02  0.1300439E+00
        -11   -1    0    0    0    0  0.00000000000E+00  0.00000000000E+00  0.45593999997E+02  0.45594000000E+02  0.51100000000E-03 0.  1.
         11   -1    0    0    0    0 -0.00000000000E+00 -0.00000000000E+00 -0.45593999997E+02  0.45594000000E+02  0.51100000000E-03 0. -1.
    9900012    2    1    2    0    0 -0.26874172571E+02  0.21166227916E+02  0.21975744776E+02  0.50528883999E+02  0.30000073402E+02 0.  0.
         12    1    1    2    0    0  0.26874172571E+02 -0.21166227916E+02 -0.21975744776E+02  0.40659116001E+02  0.00000000000E+00 0. -1.
         11    1    3    3    0    0 -0.13720755009E+02  0.31273719108E+01 -0.50687087352E+01  0.14957652944E+02  0.51100000000E-03 0. -1.
        -11    1    3    3    0    0 -0.11248307858E+02  0.14751184600E+02  0.18398401250E+02  0.26127055816E+02  0.51100000000E-03 0.  1.
         12    1    3    3    0    0 -0.19051097039E+01  0.32876714048E+01  0.86460522610E+01  0.94441752392E+01  0.00000000000E+00 0. -1.
</event>
<event>
 7    1  0.5748623E-013  0.5052885E+02  0.7816164E-02  0.1300439E+00
        -11   -1    0    0    0    0  0.00000000000E+00  0.00000000000E+00  0.45593999997E+02  0.45594000000E+02  0.51100000000E-03 0.  1.
         11   -1    0    0    0    0 -0.00000000000E+00 -0.00000000000E+00 -0.45593999997E+02  0.45594000000E+02  0.51100000000E-03 0. -1.
    9900012    2    1    2    0    0  0.22801642562E+02 -0.84560285649E+01 -0.32584458855E+02  0.50528852425E+02  0.29999977432E+02 0.  0.
         12    1    1    2    0    0 -0.22801642562E+02  0.84560285649E+01  0.32584458855E+02  0.40659147575E+02  0.00000000000E+00 0. -1.
         11    1    3    3    0    0  0.18718386860E+01 -0.11813165955E+02 -0.26034418445E+01  0.12240611899E+02  0.51100000000E-03 0.  1.
        -11    1    3    3    0    0  0.26181840241E+01  0.34614687117E+01 -0.11409347257E+02  0.12206959422E+02  0.51100000000E-03 0. -1.
         12    1    3    3    0    0  0.18311619852E+02 -0.10433132107E+00 -0.18571669754E+02  0.26081281105E+02  0.00000000000E+00 0. -1.
</event>
<event>
 7    1  0.5748623E-013  0.5052888E+02  0.7816164E-02  0.1300439E+00
        -11   -1    0    0    0    0  0.00000000000E+00  0.00000000000E+00  0.45593999997E+02  0.45594000000E+02  0.51100000000E-03 0.  1.
         11   -1    0    0    0    0 -0.00000000000E+00 -0.00000000000E+00 -0.45593999997E+02  0.45594000000E+02  0.51100000000E-03 0. -1.
    9900012    2    1    2    0    0  0.23904952104E+02 -0.25211572542E+02  0.21120937865E+02  0.50528878742E+02  0.30000057425E+02 0.  0.
         12    1    1    2    0    0 -0.23904952104E+02  0.25211572542E+02 -0.21120937865E+02  0.40659121258E+02  0.00000000000E+00 0. -1.
         11    1    3    3    0    0  0.18279958157E+02 -0.85362391492E+01  0.10868440626E+02  0.22916091529E+02  0.51100000000E-03 0. -1.
        -11    1    3    3    0    0 -0.28749096751E+01 -0.14277777181E+02  0.66781140794E+00  0.14579643316E+02  0.51100000000E-03 0.  1.
        -12    1    3    3    0    0  0.84999036216E+01 -0.23975562115E+01  0.95846858315E+01  0.13033143897E+02  0.00000000000E+00 0.  1.
</event>
<event>
 7    1  0.5748623E-013  0.5052886E+02  0.7816164E-02  0.1300439E+00
        -11   -1    0    0    0    0  0.00000000000E+00  0.00000000000E+00  0.45593999997E+02  0.45594000000E+02  0.51100000000E-03 0. -1.
         11   -1    0    0    0    0 -0.00000000000E+00 -0.00000000000E+00 -0.45593999997E+02  0.45594000000E+02  0.51100000000E-03 0.  1.
    9900012    2    1    2    0    0 -0.38367547501E+02  0.13454647415E+02  0.26328013575E+00  0.50528861362E+02  0.30000004597E+02 0.  0.
         12    1    1    2    0    0  0.38367547501E+02 -0.13454647415E+02 -0.26328013575E+00  0.40659138638E+02  0.00000000000E+00 0. -1.
         11    1    3    3    0    0 -0.25993849360E+01  0.20103080929E+01  0.49782765357E+01  0.59650128416E+01  0.51100000000E-03 0. -1.
        -11    1    3    3    0    0 -0.25184310691E+02  0.71070448310E+01 -0.14139099394E+02  0.29743465217E+02  0.51100000000E-03 0.  1.
        -12    1    3    3    0    0 -0.10583851875E+02  0.43372944913E+01  0.94241029945E+01  0.14820383303E+02  0.00000000000E+00 0.  1.
</event>
<event>
 7    1  0.5748623E-013  0.5052886E+02  0.7816164E-02  0.1300439E+00
        -11   -1    0    0    0    0  0.00000000000E+00  0.00000000000E+00  0.45593999997E+02  0.45594000000E+02  0.51100000000E-03 0. -1.
         11   -1    0    0    0    0 -0.00000000000E+00 -0.00000000000E+00 -0.45593999997E+02  0.45594000000E+02  0.51100000000E-03 0.  1.
    9900012    2    1    2    0    0  0.29588098501E+02  0.47513087864E+01 -0.27479726679E+02  0.50528857283E+02  0.29999992198E+02 0.  0.
         12    1    1    2    0    0 -0.29588098501E+02 -0.47513087864E+01  0.27479726679E+02  0.40659142717E+02  0.00000000000E+00 0. -1.
         11    1    3    3    0    0  0.96467100420E+00 -0.24037624983E+01 -0.55156380054E+01  0.60935151729E+01  0.51100000000E-03 0. -1.
        -11    1    3    3    0    0  0.22421051600E+02  0.12580810619E+02 -0.58954115693E+01  0.26376812326E+02  0.51100000000E-03 0.  1.
        -12    1    3    3    0    0  0.62023758976E+01 -0.54257393341E+01 -0.16068677104E+02  0.18058529784E+02  0.00000000000E+00 0.  1.
</event>
<event>
 7    1  0.5748623E-013  0.5052886E+02  0.7816164E-02  0.1300439E+00
        -11   -1    0    0    0    0  0.00000000000E+00  0.00000000000E+00  0.45593999997E+02  0.45594000000E+02  0.51100000000E-03 0.  1.
         11   -1    0    0    0    0 -0.00000000000E+00 -0.00000000000E+00 -0.45593999997E+02  0.45594000000E+02  0.51100000000E-03 0. -1.
    9900012    2    1    2    0    0 -0.52917656437E+00  0.38804417761E+02 -0.12128584492E+02  0.50528862928E+02  0.30000009357E+02 0.  0.
         12    1    1    2    0    0  0.52917656437E+00 -0.38804417761E+02  0.12128584492E+02  0.40659137072E+02  0.00000000000E+00 0. -1.
         11    1    3    3    0    0 -0.13068671534E+02  0.14832170029E+02 -0.54076788069E+01  0.20494546440E+02  0.51100000000E-03 0. -1.
        -11    1    3    3    0    0  0.69459527239E+01  0.92583295611E+01 -0.82579752507E+01  0.14218195420E+02  0.51100000000E-03 0.  1.
         12    1    3    3    0    0  0.55935422455E+01  0.14713918171E+02  0.15370695655E+01  0.15816121068E+02  0.00000000000E+00 0. -1.
</event>
<event>
 7    1  0.5748623E-013  0.5052886E+02  0.7816164E-02  0.1300439E+00
        -11   -1    0    0    0    0  0.00000000000E+00  0.00000000000E+00  0.45593999997E+02  0.45594000000E+02  0.51100000000E-03 0.  1.
         11   -1    0    0    0    0 -0.00000000000E+00 -0.00000000000E+00 -0.45593999997E+02  0.45594000000E+02  0.51100000000E-03 0. -1.
    9900012    2    1    2    0    0  0.39188435471E+02 -0.65995948181E+01  0.85952080385E+01  0.50528859236E+02  0.29999998134E+02 0.  0.
         12    1    1    2    0    0 -0.39188435471E+02  0.65995948181E+01 -0.85952080385E+01  0.40659140764E+02  0.00000000000E+00 0. -1.
         11    1    3    3    0    0  0.16236912952E+02 -0.41282343431E+01 -0.69887280876E+00  0.16768067404E+02  0.51100000000E-03 0. -1.
        -11    1    3    3    0    0  0.13862220099E+01  0.77502286898E+01 -0.66455153631E+00  0.79012204886E+01  0.51100000000E-03 0.  1.
        -12    1    3    3    0    0  0.21565300509E+02 -0.10221589165E+02  0.99586323836E+01  0.25859571343E+02  0.00000000000E+00 0.  1.
</event>
<event>
 7    1  0.5748623E-013  0.5052886E+02  0.7816164E-02  0.1300439E+00
        -11   -1    0    0    0    0  0.00000000000E+00  0.00000000000E+00  0.45593999997E+02  0.45594000000E+02  0.51100000000E-03 0.  1.
         11   -1    0    0    0    0 -0.00000000000E+00 -0.00000000000E+00 -0.45593999997E+02  0.45594000000E+02  0.51100000000E-03 0. -1.
    9900012    2    1    2    0    0  0.26642632787E+02 -0.16411761703E+01  0.30669896365E+02  0.50528857313E+02  0.29999992287E+02 0.  0.
         12    1    1    2    0    0 -0.26642632787E+02  0.16411761703E+01 -0.30669896365E+02  0.40659142687E+02  0.00000000000E+00 0. -1.
         11    1    3    3    0    0  0.33981655150E+01  0.14356102620E+01 -0.16317762159E+01  0.40337575003E+01  0.51100000000E-03 0.  1.
        -11    1    3    3    0    0  0.61407279340E+01 -0.73751375602E+01  0.26087452923E+02  0.27796697535E+02  0.51100000000E-03 0. -1.
        -12    1    3    3    0    0  0.17103739338E+02  0.42983511280E+01  0.62142196580E+01  0.18698402277E+02  0.00000000000E+00 0.  1.
</event>
<event>
 7    1  0.5748623E-013  0.5052886E+02  0.7816164E-02  0.1300439E+00
        -11   -1    0    0    0    0  0.00000000000E+00  0.00000000000E+00  0.45593999997E+02  0.45594000000E+02  0.51100000000E-03 0. -1.
         11   -1    0    0    0    0 -0.00000000000E+00 -0.00000000000E+00 -0.45593999997E+02  0.45594000000E+02  0.51100000000E-03 0.  1.
    9900012    2    1    2    0    0 -0.37778368793E+02  0.11567352907E+02  0.95998279240E+01  0.50528862059E+02  0.30000006716E+02 0.  0.
         12    1    1    2    0    0  0.37778368793E+02 -0.11567352907E+02 -0.95998279240E+01  0.40659137941E+02  0.00000000000E+00 0. -1.
         11    1    3    3    0    0 -0.14327062847E+02 -0.77367906118E+01 -0.12473801642E+01  0.16330297497E+02  0.51100000000E-03 0. -1.
        -11    1    3    3    0    0 -0.20345523142E+02  0.13866483871E+02  0.40428770047E+01  0.24951243288E+02  0.51100000000E-03 0.  1.
         12    1    3    3    0    0 -0.31057828033E+01  0.54376596479E+01  0.68043310834E+01  0.92473212748E+01  0.00000000000E+00 0. -1.
</event>
<event>
 7    1  0.5748623E-013  0.5052886E+02  0.7816164E-02  0.1300439E+00
        -11   -1    0    0    0    0  0.00000000000E+00  0.00000000000E+00  0.45593999997E+02  0.45594000000E+02  0.51100000000E-03 0.  1.
         11   -1    0    0    0    0 -0.00000000000E+00 -0.00000000000E+00 -0.45593999997E+02  0.45594000000E+02  0.51100000000E-03 0. -1.
    9900012    2    1    2    0    0  0.37432626474E+02 -0.14484521686E+02 -0.64932672049E+01  0.50528863115E+02  0.30000009924E+02 0.  0.
         12    1    1    2    0    0 -0.37432626474E+02  0.14484521686E+02  0.64932672049E+01  0.40659136885E+02  0.00000000000E+00 0. -1.
         11    1    3    3    0    0  0.17736869973E+01 -0.33932622145E+01 -0.10204075518E+02  0.10898777522E+02  0.51100000000E-03 0. -1.
        -11    1    3    3    0    0  0.31031915848E+02 -0.13854759859E+02  0.23164794543E+01  0.34063180257E+02  0.51100000000E-03 0.  1.
        -12    1    3    3    0    0  0.46270236292E+01  0.27635003870E+01  0.13943288591E+01  0.55669053361E+01  0.00000000000E+00 0.  1.
</event>
<event>
 7    1  0.5748623E-013  0.5052895E+02  0.7816164E-02  0.1300438E+00
        -11   -1    0    0    0    0  0.00000000000E+00  0.00000000000E+00  0.45593999997E+02  0.45594000000E+02  0.51100000000E-03 0.  1.
         11   -1    0    0    0    0 -0.00000000000E+00 -0.00000000000E+00 -0.45593999997E+02  0.45594000000E+02  0.51100000000E-03 0. -1.
    9900012    2    1    2    0    0  0.10508433793E+02 -0.35582971133E+02  0.16630798666E+02  0.50528948367E+02  0.30000269056E+02 0.  0.
         12    1    1    2    0    0 -0.10508433793E+02  0.35582971133E+02 -0.16630798666E+02  0.40659051633E+02  0.00000000000E+00 0. -1.
         11    1    3    3    0    0 -0.31312467597E+01 -0.23818688791E+01  0.29711070811E+01  0.49300591453E+01  0.51100000000E-03 0. -1.
        -11    1    3    3    0    0  0.20814649726E+02 -0.26391879471E+02  0.10428545763E+02  0.35192833251E+02  0.51100000000E-03 0.  1.
        -12    1    3    3    0    0 -0.71749691738E+01 -0.68092227828E+01  0.32311458221E+01  0.10406055971E+02  0.00000000000E+00 0.  1.
</event>
<event>
 7    1  0.5748623E-013  0.5052886E+02  0.7816164E-02  0.1300439E+00
        -11   -1    0    0    0    0  0.00000000000E+00  0.00000000000E+00  0.45593999997E+02  0.45594000000E+02  0.51100000000E-03 0. -1.
         11   -1    0    0    0    0 -0.00000000000E+00 -0.00000000000E+00 -0.45593999997E+02  0.45594000000E+02  0.51100000000E-03 0.  1.
    9900012    2    1    2    0    0  0.12774179200E+02 -0.15403596976E+01 -0.38569589448E+02  0.50528860899E+02  0.30000003190E+02 0.  0.
         12    1    1    2    0    0 -0.12774179200E+02  0.15403596976E+01  0.38569589448E+02  0.40659139101E+02  0.00000000000E+00 0. -1.
         11    1    3    3    0    0  0.86668586224E+01 -0.10493931096E+02 -0.13387146036E+02  0.19090644501E+02  0.51100000000E-03 0. -1.
        -11    1    3    3    0    0 -0.45353887242E+01  0.62879315661E+01 -0.18893058308E+02  0.20421936410E+02  0.51100000000E-03 0.  1.
         12    1    3    3    0    0  0.86427093017E+01  0.26656398320E+01 -0.62893851036E+01  0.11016279988E+02  0.00000000000E+00 0. -1.
</event>
<event>
 7    1  0.5748623E-013  0.5052884E+02  0.7816164E-02  0.1300439E+00
        -11   -1    0    0    0    0  0.00000000000E+00  0.00000000000E+00  0.45593999997E+02  0.45594000000E+02  0.51100000000E-03 0.  1.
         11   -1    0    0    0    0 -0.00000000000E+00 -0.00000000000E+00 -0.45593999997E+02  0.45594000000E+02  0.51100000000E-03 0. -1.
    9900012    2    1    2    0    0  0.18009851775E+02  0.15849585259E+02  0.32826871180E+02  0.50528836392E+02  0.29999928697E+02 0.  0.
         12    1    1    2    0    0 -0.18009851775E+02 -0.15849585259E+02 -0.32826871180E+02  0.40659163608E+02  0.00000000000E+00 0. -1.
         11    1    3    3    0    0  0.54164114827E+00  0.44019374437E+00 -0.29293619518E+01  0.30113630422E+01  0.51100000000E-03 0. -1.
        -11    1    3    3    0    0  0.10494298593E+02  0.19370110648E+02  0.31496003320E+02  0.38436047077E+02  0.51100000000E-03 0.  1.
        -12    1    3    3    0    0  0.69739120338E+01 -0.39607191332E+01  0.42602298110E+01  0.90814262729E+01  0.00000000000E+00 0.  1.
</event>
<event>
 7    1  0.5748623E-013  0.5052885E+02  0.7816164E-02  0.1300439E+00
        -11   -1    0    0    0    0  0.00000000000E+00  0.00000000000E+00  0.45593999997E+02  0.45594000000E+02  0.51100000000E-03 0.  1.
         11   -1    0    0    0    0 -0.00000000000E+00 -0.00000000000E+00 -0.45593999997E+02  0.45594000000E+02  0.51100000000E-03 0. -1.
    9900012    2    1    2    0    0 -0.11086153030E+02 -0.15718406750E+02  0.35821715023E+02  0.50528851375E+02  0.29999974238E+02 0.  0.
         12    1    1    2    0    0  0.11086153030E+02  0.15718406750E+02 -0.35821715023E+02  0.40659148625E+02  0.00000000000E+00 0. -1.
         11    1    3    3    0    0  0.22464103698E+01 -0.13681009946E+02  0.14454510378E+02  0.20028710972E+02  0.51100000000E-03 0. -1.
        -11    1    3    3    0    0 -0.10129498653E+02  0.16886127467E+01  0.19268946715E+01  0.10448496509E+02  0.51100000000E-03 0.  1.
         12    1    3    3    0    0 -0.32030647466E+01 -0.37260095508E+01  0.19440309973E+02  0.20051643893E+02  0.00000000000E+00 0. -1.
</event>
<event>
 7    1  0.5748623E-013  0.5052886E+02  0.7816164E-02  0.1300439E+00
        -11   -1    0    0    0    0  0.00000000000E+00  0.00000000000E+00  0.45593999997E+02  0.45594000000E+02  0.51100000000E-03 0. -1.
         11   -1    0    0    0    0 -0.00000000000E+00 -0.00000000000E+00 -0.45593999997E+02  0.45594000000E+02  0.51100000000E-03 0.  1.
    9900012    2    1    2    0    0  0.20559026622E+02 -0.19688001490E+02 -0.29032309249E+02  0.50528856395E+02  0.29999989499E+02 0.  0.
         12    1    1    2    0    0 -0.20559026622E+02  0.19688001490E+02  0.29032309249E+02  0.40659143605E+02  0.00000000000E+00 0. -1.
         11    1    3    3    0    0  0.49586020904E+00 -0.23927127317E+00  0.56102912547E+01  0.56372419066E+01  0.51100000000E-03 0. -1.
        -11    1    3    3    0    0  0.53683367780E+01 -0.41987072966E+01 -0.12593286877E+02  0.14319184940E+02  0.51100000000E-03 0.  1.
         12    1    3    3    0    0  0.14694829635E+02 -0.15250022921E+02 -0.22049313627E+02  0.30572429548E+02  0.00000000000E+00 0. -1.
</event>
<event>
 7    1  0.5748623E-013  0.5052886E+02  0.7816164E-02  0.1300439E+00
        -11   -1    0    0    0    0  0.00000000000E+00  0.00000000000E+00  0.45593999997E+02  0.45594000000E+02  0.51100000000E-03 0.  1.
         11   -1    0    0    0    0 -0.00000000000E+00 -0.00000000000E+00 -0.45593999997E+02  0.45594000000E+02  0.51100000000E-03 0. -1.
    9900012    2    1    2    0    0  0.10388797391E+02  0.36952625431E+02  0.13406783855E+02  0.50528862149E+02  0.30000006987E+02 0.  0.
         12    1    1    2    0    0 -0.10388797391E+02 -0.36952625431E+02 -0.13406783855E+02  0.40659137851E+02  0.00000000000E+00 0. -1.
         11    1    3    3    0    0  0.12557660431E+02  0.29286051694E+01 -0.12160262819E+01  0.12951844807E+02  0.51100000000E-03 0. -1.
        -11    1    3    3    0    0 -0.33286571103E+01  0.17966625101E+02  0.99874801658E+01  0.20823768535E+02  0.51100000000E-03 0.  1.
         12    1    3    3    0    0  0.11597940703E+01  0.16057395160E+02  0.46353299712E+01  0.16753248806E+02  0.00000000000E+00 0. -1.
</event>
<event>
 7    1  0.5748623E-013  0.5052880E+02  0.7816164E-02  0.1300439E+00
        -11   -1    0    0    0    0  0.00000000000E+00  0.00000000000E+00  0.45593999997E+02  0.45594000000E+02  0.51100000000E-03 0. -1.
         11   -1    0    0    0    0 -0.00000000000E+00 -0.00000000000E+00 -0.45593999997E+02  0.45594000000E+02  0.51100000000E-03 0.  1.
    9900012    2    1    2    0    0  0.24449190714E+02  0.12330937789E+02 -0.30055874120E+02  0.50528800274E+02  0.29999818911E+02 0.  0.
         12    1    1    2    0    0 -0.24449190714E+02 -0.12330937789E+02  0.30055874120E+02  0.40659199726E+02  0.00000000000E+00 0. -1.
         11    1    3    3    0    0 -0.45031585123E+01  0.30889518032E+01 -0.10928182426E+02  0.12216596549E+02  0.51100000000E-03 0. -1.
        -11    1    3    3    0    0  0.28396055866E+02  0.49250005309E+01 -0.16125611512E+02  0.33024641797E+02  0.51100000000E-03 0.  1.
         12    1    3    3    0    0  0.55629335993E+00  0.43169854547E+01 -0.30020801820E+01  0.52875619275E+01  0.00000000000E+00 0. -1.
</event>
<event>
 7    1  0.5748623E-013  0.5052886E+02  0.7816164E-02  0.1300439E+00
        -11   -1    0    0    0    0  0.00000000000E+00  0.00000000000E+00  0.45593999997E+02  0.45594000000E+02  0.51100000000E-03 0.  1.
         11   -1    0    0    0    0 -0.00000000000E+00 -0.00000000000E+00 -0.45593999997E+02  0.45594000000E+02  0.51100000000E-03 0. -1.
    9900012    2    1    2    0    0  0.16188253150E+02 -0.14321827338E+01  0.37270028561E+02  0.50528859375E+02  0.29999998557E+02 0.  0.
         12    1    1    2    0    0 -0.16188253150E+02  0.14321827338E+01 -0.37270028561E+02  0.40659140625E+02  0.00000000000E+00 0. -1.
         11    1    3    3    0    0  0.51370352799E+01 -0.12532766630E+01  0.14458185817E+01  0.54818085969E+01  0.51100000000E-03 0. -1.
        -11    1    3    3    0    0  0.14782428348E+02 -0.14205262656E+01  0.37824375273E+02  0.40635224225E+02  0.51100000000E-03 0.  1.
        -12    1    3    3    0    0 -0.37312104775E+01  0.12416201948E+01 -0.20001652943E+01  0.44118265537E+01  0.00000000000E+00 0.  1.
</event>
<event>
 7    1  0.5748623E-013  0.5052886E+02  0.7816164E-02  0.1300439E+00
        -11   -1    0    0    0    0  0.00000000000E+00  0.00000000000E+00  0.45593999997E+02  0.45594000000E+02  0.51100000000E-03 0.  1.
         11   -1    0    0    0    0 -0.00000000000E+00 -0.00000000000E+00 -0.45593999997E+02  0.45594000000E+02  0.51100000000E-03 0. -1.
    9900012    2    1    2    0    0  0.30939958747E+00 -0.34714359237E+02  0.21165609245E+02  0.50528862281E+02  0.30000007389E+02 0.  0.
         12    1    1    2    0    0 -0.30939958747E+00  0.34714359237E+02 -0.21165609245E+02  0.40659137719E+02  0.00000000000E+00 0. -1.
         11    1    3    3    0    0 -0.16204068630E+01 -0.20926974020E+02 -0.72833812121E+00  0.21002248372E+02  0.51100000000E-03 0. -1.
        -11    1    3    3    0    0  0.15773577594E+01 -0.16622395708E+02  0.20191695970E+02  0.26201081714E+02  0.51100000000E-03 0.  1.
        -12    1    3    3    0    0  0.35244869105E+00  0.28350104905E+01  0.17022513959E+01  0.33255321944E+01  0.00000000000E+00 0.  1.
</event>
<event>
 7    1  0.5748623E-013  0.5052886E+02  0.7816164E-02  0.1300439E+00
        -11   -1    0    0    0    0  0.00000000000E+00  0.00000000000E+00  0.45593999997E+02  0.45594000000E+02  0.51100000000E-03 0.  1.
         11   -1    0    0    0    0 -0.00000000000E+00 -0.00000000000E+00 -0.45593999997E+02  0.45594000000E+02  0.51100000000E-03 0. -1.
    9900012    2    1    2    0    0 -0.32663873042E+01  0.38075857546E+02  0.13882555775E+02  0.50528861191E+02  0.30000004075E+02 0.  0.
         12    1    1    2    0    0  0.32663873042E+01 -0.38075857546E+02 -0.13882555775E+02  0.40659138809E+02  0.00000000000E+00 0. -1.
         11    1    3    3    0    0 -0.10724965618E+02  0.17250399875E+02  0.16869481686E+02  0.26404177624E+02  0.51100000000E-03 0. -1.
        -11    1    3    3    0    0  0.60254239195E+01  0.14594169412E+02  0.21342072707E+01  0.15932681983E+02  0.51100000000E-03 0.  1.
         12    1    3    3    0    0  0.14331543947E+01  0.62312882585E+01 -0.51211331820E+01  0.81920015837E+01  0.00000000000E+00 0. -1.
</event>
<event>
 7    1  0.5748623E-013  0.5052886E+02  0.7816164E-02  0.1300439E+00
        -11   -1    0    0    0    0  0.00000000000E+00  0.00000000000E+00  0.45593999997E+02  0.45594000000E+02  0.51100000000E-03 0.  1.
         11   -1    0    0    0    0 -0.00000000000E+00 -0.00000000000E+00 -0.45593999997E+02  0.45594000000E+02  0.51100000000E-03 0. -1.
    9900012    2    1    2    0    0 -0.18676922845E+02 -0.35704978802E+02 -0.54307266840E+01  0.50528858955E+02  0.29999997280E+02 0.  0.
         12    1    1    2    0    0  0.18676922845E+02  0.35704978802E+02  0.54307266840E+01  0.40659141045E+02  0.00000000000E+00 0. -1.
         11    1    3    3    0    0 -0.28851767218E+00 -0.17907305881E+02  0.56491235405E+01  0.18779442042E+02  0.51100000000E-03 0. -1.
        -11    1    3    3    0    0 -0.19585646529E+02 -0.11507495024E+02 -0.57861414554E+01  0.23441404072E+02  0.51100000000E-03 0.  1.
         12    1    3    3    0    0  0.11972413559E+01 -0.62901778964E+01 -0.52937087692E+01  0.83080128409E+01  0.00000000000E+00 0. -1.
</event>
<event>
 7    1  0.5748623E-013  0.5052887E+02  0.7816164E-02  0.1300439E+00
        -11   -1    0    0    0    0  0.00000000000E+00  0.00000000000E+00  0.45593999997E+02  0.45594000000E+02  0.51100000000E-03 0.  1.
         11   -1    0    0    0    0 -0.00000000000E+00 -0.00000000000E+00 -0.45593999997E+02  0.45594000000E+02  0.51100000000E-03 0. -1.
    9900012    2    1    2    0    0 -0.72046550271E+01  0.39688560795E+02 -0.51064797808E+01  0.50528867597E+02  0.30000023547E+02 0.  0.
         12    1    1    2    0    0  0.72046550271E+01 -0.39688560795E+02  0.51064797808E+01  0.40659132403E+02  0.00000000000E+00 0. -1.
         11    1    3    3    0    0 -0.15035399870E+02  0.14148299859E+02  0.48446212638E+01  0.21206319661E+02  0.51100000000E-03 0. -1.
        -11    1    3    3    0    0  0.41417041876E+01  0.11711078608E+02 -0.10465047315E+01  0.12465883368E+02  0.51100000000E-03 0.  1.
         12    1    3    3    0    0  0.36890406551E+01  0.13829182328E+02 -0.89045963131E+01  0.16856664567E+02  0.00000000000E+00 0. -1.
</event>
<event>
 7    1  0.5748623E-013  0.5052886E+02  0.7816164E-02  0.1300439E+00
        -11   -1    0    0    0    0  0.00000000000E+00  0.00000000000E+00  0.45593999997E+02  0.45594000000E+02  0.51100000000E-03 0. -1.
         11   -1    0    0    0    0 -0.00000000000E+00 -0.00000000000E+00 -0.45593999997E+02  0.45594000000E+02  0.51100000000E-03 0.  1.
    9900012    2    1    2    0    0  0.36840252914E+02  0.17186143402E+02  0.77339914786E+00  0.50528857042E+02  0.29999991465E+02 0.  0.
         12    1    1    2    0    0 -0.36840252914E+02 -0.17186143402E+02 -0.77339914786E+00  0.40659142958E+02  0.00000000000E+00 0. -1.
         11    1    3    3    0    0  0.16747620454E+02  0.23279026461E+01  0.84115371961E+01  0.18885335048E+02  0.51100000000E-03 0. -1.
        -11    1    3    3    0    0  0.19078462956E+02  0.18194696949E+02 -0.41083929658E+01  0.26681709819E+02  0.51100000000E-03 0.  1.
        -12    1    3    3    0    0  0.10141695043E+01 -0.33364561937E+01 -0.35297450825E+01  0.49618121754E+01  0.00000000000E+00 0.  1.
</event>
<event>
 7    1  0.5748623E-013  0.5052885E+02  0.7816164E-02  0.1300439E+00
        -11   -1    0    0    0    0  0.00000000000E+00  0.00000000000E+00  0.45593999997E+02  0.45594000000E+02  0.51100000000E-03 0.  1.
         11   -1    0    0    0    0 -0.00000000000E+00 -0.00000000000E+00 -0.45593999997E+02  0.45594000000E+02  0.51100000000E-03 0. -1.
    9900012    2    1    2    0    0  0.11963681864E+02 -0.37941143860E+02  0.83968143039E+01  0.50528848858E+02  0.29999966590E+02 0.  0.
         12    1    1    2    0    0 -0.11963681864E+02  0.37941143860E+02 -0.83968143039E+01  0.40659151142E+02  0.00000000000E+00 0. -1.
         11    1    3    3    0    0 -0.20491259242E+01 -0.28928531508E+00 -0.45742434019E+01  0.50205882133E+01  0.51100000000E-03 0. -1.
        -11    1    3    3    0    0  0.12328136916E+02 -0.30475647779E+02  0.28647432164E+01  0.32999315467E+02  0.51100000000E-03 0.  1.
         12    1    3    3    0    0  0.16846708723E+01 -0.71762107654E+01  0.10106314489E+02  0.12508945178E+02  0.00000000000E+00 0. -1.
</event>
<event>
 7    1  0.5748623E-013  0.5052886E+02  0.7816164E-02  0.1300439E+00
        -11   -1    0    0    0    0  0.00000000000E+00  0.00000000000E+00  0.45593999997E+02  0.45594000000E+02  0.51100000000E-03 0.  1.
         11   -1    0    0    0    0 -0.00000000000E+00 -0.00000000000E+00 -0.45593999997E+02  0.45594000000E+02  0.51100000000E-03 0. -1.
    9900012    2    1    2    0    0 -0.25914705636E+02 -0.30499779004E+02  0.71663893809E+01  0.50528860508E+02  0.30000002001E+02 0.  0.
         12    1    1    2    0    0  0.25914705636E+02  0.30499779004E+02 -0.71663893809E+01  0.40659139492E+02  0.00000000000E+00 0. -1.
         11    1    3    3    0    0 -0.40241647378E+01 -0.10120629036E+02  0.15581253472E+02  0.19010431188E+02  0.51100000000E-03 0. -1.
        -11    1    3    3    0    0 -0.12880890470E+02 -0.15404464490E+02 -0.53781490918E+01  0.20787961744E+02  0.51100000000E-03 0.  1.
         12    1    3    3    0    0 -0.90096504276E+01 -0.49746854774E+01 -0.30367149997E+01  0.10730467577E+02  0.00000000000E+00 0. -1.
</event>
<event>
 7    1  0.5748623E-013  0.5052886E+02  0.7816164E-02  0.1300439E+00
        -11   -1    0    0    0    0  0.00000000000E+00  0.00000000000E+00  0.45593999997E+02  0.45594000000E+02  0.51100000000E-03 0. -1.
         11   -1    0    0    0    0 -0.00000000000E+00 -0.00000000000E+00 -0.45593999997E+02  0.45594000000E+02  0.51100000000E-03 0.  1.
    9900012    2    1    2    0    0 -0.20186027826E+02 -0.68057245113E+00 -0.35287771754E+02  0.50528859163E+02  0.29999997912E+02 0.  0.
         12    1    1    2    0    0  0.20186027826E+02  0.68057245113E+00  0.35287771754E+02  0.40659140837E+02  0.00000000000E+00 0. -1.
         11    1    3    3    0    0 -0.72699736687E+01  0.53502110315E+01 -0.62501604234E+01  0.10979152099E+02  0.51100000000E-03 0. -1.
        -11    1    3    3    0    0  0.65278914104E+01 -0.12258874017E+00 -0.71724689261E+01  0.96991084653E+01  0.51100000000E-03 0.  1.
        -12    1    3    3    0    0 -0.19443945568E+02 -0.59081947424E+01 -0.21865142404E+02  0.29850598599E+02  0.00000000000E+00 0.  1.
</event>
<event>
 7    1  0.5748623E-013  0.5052886E+02  0.7816164E-02  0.1300439E+00
        -11   -1    0    0    0    0  0.00000000000E+00  0.00000000000E+00  0.45593999997E+02  0.45594000000E+02  0.51100000000E-03 0.  1.
         11   -1    0    0    0    0 -0.00000000000E+00 -0.00000000000E+00 -0.45593999997E+02  0.45594000000E+02  0.51100000000E-03 0. -1.
    9900012    2    1    2    0    0  0.29215081969E+02 -0.25720698752E+02  0.11751188911E+02  0.50528858352E+02  0.29999995446E+02 0.  0.
         12    1    1    2    0    0 -0.29215081969E+02  0.25720698752E+02 -0.11751188911E+02  0.40659141648E+02  0.00000000000E+00 0. -1.
         11    1    3    3    0    0  0.11663977704E+01 -0.89847865515E+01  0.34935440723E+01  0.97103925555E+01  0.51100000000E-03 0. -1.
        -11    1    3    3    0    0  0.87125463121E+01  0.27077213129E+01 -0.49522025248E+01  0.10380969514E+02  0.51100000000E-03 0.  1.
        -12    1    3    3    0    0  0.19336137887E+02 -0.19443633513E+02  0.13209847363E+02  0.30437496282E+02  0.00000000000E+00 0.  1.
</event>
<event>
 7    1  0.5748623E-013  0.5052886E+02  0.7816164E-02  0.1300439E+00
        -11   -1    0    0    0    0  0.00000000000E+00  0.00000000000E+00  0.45593999997E+02  0.45594000000E+02  0.51100000000E-03 0. -1.
         11   -1    0    0    0    0 -0.00000000000E+00 -0.00000000000E+00 -0.45593999997E+02  0.45594000000E+02  0.51100000000E-03 0.  1.
    9900012    2    1    2    0    0 -0.19955319593E+01 -0.37257481814E+02 -0.16157470349E+02  0.50528856539E+02  0.29999989934E+02 0.  0.
         12    1    1    2    0    0  0.19955319593E+01  0.37257481814E+02  0.16157470349E+02  0.40659143461E+02  0.00000000000E+00 0. -1.
         11    1    3    3    0    0  0.78690674932E+00  0.37905680608E+01  0.24287496375E+01  0.45701699660E+01  0.51100000000E-03 0. -1.
        -11    1    3    3    0    0 -0.75570736922E+00 -0.11270563433E+02 -0.10565665425E+01  0.11345176369E+02  0.51100000000E-03 0.  1.
         12    1    3    3    0    0 -0.20267313394E+01 -0.29777486442E+02 -0.17529653444E+02  0.34613510203E+02  0.00000000000E+00 0. -1.
</event>
<event>
 7    1  0.5748623E-013  0.5052886E+02  0.7816164E-02  0.1300439E+00
        -11   -1    0    0    0    0  0.00000000000E+00  0.00000000000E+00  0.45593999997E+02  0.45594000000E+02  0.51100000000E-03 0.  1.
         11   -1    0    0    0    0 -0.00000000000E+00 -0.00000000000E+00 -0.45593999997E+02  0.45594000000E+02  0.51100000000E-03 0. -1.
    9900012    2    1    2    0    0  0.27632038237E+02  0.18671149933E+02  0.23259933409E+02  0.50528857373E+02  0.29999992472E+02 0.  0.
         12    1    1    2    0    0 -0.27632038237E+02 -0.18671149933E+02 -0.23259933409E+02  0.40659142627E+02  0.00000000000E+00 0. -1.
         11    1    3    3    0    0  0.42748871638E+01 -0.37169717120E+01 -0.11220961567E+01  0.57749146329E+01  0.51100000000E-03 0. -1.
        -11    1    3    3    0    0  0.14196853762E+02  0.20959804348E+02  0.24846551588E+02  0.35471329001E+02  0.51100000000E-03 0.  1.
        -12    1    3    3    0    0  0.91602973108E+01  0.14283172977E+01 -0.46452202195E+00  0.92826137393E+01  0.00000000000E+00 0.  1.
</event>
<event>
 7    1  0.5748623E-013  0.5052886E+02  0.7816164E-02  0.1300439E+00
        -11   -1    0    0    0    0  0.00000000000E+00  0.00000000000E+00  0.45593999997E+02  0.45594000000E+02  0.51100000000E-03 0.  1.
         11   -1    0    0    0    0 -0.00000000000E+00 -0.00000000000E+00 -0.45593999997E+02  0.45594000000E+02  0.51100000000E-03 0. -1.
    9900012    2    1    2    0    0  0.13423015781E+02  0.10758541072E+02  0.36840765309E+02  0.50528861455E+02  0.30000004879E+02 0.  0.
         12    1    1    2    0    0 -0.13423015781E+02 -0.10758541072E+02 -0.36840765309E+02  0.40659138545E+02  0.00000000000E+00 0. -1.
         11    1    3    3    0    0 -0.71226327175E+00  0.10362459495E+02  0.11344753841E+02  0.15381525468E+02  0.51100000000E-03 0. -1.
        -11    1    3    3    0    0  0.48814238093E+01 -0.67503644442E+01  0.15138756493E+01  0.84668493714E+01  0.51100000000E-03 0.  1.
        -12    1    3    3    0    0  0.92538552436E+01  0.71464460218E+01  0.23982135819E+02  0.26680486616E+02  0.00000000000E+00 0.  1.
</event>
<event>
 7    1  0.5748623E-013  0.5052884E+02  0.7816164E-02  0.1300439E+00
        -11   -1    0    0    0    0  0.00000000000E+00  0.00000000000E+00  0.45593999997E+02  0.45594000000E+02  0.51100000000E-03 0. -1.
         11   -1    0    0    0    0 -0.00000000000E+00 -0.00000000000E+00 -0.45593999997E+02  0.45594000000E+02  0.51100000000E-03 0.  1.
    9900012    2    1    2    0    0 -0.17360358184E+02 -0.34270819198E+02 -0.13315273532E+02  0.50528836285E+02  0.29999928373E+02 0.  0.
         12    1    1    2    0    0  0.17360358184E+02  0.34270819198E+02  0.13315273532E+02  0.40659163715E+02  0.00000000000E+00 0. -1.
         11    1    3    3    0    0 -0.23030929770E+00  0.52775130712E+00  0.17122677165E+00  0.60073511902E+00  0.51100000000E-03 0. -1.
        -11    1    3    3    0    0 -0.15958653516E+02 -0.21489774492E+02 -0.21514111970E+02  0.34341608056E+02  0.51100000000E-03 0.  1.
        -12    1    3    3    0    0 -0.11713953702E+01 -0.13308796013E+02  0.80276116659E+01  0.15586493110E+02  0.00000000000E+00 0.  1.
</event>
<event>
 7    1  0.5748623E-013  0.5052886E+02  0.7816164E-02  0.1300439E+00
        -11   -1    0    0    0    0  0.00000000000E+00  0.00000000000E+00  0.45593999997E+02  0.45594000000E+02  0.51100000000E-03 0.  1.
         11   -1    0    0    0    0 -0.00000000000E+00 -0.00000000000E+00 -0.45593999997E+02  0.45594000000E+02  0.51100000000E-03 0. -1.
    9900012    2    1    2    0    0 -0.95656529818E+01  0.28817263921E+02  0.27041254118E+02  0.50528857840E+02  0.29999993892E+02 0.  0.
         12    1    1    2    0    0  0.95656529818E+01 -0.28817263921E+02 -0.27041254118E+02  0.40659142160E+02  0.00000000000E+00 0. -1.
         11    1    3    3    0    0  0.54023568476E+01  0.11070883281E+02  0.77186640125E+01  0.14537114243E+02  0.51100000000E-03 0. -1.
        -11    1    3    3    0    0 -0.73808651118E+01  0.50205557154E+00  0.14906739209E+02  0.16641517470E+02  0.51100000000E-03 0.  1.
        -12    1    3    3    0    0 -0.75871447176E+01  0.17244325069E+02  0.44158508974E+01  0.19350226128E+02  0.00000000000E+00 0.  1.
</event>
<event>
 7    1  0.5748623E-013  0.5052886E+02  0.7816164E-02  0.1300439E+00
        -11   -1    0    0    0    0  0.00000000000E+00  0.00000000000E+00  0.45593999997E+02  0.45594000000E+02  0.51100000000E-03 0.  1.
         11   -1    0    0    0    0 -0.00000000000E+00 -0.00000000000E+00 -0.45593999997E+02  0.45594000000E+02  0.51100000000E-03 0. -1.
    9900012    2    1    2    0    0 -0.25695571888E+02  0.28359925773E+02 -0.13733834168E+02  0.50528855820E+02  0.29999987750E+02 0.  0.
         12    1    1    2    0    0  0.25695571888E+02 -0.28359925773E+02  0.13733834168E+02  0.40659144180E+02  0.00000000000E+00 0. -1.
         11    1    3    3    0    0 -0.12422259653E+02  0.23581235697E+01  0.40609535994E+01  0.13280234413E+02  0.51100000000E-03 0. -1.
        -11    1    3    3    0    0 -0.14060078295E+02  0.15986401903E+02 -0.67862931541E+01  0.22345125252E+02  0.51100000000E-03 0.  1.
         12    1    3    3    0    0  0.78676606021E+00  0.10015400300E+02 -0.11008494613E+02  0.14903496155E+02  0.00000000000E+00 0. -1.
</event>
<event>
 7    1  0.5748623E-013  0.5052886E+02  0.7816164E-02  0.1300439E+00
        -11   -1    0    0    0    0  0.00000000000E+00  0.00000000000E+00  0.45593999997E+02  0.45594000000E+02  0.51100000000E-03 0. -1.
         11   -1    0    0    0    0 -0.00000000000E+00 -0.00000000000E+00 -0.45593999997E+02  0.45594000000E+02  0.51100000000E-03 0.  1.
    9900012    2    1    2    0    0  0.25239172297E+02 -0.29059462748E+02  0.13103332676E+02  0.50528861782E+02  0.30000005873E+02 0.  0.
         12    1    1    2    0    0 -0.25239172297E+02  0.29059462748E+02 -0.13103332676E+02  0.40659138218E+02  0.00000000000E+00 0. -1.
         11    1    3    3    0    0  0.21498520218E+02 -0.76736583204E+01  0.99656344299E+01  0.24907534471E+02  0.51100000000E-03 0. -1.
        -11    1    3    3    0    0 -0.79116659750E+00 -0.12543990992E+02  0.76448473754E+01  0.14711265963E+02  0.51100000000E-03 0.  1.
         12    1    3    3    0    0  0.45318186764E+01 -0.88418134357E+01 -0.45071491292E+01  0.10910061348E+02  0.00000000000E+00 0. -1.
</event>
<event>
 7    1  0.5748623E-013  0.5052900E+02  0.7816164E-02  0.1300438E+00
        -11   -1    0    0    0    0  0.00000000000E+00  0.00000000000E+00  0.45593999997E+02  0.45594000000E+02  0.51100000000E-03 0.  1.
         11   -1    0    0    0    0 -0.00000000000E+00 -0.00000000000E+00 -0.45593999997E+02  0.45594000000E+02  0.51100000000E-03 0. -1.
    9900012    2    1    2    0    0 -0.27374680006E+02 -0.16600502580E+01  0.30017085406E+02  0.50528999907E+02  0.30000425715E+02 0.  0.
         12    1    1    2    0    0  0.27374680006E+02  0.16600502580E+01 -0.30017085406E+02  0.40659000093E+02  0.00000000000E+00 0. -1.
         11    1    3    3    0    0 -0.10213050724E+02 -0.50171712996E+01  0.69894417227E+01  0.13354052149E+02  0.51100000000E-03 0.  1.
        -11    1    3    3    0    0  0.29483864727E+01  0.92662297013E+00 -0.29234156183E+01  0.42541711366E+01  0.51100000000E-03 0. -1.
        -12    1    3    3    0    0 -0.20110015755E+02  0.24304980715E+01  0.25951059301E+02  0.32920776622E+02  0.00000000000E+00 0.  1.
</event>
<event>
 7    1  0.5748623E-013  0.5052885E+02  0.7816164E-02  0.1300439E+00
        -11   -1    0    0    0    0  0.00000000000E+00  0.00000000000E+00  0.45593999997E+02  0.45594000000E+02  0.51100000000E-03 0.  1.
         11   -1    0    0    0    0 -0.00000000000E+00 -0.00000000000E+00 -0.45593999997E+02  0.45594000000E+02  0.51100000000E-03 0. -1.
    9900012    2    1    2    0    0  0.26116201173E+02  0.29180914143E+02  0.10935469629E+02  0.50528853305E+02  0.29999980106E+02 0.  0.
         12    1    1    2    0    0 -0.26116201173E+02 -0.29180914143E+02 -0.10935469629E+02  0.40659146695E+02  0.00000000000E+00 0. -1.
         11    1    3    3    0    0 -0.20818408916E-01  0.17346800175E+02  0.39825930856E+01  0.17798116688E+02  0.51100000000E-03 0. -1.
        -11    1    3    3    0    0  0.17889730420E+02  0.37429820286E+01  0.99291416301E+01  0.20800005354E+02  0.51100000000E-03 0.  1.
        -12    1    3    3    0    0  0.82472891621E+01  0.80911319402E+01 -0.29762650870E+01  0.11930731263E+02  0.00000000000E+00 0.  1.
</event>
<event>
 7    1  0.5748623E-013  0.5052889E+02  0.7816164E-02  0.1300439E+00
        -11   -1    0    0    0    0  0.00000000000E+00  0.00000000000E+00  0.45593999997E+02  0.45594000000E+02  0.51100000000E-03 0.  1.
         11   -1    0    0    0    0 -0.00000000000E+00 -0.00000000000E+00 -0.45593999997E+02  0.45594000000E+02  0.51100000000E-03 0. -1.
    9900012    2    1    2    0    0 -0.79902085614E+01 -0.32454472014E+02  0.23152266482E+02  0.50528885034E+02  0.30000076548E+02 0.  0.
         12    1    1    2    0    0  0.79902085614E+01  0.32454472014E+02 -0.23152266482E+02  0.40659114966E+02  0.00000000000E+00 0. -1.
         11    1    3    3    0    0 -0.19098382897E+01 -0.44899333467E+01 -0.70156175514E+01  0.85455177514E+01  0.51100000000E-03 0. -1.
        -11    1    3    3    0    0 -0.16111257981E+01 -0.18603871846E+02  0.17303981255E+02  0.25458349152E+02  0.51100000000E-03 0.  1.
         12    1    3    3    0    0 -0.44692444736E+01 -0.93606668213E+01  0.12863902778E+02  0.16525018130E+02  0.00000000000E+00 0. -1.
</event>
<event>
 7    1  0.5748623E-013  0.5052886E+02  0.7816164E-02  0.1300439E+00
        -11   -1    0    0    0    0  0.00000000000E+00  0.00000000000E+00  0.45593999997E+02  0.45594000000E+02  0.51100000000E-03 0. -1.
         11   -1    0    0    0    0 -0.00000000000E+00 -0.00000000000E+00 -0.45593999997E+02  0.45594000000E+02  0.51100000000E-03 0.  1.
    9900012    2    1    2    0    0  0.34088105849E+02 -0.17925800704E+02 -0.13031974473E+02  0.50528860192E+02  0.30000001039E+02 0.  0.
         12    1    1    2    0    0 -0.34088105849E+02  0.17925800704E+02  0.13031974473E+02  0.40659139808E+02  0.00000000000E+00 0. -1.
         11    1    3    3    0    0 -0.14407204497E+01 -0.34825391206E+01 -0.10619041753E+02  0.11267999031E+02  0.51100000000E-03 0. -1.
        -11    1    3    3    0    0  0.85026758221E+01 -0.27367556321E+01  0.27780902216E+01  0.93543098658E+01  0.51100000000E-03 0.  1.
         12    1    3    3    0    0  0.27026150477E+02 -0.11706505951E+02 -0.51910229416E+01  0.29906551295E+02  0.00000000000E+00 0. -1.
</event>
<event>
 7    1  0.5748623E-013  0.5052886E+02  0.7816164E-02  0.1300439E+00
        -11   -1    0    0    0    0  0.00000000000E+00  0.00000000000E+00  0.45593999997E+02  0.45594000000E+02  0.51100000000E-03 0.  1.
         11   -1    0    0    0    0 -0.00000000000E+00 -0.00000000000E+00 -0.45593999997E+02  0.45594000000E+02  0.51100000000E-03 0. -1.
    9900012    2    1    2    0    0  0.33945759265E+02 -0.17379893258E+02  0.14099305211E+02  0.50528859956E+02  0.30000000322E+02 0.  0.
         12    1    1    2    0    0 -0.33945759265E+02  0.17379893258E+02 -0.14099305211E+02  0.40659140044E+02  0.00000000000E+00 0. -1.
         11    1    3    3    0    0  0.23603667487E+02 -0.21171179905E+01  0.84963210839E+01  0.25175440009E+02  0.51100000000E-03 0. -1.
        -11    1    3    3    0    0  0.38158274406E+01 -0.10056480746E+02 -0.49973321806E+01  0.11860298193E+02  0.51100000000E-03 0.  1.
        -12    1    3    3    0    0  0.65262643371E+01 -0.52062945214E+01  0.10600316307E+02  0.13493121754E+02  0.00000000000E+00 0.  1.
</event>
<event>
 7    1  0.5748623E-013  0.5052886E+02  0.7816164E-02  0.1300439E+00
        -11   -1    0    0    0    0  0.00000000000E+00  0.00000000000E+00  0.45593999997E+02  0.45594000000E+02  0.51100000000E-03 0.  1.
         11   -1    0    0    0    0 -0.00000000000E+00 -0.00000000000E+00 -0.45593999997E+02  0.45594000000E+02  0.51100000000E-03 0. -1.
    9900012    2    1    2    0    0  0.38707296699E+02 -0.27443579658E+01  0.12139988462E+02  0.50528860336E+02  0.30000001476E+02 0.  0.
         12    1    1    2    0    0 -0.38707296699E+02  0.27443579658E+01 -0.12139988462E+02  0.40659139664E+02  0.00000000000E+00 0. -1.
         11    1    3    3    0    0  0.13244065345E+01  0.87498998334E+01  0.64201278874E+01  0.10933107615E+02  0.51100000000E-03 0. -1.
        -11    1    3    3    0    0  0.12185499084E+02 -0.38580529837E+01  0.29803884171E+01  0.13124544797E+02  0.51100000000E-03 0.  1.
         12    1    3    3    0    0  0.25197391080E+02 -0.76362048155E+01  0.27394721578E+01  0.26471207923E+02  0.00000000000E+00 0. -1.
</event>
<event>
 7    1  0.5748623E-013  0.5052886E+02  0.7816164E-02  0.1300439E+00
        -11   -1    0    0    0    0  0.00000000000E+00  0.00000000000E+00  0.45593999997E+02  0.45594000000E+02  0.51100000000E-03 0.  1.
         11   -1    0    0    0    0 -0.00000000000E+00 -0.00000000000E+00 -0.45593999997E+02  0.45594000000E+02  0.51100000000E-03 0. -1.
    9900012    2    1    2    0    0 -0.78014622053E+01 -0.14506319093E+02  0.37173501576E+02  0.50528864180E+02  0.30000013163E+02 0.  0.
         12    1    1    2    0    0  0.78014622053E+01  0.14506319093E+02 -0.37173501576E+02  0.40659135820E+02  0.00000000000E+00 0. -1.
         11    1    3    3    0    0  0.51819437924E+01 -0.15290087249E+02  0.10994141685E+02  0.19532292779E+02  0.51100000000E-03 0. -1.
        -11    1    3    3    0    0 -0.70088831235E+01 -0.40848163651E+01  0.18078737011E+02  0.19815420751E+02  0.51100000000E-03 0.  1.
         12    1    3    3    0    0 -0.59745228742E+01  0.48685845211E+01  0.81006228804E+01  0.11181150650E+02  0.00000000000E+00 0. -1.
</event>
<event>
 7    1  0.5748623E-013  0.5052886E+02  0.7816164E-02  0.1300439E+00
        -11   -1    0    0    0    0  0.00000000000E+00  0.00000000000E+00  0.45593999997E+02  0.45594000000E+02  0.51100000000E-03 0.  1.
         11   -1    0    0    0    0 -0.00000000000E+00 -0.00000000000E+00 -0.45593999997E+02  0.45594000000E+02  0.51100000000E-03 0. -1.
    9900012    2    1    2    0    0 -0.37412939882E+02 -0.42877895953E+01  0.15331418312E+02  0.50528860835E+02  0.30000002993E+02 0.  0.
         12    1    1    2    0    0  0.37412939882E+02  0.42877895953E+01 -0.15331418312E+02  0.40659139165E+02  0.00000000000E+00 0. -1.
         11    1    3    3    0    0 -0.12864498166E+02 -0.12236853499E+02  0.56535687112E+01  0.18633269601E+02  0.51100000000E-03 0. -1.
        -11    1    3    3    0    0 -0.24507687914E+01  0.50319946094E+01  0.76990599460E+01  0.95185482995E+01  0.51100000000E-03 0.  1.
         12    1    3    3    0    0 -0.22097672925E+02  0.29170692940E+01  0.19787896551E+01  0.22377042934E+02  0.00000000000E+00 0. -1.
</event>
<event>
 7    1  0.5748623E-013  0.5052886E+02  0.7816164E-02  0.1300439E+00
        -11   -1    0    0    0    0  0.00000000000E+00  0.00000000000E+00  0.45593999997E+02  0.45594000000E+02  0.51100000000E-03 0. -1.
         11   -1    0    0    0    0 -0.00000000000E+00 -0.00000000000E+00 -0.45593999997E+02  0.45594000000E+02  0.51100000000E-03 0.  1.
    9900012    2    1    2    0    0 -0.19742391469E+02  0.21749372421E+02 -0.28113485858E+02  0.50528864388E+02  0.30000013794E+02 0.  0.
         12    1    1    2    0    0  0.19742391469E+02 -0.21749372421E+02  0.28113485858E+02  0.40659135612E+02  0.00000000000E+00 0. -1.
         11    1    3    3    0    0  0.39874451864E+01  0.95110795021E+01 -0.13233806984E+01  0.10397677103E+02  0.51100000000E-03 0. -1.
        -11    1    3    3    0    0 -0.17686462697E+02  0.13704398463E+02 -0.25225625629E+02  0.33718743876E+02  0.51100000000E-03 0.  1.
        -12    1    3    3    0    0 -0.60433739583E+01 -0.14661055444E+01 -0.15644795307E+01  0.64124434087E+01  0.00000000000E+00 0.  1.
</event>
<event>
 7    1  0.5748623E-013  0.5052886E+02  0.7816164E-02  0.1300439E+00
        -11   -1    0    0    0    0  0.00000000000E+00  0.00000000000E+00  0.45593999997E+02  0.45594000000E+02  0.51100000000E-03 0.  1.
         11   -1    0    0    0    0 -0.00000000000E+00 -0.00000000000E+00 -0.45593999997E+02  0.45594000000E+02  0.51100000000E-03 0. -1.
    9900012    2    1    2    0    0  0.21608547912E+02 -0.15525442587E+02  0.30744053947E+02  0.50528861255E+02  0.30000004272E+02 0.  0.
         12    1    1    2    0    0 -0.21608547912E+02  0.15525442587E+02 -0.30744053947E+02  0.40659138745E+02  0.00000000000E+00 0. -1.
         11    1    3    3    0    0  0.20569589886E+00 -0.63262766406E+01  0.36143834186E+01  0.72888856963E+01  0.51100000000E-03 0. -1.
        -11    1    3    3    0    0  0.25005089832E+02 -0.13620762559E+01  0.19942075660E+02  0.32012437445E+02  0.51100000000E-03 0.  1.
        -12    1    3    3    0    0 -0.36022378192E+01 -0.78370896906E+01  0.71875948680E+01  0.11227538114E+02  0.00000000000E+00 0.  1.
</event>
<event>
 7    1  0.5748623E-013  0.5052886E+02  0.7816164E-02  0.1300439E+00
        -11   -1    0    0    0    0  0.00000000000E+00  0.00000000000E+00  0.45593999997E+02  0.45594000000E+02  0.51100000000E-03 0.  1.
         11   -1    0    0    0    0 -0.00000000000E+00 -0.00000000000E+00 -0.45593999997E+02  0.45594000000E+02  0.51100000000E-03 0. -1.
    9900012    2    1    2    0    0 -0.68690742044E+01  0.14371554496E+02  0.37409086746E+02  0.50528861664E+02  0.30000005515E+02 0.  0.
         12    1    1    2    0    0  0.68690742044E+01 -0.14371554496E+02 -0.37409086746E+02  0.40659138336E+02  0.00000000000E+00 0. -1.
         11    1    3    3    0    0  0.63467107560E+01  0.95698670224E+01  0.32090684073E+01  0.11923137697E+02  0.51100000000E-03 0. -1.
        -11    1    3    3    0    0 -0.75592748437E+01  0.77045151060E+01  0.15771684472E+02  0.19111468299E+02  0.51100000000E-03 0.  1.
         12    1    3    3    0    0 -0.56565101167E+01 -0.29028276326E+01  0.18428333866E+02  0.19494255668E+02  0.00000000000E+00 0. -1.
</event>
<event>
 7    1  0.5748623E-013  0.5052886E+02  0.7816164E-02  0.1300439E+00
        -11   -1    0    0    0    0  0.00000000000E+00  0.00000000000E+00  0.45593999997E+02  0.45594000000E+02  0.51100000000E-03 0.  1.
         11   -1    0    0    0    0 -0.00000000000E+00 -0.00000000000E+00 -0.45593999997E+02  0.45594000000E+02  0.51100000000E-03 0. -1.
    9900012    2    1    2    0    0 -0.15190178889E+02 -0.36308900406E+02  0.10202350899E+02  0.50528858995E+02  0.29999997402E+02 0.  0.
         12    1    1    2    0    0  0.15190178889E+02  0.36308900406E+02 -0.10202350899E+02  0.40659141005E+02  0.00000000000E+00 0. -1.
         11    1    3    3    0    0  0.68168030459E+01 -0.77989617280E+01 -0.33164176981E+01  0.10876177380E+02  0.51100000000E-03 0. -1.
        -11    1    3    3    0    0 -0.83007461526E+01 -0.13198527035E+02  0.10700405452E+02  0.18910372278E+02  0.51100000000E-03 0.  1.
         12    1    3    3    0    0 -0.13706235783E+02 -0.15311411643E+02  0.28183631450E+01  0.20742309337E+02  0.00000000000E+00 0. -1.
</event>
<event>
 7    1  0.5748623E-013  0.5052879E+02  0.7816164E-02  0.1300439E+00
        -11   -1    0    0    0    0  0.00000000000E+00  0.00000000000E+00  0.45593999997E+02  0.45594000000E+02  0.51100000000E-03 0.  1.
         11   -1    0    0    0    0 -0.00000000000E+00 -0.00000000000E+00 -0.45593999997E+02  0.45594000000E+02  0.51100000000E-03 0. -1.
    9900012    2    1    2    0    0  0.37688351852E+02 -0.14470386635E+02 -0.48340072713E+01  0.50528787255E+02  0.29999779340E+02 0.  0.
         12    1    1    2    0    0 -0.37688351852E+02  0.14470386635E+02  0.48340072713E+01  0.40659212745E+02  0.00000000000E+00 0. -1.
         11    1    3    3    0    0  0.13438007506E+02 -0.40852699935E+00  0.10160955894E+02  0.16852061149E+02  0.51100000000E-03 0. -1.
        -11    1    3    3    0    0  0.22584149815E+02 -0.10735531955E+02 -0.89124963191E+01  0.26546714677E+02  0.51100000000E-03 0.  1.
        -12    1    3    3    0    0  0.16661945316E+01 -0.33263276809E+01 -0.60824668457E+01  0.71300114297E+01  0.00000000000E+00 0.  1.
</event>
<event>
 7    1  0.5748623E-013  0.5052886E+02  0.7816164E-02  0.1300439E+00
        -11   -1    0    0    0    0  0.00000000000E+00  0.00000000000E+00  0.45593999997E+02  0.45594000000E+02  0.51100000000E-03 0.  1.
         11   -1    0    0    0    0 -0.00000000000E+00 -0.00000000000E+00 -0.45593999997E+02  0.45594000000E+02  0.51100000000E-03 0. -1.
    9900012    2    1    2    0    0  0.56709898300E+01 -0.40214085798E+02 -0.19578148468E+01  0.50528857594E+02  0.29999993143E+02 0.  0.
         12    1    1    2    0    0 -0.56709898300E+01  0.40214085798E+02  0.19578148468E+01  0.40659142406E+02  0.00000000000E+00 0. -1.
         11    1    3    3    0    0  0.93260781894E-01 -0.16258968988E+02 -0.10498755139E+02  0.19354240617E+02  0.51100000000E-03 0. -1.
        -11    1    3    3    0    0  0.10925435389E+01 -0.25269194638E+02  0.68445452125E+01  0.26202550419E+02  0.51100000000E-03 0.  1.
         12    1    3    3    0    0  0.44851855093E+01  0.13140778280E+01  0.16963950801E+01  0.49720665581E+01  0.00000000000E+00 0. -1.
</event>
<event>
 7    1  0.5748623E-013  0.5052885E+02  0.7816164E-02  0.1300439E+00
        -11   -1    0    0    0    0  0.00000000000E+00  0.00000000000E+00  0.45593999997E+02  0.45594000000E+02  0.51100000000E-03 0.  1.
         11   -1    0    0    0    0 -0.00000000000E+00 -0.00000000000E+00 -0.45593999997E+02  0.45594000000E+02  0.51100000000E-03 0. -1.
    9900012    2    1    2    0    0  0.13821434330E+02 -0.31295349409E+02  0.21971237989E+02  0.50528852931E+02  0.29999978970E+02 0.  0.
         12    1    1    2    0    0 -0.13821434330E+02  0.31295349409E+02 -0.21971237989E+02  0.40659147069E+02  0.00000000000E+00 0. -1.
         11    1    3    3    0    0 -0.46197966562E+01 -0.15575566325E+02  0.37426788987E+01  0.16671785539E+02  0.51100000000E-03 0. -1.
        -11    1    3    3    0    0  0.16015378018E+02 -0.88282184726E+01  0.19166309800E+02  0.26491077858E+02  0.51100000000E-03 0.  1.
        -12    1    3    3    0    0  0.24258529680E+01 -0.68915646120E+01 -0.93775070936E+00  0.73659895341E+01  0.00000000000E+00 0.  1.
</event>
<event>
 7    1  0.5748623E-013  0.5052886E+02  0.7816164E-02  0.1300439E+00
        -11   -1    0    0    0    0  0.00000000000E+00  0.00000000000E+00  0.45593999997E+02  0.45594000000E+02  0.51100000000E-03 0.  1.
         11   -1    0    0    0    0 -0.00000000000E+00 -0.00000000000E+00 -0.45593999997E+02  0.45594000000E+02  0.51100000000E-03 0. -1.
    9900012    2    1    2    0    0  0.18038163629E+02 -0.20463027063E+02  0.30150539354E+02  0.50528857768E+02  0.29999993673E+02 0.  0.
         12    1    1    2    0    0 -0.18038163629E+02  0.20463027063E+02 -0.30150539354E+02  0.40659142232E+02  0.00000000000E+00 0. -1.
         11    1    3    3    0    0 -0.61647960852E+01 -0.42741033544E+01  0.14128828723E+01  0.76334073996E+01  0.51100000000E-03 0. -1.
        -11    1    3    3    0    0  0.17091728132E+02 -0.16153686039E+02  0.16454491703E+02  0.28702248007E+02  0.51100000000E-03 0.  1.
        -12    1    3    3    0    0  0.71112315820E+01 -0.35237669323E-01  0.12283164779E+02  0.14193202362E+02  0.00000000000E+00 0.  1.
</event>
<event>
 7    1  0.5748623E-013  0.5052886E+02  0.7816164E-02  0.1300439E+00
        -11   -1    0    0    0    0  0.00000000000E+00  0.00000000000E+00  0.45593999997E+02  0.45594000000E+02  0.51100000000E-03 0. -1.
         11   -1    0    0    0    0 -0.00000000000E+00 -0.00000000000E+00 -0.45593999997E+02  0.45594000000E+02  0.51100000000E-03 0.  1.
    9900012    2    1    2    0    0  0.17157576645E+01  0.32386442084E+02 -0.24522237079E+02  0.50528861217E+02  0.30000004154E+02 0.  0.
         12    1    1    2    0    0 -0.17157576645E+01 -0.32386442084E+02  0.24522237079E+02  0.40659138783E+02  0.00000000000E+00 0. -1.
         11    1    3    3    0    0 -0.84533760331E+01  0.15666039383E+02  0.13382454926E+01  0.17851477742E+02  0.51100000000E-03 0. -1.
        -11    1    3    3    0    0  0.11536479698E+01  0.18968278120E+01 -0.54766441681E+01  0.59095254456E+01  0.51100000000E-03 0.  1.
         12    1    3    3    0    0  0.90154857278E+01  0.14823574890E+02 -0.20383838404E+02  0.26767858029E+02  0.00000000000E+00 0. -1.
</event>
<event>
 7    1  0.5748623E-013  0.5052886E+02  0.7816164E-02  0.1300439E+00
        -11   -1    0    0    0    0  0.00000000000E+00  0.00000000000E+00  0.45593999997E+02  0.45594000000E+02  0.51100000000E-03 0.  1.
         11   -1    0    0    0    0 -0.00000000000E+00 -0.00000000000E+00 -0.45593999997E+02  0.45594000000E+02  0.51100000000E-03 0. -1.
    9900012    2    1    2    0    0  0.20542800388E+02 -0.35077462868E+02  0.85470880130E+00  0.50528861099E+02  0.30000003798E+02 0.  0.
         12    1    1    2    0    0 -0.20542800388E+02  0.35077462868E+02 -0.85470880130E+00  0.40659138901E+02  0.00000000000E+00 0. -1.
         11    1    3    3    0    0  0.16586128046E+01 -0.61562197640E+01 -0.10079065703E+02  0.11926340760E+02  0.51100000000E-03 0. -1.
        -11    1    3    3    0    0  0.14957087672E+02 -0.27081402159E+02  0.13285382021E+02  0.33669246951E+02  0.51100000000E-03 0.  1.
        -12    1    3    3    0    0  0.39270999108E+01 -0.18398409444E+01 -0.23516075165E+01  0.49332733881E+01  0.00000000000E+00 0.  1.
</event>
<event>
 7    1  0.5748623E-013  0.5052885E+02  0.7816164E-02  0.1300439E+00
        -11   -1    0    0    0    0  0.00000000000E+00  0.00000000000E+00  0.45593999997E+02  0.45594000000E+02  0.51100000000E-03 0.  1.
         11   -1    0    0    0    0 -0.00000000000E+00 -0.00000000000E+00 -0.45593999997E+02  0.45594000000E+02  0.51100000000E-03 0. -1.
    9900012    2    1    2    0    0 -0.23960897298E+02 -0.22022647471E+02  0.24373031176E+02  0.50528852817E+02  0.29999978621E+02 0.  0.
         12    1    1    2    0    0  0.23960897298E+02  0.22022647471E+02 -0.24373031176E+02  0.40659147183E+02  0.00000000000E+00 0. -1.
         11    1    3    3    0    0 -0.87315046139E+01 -0.52631046479E+01 -0.24134703400E+01  0.10476845074E+02  0.51100000000E-03 0. -1.
        -11    1    3    3    0    0  0.15281899197E+01 -0.12355519879E+02  0.11108384698E+02  0.16685036613E+02  0.51100000000E-03 0.  1.
        -12    1    3    3    0    0 -0.16757582604E+02 -0.44040229439E+01  0.15678116818E+02  0.23366971130E+02  0.00000000000E+00 0.  1.
</event>
<event>
 7    1  0.5748623E-013  0.5052886E+02  0.7816164E-02  0.1300439E+00
        -11   -1    0    0    0    0  0.00000000000E+00  0.00000000000E+00  0.45593999997E+02  0.45594000000E+02  0.51100000000E-03 0.  1.
         11   -1    0    0    0    0 -0.00000000000E+00 -0.00000000000E+00 -0.45593999997E+02  0.45594000000E+02  0.51100000000E-03 0. -1.
    9900012    2    1    2    0    0  0.28965535566E+02  0.24400187702E+02  0.14791682120E+02  0.50528864859E+02  0.30000015225E+02 0.  0.
         12    1    1    2    0    0 -0.28965535566E+02 -0.24400187702E+02 -0.14791682120E+02  0.40659135141E+02  0.00000000000E+00 0. -1.
         11    1    3    3    0    0  0.78002543118E+01  0.40639940691E+01 -0.18474548687E+01  0.89873858755E+01  0.51100000000E-03 0. -1.
        -11    1    3    3    0    0  0.16632978745E+02  0.90789551030E+01  0.21329497812E+02  0.28531226488E+02  0.51100000000E-03 0.  1.
        -12    1    3    3    0    0  0.45323025090E+01  0.11257238530E+02 -0.46903608239E+01  0.13010252496E+02  0.00000000000E+00 0.  1.
</event>
<event>
 7    1  0.5748623E-013  0.5052885E+02  0.7816164E-02  0.1300439E+00
        -11   -1    0    0    0    0  0.00000000000E+00  0.00000000000E+00  0.45593999997E+02  0.45594000000E+02  0.51100000000E-03 0.  1.
         11   -1    0    0    0    0 -0.00000000000E+00 -0.00000000000E+00 -0.45593999997E+02  0.45594000000E+02  0.51100000000E-03 0. -1.
    9900012    2    1    2    0    0  0.17619502948E+02  0.35439490912E+02  0.93145972541E+01  0.50528854383E+02  0.29999983383E+02 0.  0.
         12    1    1    2    0    0 -0.17619502948E+02 -0.35439490912E+02 -0.93145972541E+01  0.40659145617E+02  0.00000000000E+00 0. -1.
         11    1    3    3    0    0 -0.75175111300E+00  0.25681099219E+01 -0.84580812099E+01  0.88712714039E+01  0.51100000000E-03 0. -1.
        -11    1    3    3    0    0  0.45306519689E+01  0.80371184431E+01  0.37864652773E+01  0.99729333543E+01  0.51100000000E-03 0.  1.
         12    1    3    3    0    0  0.13840602093E+02  0.24834262547E+02  0.13986213187E+02  0.31684649625E+02  0.00000000000E+00 0. -1.
</event>
<event>
 7    1  0.5748623E-013  0.5052886E+02  0.7816164E-02  0.1300439E+00
        -11   -1    0    0    0    0  0.00000000000E+00  0.00000000000E+00  0.45593999997E+02  0.45594000000E+02  0.51100000000E-03 0.  1.
         11   -1    0    0    0    0 -0.00000000000E+00 -0.00000000000E+00 -0.45593999997E+02  0.45594000000E+02  0.51100000000E-03 0. -1.
    9900012    2    1    2    0    0  0.57666790722E+01 -0.25199151752E+02  0.31383339596E+02  0.50528857845E+02  0.29999993907E+02 0.  0.
         12    1    1    2    0    0 -0.57666790722E+01  0.25199151752E+02 -0.31383339596E+02  0.40659142155E+02  0.00000000000E+00 0. -1.
         11    1    3    3    0    0 -0.92933946092E+00  0.22981204857E+01 -0.58625433598E+00  0.25472973930E+01  0.51100000000E-03 0. -1.
        -11    1    3    3    0    0  0.11069601499E+02 -0.25330173118E+02  0.17514901115E+02  0.32724998226E+02  0.51100000000E-03 0.  1.
        -12    1    3    3    0    0 -0.43735829659E+01 -0.21670991199E+01  0.14454692817E+02  0.15256562227E+02  0.00000000000E+00 0.  1.
</event>
<event>
 7    1  0.5748623E-013  0.5052886E+02  0.7816164E-02  0.1300439E+00
        -11   -1    0    0    0    0  0.00000000000E+00  0.00000000000E+00  0.45593999997E+02  0.45594000000E+02  0.51100000000E-03 0. -1.
         11   -1    0    0    0    0 -0.00000000000E+00 -0.00000000000E+00 -0.45593999997E+02  0.45594000000E+02  0.51100000000E-03 0.  1.
    9900012    2    1    2    0    0 -0.27714369612E+02 -0.10244615907E+02 -0.27930752724E+02  0.50528863440E+02  0.30000010913E+02 0.  0.
         12    1    1    2    0    0  0.27714369612E+02  0.10244615907E+02  0.27930752724E+02  0.40659136560E+02  0.00000000000E+00 0. -1.
         11    1    3    3    0    0 -0.21485319278E+02 -0.20171890534E+02 -0.15656182743E+02  0.33371247662E+02  0.51100000000E-03 0. -1.
        -11    1    3    3    0    0 -0.13946618753E+01  0.25145824305E+01 -0.15964842543E+01  0.32889160496E+01  0.51100000000E-03 0.  1.
         12    1    3    3    0    0 -0.48343884585E+01  0.74126921968E+01 -0.10678085726E+02  0.13868699728E+02  0.00000000000E+00 0. -1.
</event>
<event>
 7    1  0.5748623E-013  0.5052886E+02  0.7816164E-02  0.1300439E+00
        -11   -1    0    0    0    0  0.00000000000E+00  0.00000000000E+00  0.45593999997E+02  0.45594000000E+02  0.51100000000E-03 0.  1.
         11   -1    0    0    0    0 -0.00000000000E+00 -0.00000000000E+00 -0.45593999997E+02  0.45594000000E+02  0.51100000000E-03 0. -1.
    9900012    2    1    2    0    0  0.24477920689E+02 -0.28113476246E+02  0.16236677665E+02  0.50528857738E+02  0.29999993582E+02 0.  0.
         12    1    1    2    0    0 -0.24477920689E+02  0.28113476246E+02 -0.16236677665E+02  0.40659142262E+02  0.00000000000E+00 0. -1.
         11    1    3    3    0    0  0.62784332207E+01 -0.10636808819E+02 -0.46120348545E+01  0.13184509521E+02  0.51100000000E-03 0. -1.
        -11    1    3    3    0    0  0.16893006735E+01 -0.10990118483E+02  0.14988779249E+02  0.18662795735E+02  0.51100000000E-03 0.  1.
        -12    1    3    3    0    0  0.16510186795E+02 -0.64865489438E+01  0.58599332707E+01  0.18681552482E+02  0.00000000000E+00 0.  1.
</event>
<event>
 7    1  0.5748623E-013  0.5052886E+02  0.7816164E-02  0.1300439E+00
        -11   -1    0    0    0    0  0.00000000000E+00  0.00000000000E+00  0.45593999997E+02  0.45594000000E+02  0.51100000000E-03 0.  1.
         11   -1    0    0    0    0 -0.00000000000E+00 -0.00000000000E+00 -0.45593999997E+02  0.45594000000E+02  0.51100000000E-03 0. -1.
    9900012    2    1    2    0    0 -0.13111903701E+02 -0.10207827147E+02  0.37108544055E+02  0.50528858400E+02  0.29999995594E+02 0.  0.
         12    1    1    2    0    0  0.13111903701E+02  0.10207827147E+02 -0.37108544055E+02  0.40659141600E+02  0.00000000000E+00 0. -1.
         11    1    3    3    0    0 -0.66433561734E+01  0.76580537570E+00  0.14025654659E+01  0.68328492788E+01  0.51100000000E-03 0. -1.
        -11    1    3    3    0    0  0.73673442205E+01 -0.80775282008E+01  0.17700307945E+02  0.20804449628E+02  0.51100000000E-03 0.  1.
        -12    1    3    3    0    0 -0.13835891748E+02 -0.28961043217E+01  0.18005670644E+02  0.22891559494E+02  0.00000000000E+00 0.  1.
</event>
<event>
 7    1  0.5748623E-013  0.5052886E+02  0.7816164E-02  0.1300439E+00
        -11   -1    0    0    0    0  0.00000000000E+00  0.00000000000E+00  0.45593999997E+02  0.45594000000E+02  0.51100000000E-03 0.  1.
         11   -1    0    0    0    0 -0.00000000000E+00 -0.00000000000E+00 -0.45593999997E+02  0.45594000000E+02  0.51100000000E-03 0. -1.
    9900012    2    1    2    0    0 -0.24870203158E+02  0.29278053849E+02  0.13320456212E+02  0.50528855937E+02  0.29999988105E+02 0.  0.
         12    1    1    2    0    0  0.24870203158E+02 -0.29278053849E+02 -0.13320456212E+02  0.40659144063E+02  0.00000000000E+00 0. -1.
         11    1    3    3    0    0 -0.24560476738E+02  0.16583377723E+02 -0.18862840261E+01  0.29694839653E+02  0.51100000000E-03 0. -1.
        -11    1    3    3    0    0  0.14615689567E+01  0.78778476152E+01  0.12948520688E+02  0.15226977873E+02  0.51100000000E-03 0.  1.
         12    1    3    3    0    0 -0.17712953761E+01  0.48168285101E+01  0.22582195506E+01  0.56070384111E+01  0.00000000000E+00 0. -1.
</event>
<event>
 7    1  0.5748623E-013  0.5052885E+02  0.7816164E-02  0.1300439E+00
        -11   -1    0    0    0    0  0.00000000000E+00  0.00000000000E+00  0.45593999997E+02  0.45594000000E+02  0.51100000000E-03 0.  1.
         11   -1    0    0    0    0 -0.00000000000E+00 -0.00000000000E+00 -0.45593999997E+02  0.45594000000E+02  0.51100000000E-03 0. -1.
    9900012    2    1    2    0    0  0.25366751570E+02  0.31774723861E+02 -0.24733853213E+00  0.50528851731E+02  0.29999975320E+02 0.  0.
         12    1    1    2    0    0 -0.25366751570E+02 -0.31774723861E+02  0.24733853213E+00  0.40659148269E+02  0.00000000000E+00 0. -1.
         11    1    3    3    0    0  0.14166652947E+02  0.32445674553E+02 -0.53547782758E+01  0.35806277433E+02  0.51100000000E-03 0. -1.
        -11    1    3    3    0    0  0.74938367000E+01  0.30697861556E+01  0.12480221557E+01  0.81938229838E+01  0.51100000000E-03 0.  1.
         12    1    3    3    0    0  0.37062619225E+01 -0.37407368478E+01  0.38594175880E+01  0.65287513141E+01  0.00000000000E+00 0. -1.
</event>
<event>
 7    1  0.5748623E-013  0.5052892E+02  0.7816164E-02  0.1300439E+00
        -11   -1    0    0    0    0  0.00000000000E+00  0.00000000000E+00  0.45593999997E+02  0.45594000000E+02  0.51100000000E-03 0. -1.
         11   -1    0    0    0    0 -0.00000000000E+00 -0.00000000000E+00 -0.45593999997E+02  0.45594000000E+02  0.51100000000E-03 0.  1.
    9900012    2    1    2    0    0 -0.22309770689E+02  0.95755992863E+01 -0.32615065584E+02  0.50528923856E+02  0.30000194551E+02 0.  0.
         12    1    1    2    0    0  0.22309770689E+02 -0.95755992863E+01  0.32615065584E+02  0.40659076144E+02  0.00000000000E+00 0. -1.
         11    1    3    3    0    0  0.60616085811E+01 -0.15771185917E+01 -0.55333370689E+01  0.83575248143E+01  0.51100000000E-03 0. -1.
        -11    1    3    3    0    0 -0.11646715624E+02  0.56954100405E+01 -0.18517855462E+02  0.22605190809E+02  0.51100000000E-03 0.  1.
         12    1    3    3    0    0 -0.16724663646E+02  0.54573078375E+01 -0.85638730531E+01  0.19566208232E+02  0.00000000000E+00 0. -1.
</event>
<event>
 7    1  0.5748623E-013  0.5052886E+02  0.7816164E-02  0.1300439E+00
        -11   -1    0    0    0    0  0.00000000000E+00  0.00000000000E+00  0.45593999997E+02  0.45594000000E+02  0.51100000000E-03 0.  1.
         11   -1    0    0    0    0 -0.00000000000E+00 -0.00000000000E+00 -0.45593999997E+02  0.45594000000E+02  0.51100000000E-03 0. -1.
    9900012    2    1    2    0    0 -0.96271973940E+01  0.39070683088E+02  0.58278872937E+01  0.50528862320E+02  0.30000007507E+02 0.  0.
         12    1    1    2    0    0  0.96271973940E+01 -0.39070683088E+02 -0.58278872937E+01  0.40659137680E+02  0.00000000000E+00 0. -1.
         11    1    3    3    0    0 -0.25836843688E+00  0.28244346431E+01  0.90469337120E+01  0.94810967273E+01  0.51100000000E-03 0. -1.
        -11    1    3    3    0    0 -0.12088043868E+02  0.21541551794E+02 -0.69007372781E+01  0.25647211027E+02  0.51100000000E-03 0.  1.
        -12    1    3    3    0    0  0.27192149107E+01  0.14704696651E+02  0.36816908598E+01  0.15400554565E+02  0.00000000000E+00 0.  1.
</event>
<event>
 7    1  0.5748623E-013  0.5052885E+02  0.7816164E-02  0.1300439E+00
        -11   -1    0    0    0    0  0.00000000000E+00  0.00000000000E+00  0.45593999997E+02  0.45594000000E+02  0.51100000000E-03 0. -1.
         11   -1    0    0    0    0 -0.00000000000E+00 -0.00000000000E+00 -0.45593999997E+02  0.45594000000E+02  0.51100000000E-03 0.  1.
    9900012    2    1    2    0    0 -0.29176953873E+00 -0.38330732279E+02  0.13558618530E+02  0.50528852162E+02  0.29999976630E+02 0.  0.
         12    1    1    2    0    0  0.29176953873E+00  0.38330732279E+02 -0.13558618530E+02  0.40659147838E+02  0.00000000000E+00 0. -1.
         11    1    3    3    0    0 -0.56319290853E+01  0.27118927240E+01  0.36562802060E+01  0.72416415663E+01  0.51100000000E-03 0. -1.
        -11    1    3    3    0    0  0.31607827417E+01 -0.22347714352E+02  0.94268583440E+01  0.24459692205E+02  0.51100000000E-03 0.  1.
         12    1    3    3    0    0  0.21793768049E+01 -0.18694910651E+02  0.47547998031E+00  0.18827518390E+02  0.00000000000E+00 0. -1.
</event>
<event>
 7    1  0.5748623E-013  0.5052886E+02  0.7816164E-02  0.1300439E+00
        -11   -1    0    0    0    0  0.00000000000E+00  0.00000000000E+00  0.45593999997E+02  0.45594000000E+02  0.51100000000E-03 0.  1.
         11   -1    0    0    0    0 -0.00000000000E+00 -0.00000000000E+00 -0.45593999997E+02  0.45594000000E+02  0.51100000000E-03 0. -1.
    9900012    2    1    2    0    0  0.89250418010E+01  0.19731641633E+02  0.34411792321E+02  0.50528861994E+02  0.30000006516E+02 0.  0.
         12    1    1    2    0    0 -0.89250418010E+01 -0.19731641633E+02 -0.34411792321E+02  0.40659138006E+02  0.00000000000E+00 0. -1.
         11    1    3    3    0    0  0.70253279238E+00  0.20637623457E+02  0.12118592788E+02  0.23942960253E+02  0.51100000000E-03 0. -1.
        -11    1    3    3    0    0 -0.20221197489E+01 -0.26247218920E+01  0.97622070356E+01  0.10309161933E+02  0.51100000000E-03 0.  1.
        -12    1    3    3    0    0  0.10244628758E+02  0.17187400682E+01  0.12530992498E+02  0.16276739808E+02  0.00000000000E+00 0.  1.
</event>
<event>
 7    1  0.5748623E-013  0.5052888E+02  0.7816164E-02  0.1300439E+00
        -11   -1    0    0    0    0  0.00000000000E+00  0.00000000000E+00  0.45593999997E+02  0.45594000000E+02  0.51100000000E-03 0.  1.
         11   -1    0    0    0    0 -0.00000000000E+00 -0.00000000000E+00 -0.45593999997E+02  0.45594000000E+02  0.51100000000E-03 0. -1.
    9900012    2    1    2    0    0  0.23185332865E+02 -0.29740677113E+02 -0.15201870696E+02  0.50528875466E+02  0.30000047468E+02 0.  0.
         12    1    1    2    0    0 -0.23185332865E+02  0.29740677113E+02  0.15201870696E+02  0.40659124534E+02  0.00000000000E+00 0. -1.
         11    1    3    3    0    0  0.38101285592E+00  0.84526777135E+00  0.25110205887E+01  0.26767280511E+01  0.51100000000E-03 0. -1.
        -11    1    3    3    0    0  0.21509946271E+02 -0.12069708493E+02 -0.15568316248E+02  0.29167244003E+02  0.51100000000E-03 0.  1.
        -12    1    3    3    0    0  0.12943737383E+01 -0.18516236390E+02 -0.21445750374E+01  0.18684903412E+02  0.00000000000E+00 0.  1.
</event>
<event>
 7    1  0.5748623E-013  0.5052886E+02  0.7816164E-02  0.1300439E+00
        -11   -1    0    0    0    0  0.00000000000E+00  0.00000000000E+00  0.45593999997E+02  0.45594000000E+02  0.51100000000E-03 0. -1.
         11   -1    0    0    0    0 -0.00000000000E+00 -0.00000000000E+00 -0.45593999997E+02  0.45594000000E+02  0.51100000000E-03 0.  1.
    9900012    2    1    2    0    0 -0.40144445766E+02 -0.46696068552E+01 -0.44479351834E+01  0.50528857345E+02  0.29999992387E+02 0.  0.
         12    1    1    2    0    0  0.40144445766E+02  0.46696068552E+01  0.44479351834E+01  0.40659142655E+02  0.00000000000E+00 0. -1.
         11    1    3    3    0    0 -0.39202063209E+01  0.78328987361E+01 -0.16463944995E+01  0.89125156560E+01  0.51100000000E-03 0. -1.
        -11    1    3    3    0    0 -0.35904348048E+02 -0.10405657914E+02  0.85222015279E+00  0.37391525843E+02  0.51100000000E-03 0.  1.
         12    1    3    3    0    0 -0.31989139648E+00 -0.20968476770E+01 -0.36537608366E+01  0.42248158466E+01  0.00000000000E+00 0. -1.
</event>
<event>
 7    1  0.5748623E-013  0.5052886E+02  0.7816164E-02  0.1300439E+00
        -11   -1    0    0    0    0  0.00000000000E+00  0.00000000000E+00  0.45593999997E+02  0.45594000000E+02  0.51100000000E-03 0.  1.
         11   -1    0    0    0    0 -0.00000000000E+00 -0.00000000000E+00 -0.45593999997E+02  0.45594000000E+02  0.51100000000E-03 0. -1.
    9900012    2    1    2    0    0 -0.31111473788E+01  0.46942547394E+00  0.40537222491E+02  0.50528855818E+02  0.29999987746E+02 0.  0.
         12    1    1    2    0    0  0.31111473788E+01 -0.46942547394E+00 -0.40537222491E+02  0.40659144182E+02  0.00000000000E+00 0. -1.
         11    1    3    3    0    0  0.29203128627E+01  0.11011082001E+02  0.13120155910E+02  0.17375576118E+02  0.51100000000E-03 0. -1.
        -11    1    3    3    0    0 -0.61629038675E+01 -0.10897694866E+02  0.28967428637E+02  0.31557139597E+02  0.51100000000E-03 0.  1.
        -12    1    3    3    0    0  0.13144362592E+00  0.35603833855E+00 -0.15503620559E+01  0.15961401034E+01  0.00000000000E+00 0.  1.
</event>
<event>
 7    1  0.5748623E-013  0.5052886E+02  0.7816164E-02  0.1300439E+00
        -11   -1    0    0    0    0  0.00000000000E+00  0.00000000000E+00  0.45593999997E+02  0.45594000000E+02  0.51100000000E-03 0.  1.
         11   -1    0    0    0    0 -0.00000000000E+00 -0.00000000000E+00 -0.45593999997E+02  0.45594000000E+02  0.51100000000E-03 0. -1.
    9900012    2    1    2    0    0 -0.27719063338E+02 -0.28961382989E+02  0.67865875068E+01  0.50528856539E+02  0.29999989936E+02 0.  0.
         12    1    1    2    0    0  0.27719063338E+02  0.28961382989E+02 -0.67865875068E+01  0.40659143461E+02  0.00000000000E+00 0. -1.
         11    1    3    3    0    0 -0.18983845457E+02 -0.73150855282E+01  0.11663357694E+02  0.23450602925E+02  0.51100000000E-03 0. -1.
        -11    1    3    3    0    0 -0.38889718355E+01 -0.18042219664E+02  0.12195545066E+01  0.18496840427E+02  0.51100000000E-03 0.  1.
         12    1    3    3    0    0 -0.48462460460E+01 -0.36040777970E+01 -0.60963246934E+01  0.85814131862E+01  0.00000000000E+00 0. -1.
</event>
<event>
 7    1  0.5748623E-013  0.5052886E+02  0.7816164E-02  0.1300439E+00
        -11   -1    0    0    0    0  0.00000000000E+00  0.00000000000E+00  0.45593999997E+02  0.45594000000E+02  0.51100000000E-03 0.  1.
         11   -1    0    0    0    0 -0.00000000000E+00 -0.00000000000E+00 -0.45593999997E+02  0.45594000000E+02  0.51100000000E-03 0. -1.
    9900012    2    1    2    0    0  0.11111667202E+02  0.60623204544E+01  0.38638645099E+02  0.50528858687E+02  0.29999996464E+02 0.  0.
         12    1    1    2    0    0 -0.11111667202E+02 -0.60623204544E+01 -0.38638645099E+02  0.40659141313E+02  0.00000000000E+00 0. -1.
         11    1    3    3    0    0  0.66090184002E+01 -0.96974734406E+01  0.10030255293E+02  0.15437815158E+02  0.51100000000E-03 0. -1.
        -11    1    3    3    0    0  0.16629216913E+01  0.28613335975E+01  0.17567891674E+02  0.17876894491E+02  0.51100000000E-03 0.  1.
         12    1    3    3    0    0  0.28397271104E+01  0.12898460297E+02  0.11040498132E+02  0.17214149038E+02  0.00000000000E+00 0. -1.
</event>
<event>
 7    1  0.5748623E-013  0.5052888E+02  0.7816164E-02  0.1300439E+00
        -11   -1    0    0    0    0  0.00000000000E+00  0.00000000000E+00  0.45593999997E+02  0.45594000000E+02  0.51100000000E-03 0.  1.
         11   -1    0    0    0    0 -0.00000000000E+00 -0.00000000000E+00 -0.45593999997E+02  0.45594000000E+02  0.51100000000E-03 0. -1.
    9900012    2    1    2    0    0 -0.26567532027E+02  0.16527793318E+02  0.25964634963E+02  0.50528880743E+02  0.30000063507E+02 0.  0.
         12    1    1    2    0    0  0.26567532027E+02 -0.16527793318E+02 -0.25964634963E+02  0.40659119257E+02  0.00000000000E+00 0. -1.
         11    1    3    3    0    0 -0.20102954036E+02  0.32827248099E+01  0.11452654304E+02  0.23368105058E+02  0.51100000000E-03 0.  1.
        -11    1    3    3    0    0 -0.62514502463E+01  0.17343313101E+02  0.96838301414E+01  0.20824209612E+02  0.51100000000E-03 0. -1.
         12    1    3    3    0    0 -0.21312774498E+00 -0.40982445927E+01  0.48281505176E+01  0.63365660731E+01  0.00000000000E+00 0. -1.
</event>
<event>
 7    1  0.5748623E-013  0.5052885E+02  0.7816164E-02  0.1300439E+00
        -11   -1    0    0    0    0  0.00000000000E+00  0.00000000000E+00  0.45593999997E+02  0.45594000000E+02  0.51100000000E-03 0. -1.
         11   -1    0    0    0    0 -0.00000000000E+00 -0.00000000000E+00 -0.45593999997E+02  0.45594000000E+02  0.51100000000E-03 0.  1.
    9900012    2    1    2    0    0  0.15951992855E+01 -0.31172416676E+02 -0.26055752993E+02  0.50528849908E+02  0.29999969779E+02 0.  0.
         12    1    1    2    0    0 -0.15951992855E+01  0.31172416676E+02  0.26055752993E+02  0.40659150092E+02  0.00000000000E+00 0. -1.
         11    1    3    3    0    0 -0.45115401982E+01  0.27255594374E+00  0.37585033988E+01  0.58783186169E+01  0.51100000000E-03 0. -1.
        -11    1    3    3    0    0  0.42253628364E+01 -0.15893819456E+02 -0.94810101098E+01  0.18983064583E+02  0.51100000000E-03 0.  1.
         12    1    3    3    0    0  0.18813766473E+01 -0.15551153165E+02 -0.20333246282E+02  0.25667466708E+02  0.00000000000E+00 0. -1.
</event>
<event>
 7    1  0.5748623E-013  0.5052886E+02  0.7816164E-02  0.1300439E+00
        -11   -1    0    0    0    0  0.00000000000E+00  0.00000000000E+00  0.45593999997E+02  0.45594000000E+02  0.51100000000E-03 0. -1.
         11   -1    0    0    0    0 -0.00000000000E+00 -0.00000000000E+00 -0.45593999997E+02  0.45594000000E+02  0.51100000000E-03 0.  1.
    9900012    2    1    2    0    0  0.16082273798E+02 -0.14455613813E+02 -0.34431982547E+02  0.50528859289E+02  0.29999998293E+02 0.  0.
         12    1    1    2    0    0 -0.16082273798E+02  0.14455613813E+02  0.34431982547E+02  0.40659140711E+02  0.00000000000E+00 0. -1.
         11    1    3    3    0    0  0.13939408830E+02 -0.53594999583E+01 -0.40814141587E+01  0.15481902342E+02  0.51100000000E-03 0. -1.
        -11    1    3    3    0    0 -0.55995854423E+01 -0.14653235614E+01 -0.57844010689E+01  0.81830206068E+01  0.51100000000E-03 0.  1.
        -12    1    3    3    0    0  0.77424504104E+01 -0.76307902936E+01 -0.24566167320E+02  0.26863936340E+02  0.00000000000E+00 0.  1.
</event>
<event>
 7    1  0.5748623E-013  0.5052885E+02  0.7816164E-02  0.1300439E+00
        -11   -1    0    0    0    0  0.00000000000E+00  0.00000000000E+00  0.45593999997E+02  0.45594000000E+02  0.51100000000E-03 0. -1.
         11   -1    0    0    0    0 -0.00000000000E+00 -0.00000000000E+00 -0.45593999997E+02  0.45594000000E+02  0.51100000000E-03 0.  1.
    9900012    2    1    2    0    0  0.88873599077E+01 -0.30312125124E+02 -0.25599923897E+02  0.50528853438E+02  0.29999980510E+02 0.  0.
         12    1    1    2    0    0 -0.88873599077E+01  0.30312125124E+02  0.25599923897E+02  0.40659146562E+02  0.00000000000E+00 0. -1.
         11    1    3    3    0    0  0.11409808610E+02 -0.27962702428E+02 -0.14382211356E+02  0.33450627248E+02  0.51100000000E-03 0. -1.
        -11    1    3    3    0    0 -0.52173722911E+01 -0.12281530162E+01  0.12957135267E+00  0.53615410520E+01  0.51100000000E-03 0.  1.
         12    1    3    3    0    0  0.26949235892E+01 -0.11212696800E+01 -0.11347283894E+02  0.11716685138E+02  0.00000000000E+00 0. -1.
</event>
<event>
 7    1  0.5748623E-013  0.5052887E+02  0.7816164E-02  0.1300439E+00
        -11   -1    0    0    0    0  0.00000000000E+00  0.00000000000E+00  0.45593999997E+02  0.45594000000E+02  0.51100000000E-03 0. -1.
         11   -1    0    0    0    0 -0.00000000000E+00 -0.00000000000E+00 -0.45593999997E+02  0.45594000000E+02  0.51100000000E-03 0.  1.
    9900012    2    1    2    0    0  0.35476297423E+01  0.37059225531E+02 -0.16346041699E+02  0.50528868763E+02  0.30000027092E+02 0.  0.
         12    1    1    2    0    0 -0.35476297423E+01 -0.37059225531E+02  0.16346041699E+02  0.40659131237E+02  0.00000000000E+00 0. -1.
         11    1    3    3    0    0 -0.11450919625E+02  0.87848786666E+01 -0.82736158243E+01  0.16635815956E+02  0.51100000000E-03 0. -1.
        -11    1    3    3    0    0  0.53868944056E+01  0.15762678725E+02 -0.70326397391E+01  0.18081446122E+02  0.51100000000E-03 0.  1.
         12    1    3    3    0    0  0.96116549621E+01  0.12511668139E+02 -0.10397861359E+01  0.15811606685E+02  0.00000000000E+00 0. -1.
</event>
<event>
 7    1  0.5748623E-013  0.5052886E+02  0.7816164E-02  0.1300439E+00
        -11   -1    0    0    0    0  0.00000000000E+00  0.00000000000E+00  0.45593999997E+02  0.45594000000E+02  0.51100000000E-03 0.  1.
         11   -1    0    0    0    0 -0.00000000000E+00 -0.00000000000E+00 -0.45593999997E+02  0.45594000000E+02  0.51100000000E-03 0. -1.
    9900012    2    1    2    0    0 -0.54203585907E+01  0.38525652221E+02  0.11813532003E+02  0.50528859518E+02  0.29999998992E+02 0.  0.
         12    1    1    2    0    0  0.54203585907E+01 -0.38525652221E+02 -0.11813532003E+02  0.40659140482E+02  0.00000000000E+00 0. -1.
         11    1    3    3    0    0  0.57975389808E+01  0.17415943281E+02  0.14679958861E+02  0.23503781207E+02  0.51100000000E-03 0. -1.
        -11    1    3    3    0    0 -0.97935732916E+01  0.18783021273E+02  0.21735626514E+01  0.21294138649E+02  0.51100000000E-03 0.  1.
         12    1    3    3    0    0 -0.14243242799E+01  0.23266876678E+01 -0.50399895094E+01  0.57309396623E+01  0.00000000000E+00 0. -1.
</event>
<event>
 7    1  0.5748623E-013  0.5052877E+02  0.7816164E-02  0.1300439E+00
        -11   -1    0    0    0    0  0.00000000000E+00  0.00000000000E+00  0.45593999997E+02  0.45594000000E+02  0.51100000000E-03 0. -1.
         11   -1    0    0    0    0 -0.00000000000E+00 -0.00000000000E+00 -0.45593999997E+02  0.45594000000E+02  0.51100000000E-03 0.  1.
    9900012    2    1    2    0    0  0.23048052330E+02  0.33478468423E+02  0.10733934741E+01  0.50528773031E+02  0.29999736105E+02 0.  0.
         12    1    1    2    0    0 -0.23048052330E+02 -0.33478468423E+02 -0.10733934741E+01  0.40659226969E+02  0.00000000000E+00 0. -1.
         11    1    3    3    0    0 -0.24589995017E+01  0.51165154562E+00 -0.15006670893E+01  0.29258277167E+01  0.51100000000E-03 0. -1.
        -11    1    3    3    0    0  0.19242730385E+02  0.24758094389E+02  0.12045775266E+02  0.33590870969E+02  0.51100000000E-03 0.  1.
        -12    1    3    3    0    0  0.62643214459E+01  0.82087224887E+01 -0.94717147021E+01  0.14012074346E+02  0.00000000000E+00 0.  1.
</event>
<event>
 7    1  0.5748623E-013  0.5052886E+02  0.7816164E-02  0.1300439E+00
        -11   -1    0    0    0    0  0.00000000000E+00  0.00000000000E+00  0.45593999997E+02  0.45594000000E+02  0.51100000000E-03 0. -1.
         11   -1    0    0    0    0 -0.00000000000E+00 -0.00000000000E+00 -0.45593999997E+02  0.45594000000E+02  0.51100000000E-03 0.  1.
    9900012    2    1    2    0    0  0.31620563942E+02  0.25558009853E+02 -0.30613501079E+00  0.50528860188E+02  0.30000001026E+02 0.  0.
         12    1    1    2    0    0 -0.31620563942E+02 -0.25558009853E+02  0.30613501079E+00  0.40659139812E+02  0.00000000000E+00 0. -1.
         11    1    3    3    0    0 -0.29895806106E+01  0.76899671884E+01  0.45718389440E+01  0.94326506973E+01  0.51100000000E-03 0. -1.
        -11    1    3    3    0    0  0.27461559828E+02  0.80007385384E+01 -0.28656372519E+01  0.28746494786E+02  0.51100000000E-03 0.  1.
        -12    1    3    3    0    0  0.71485847249E+01  0.98673041258E+01 -0.20123367029E+01  0.12349714705E+02  0.00000000000E+00 0.  1.
</event>
<event>
 7    1  0.5748623E-013  0.5052886E+02  0.7816164E-02  0.1300439E+00
        -11   -1    0    0    0    0  0.00000000000E+00  0.00000000000E+00  0.45593999997E+02  0.45594000000E+02  0.51100000000E-03 0. -1.
         11   -1    0    0    0    0 -0.00000000000E+00 -0.00000000000E+00 -0.45593999997E+02  0.45594000000E+02  0.51100000000E-03 0.  1.
    9900012    2    1    2    0    0 -0.10379224394E+02  0.14394066186E+02 -0.36582075035E+02  0.50528860139E+02  0.30000000878E+02 0.  0.
         12    1    1    2    0    0  0.10379224394E+02 -0.14394066186E+02  0.36582075035E+02  0.40659139861E+02  0.00000000000E+00 0. -1.
         11    1    3    3    0    0 -0.51033446941E+01  0.32237871245E+01 -0.69194178110E+01  0.91823348662E+01  0.51100000000E-03 0.  1.
        -11    1    3    3    0    0  0.32591171877E+01  0.17395544630E+02 -0.14570078121E+02  0.22924092011E+02  0.51100000000E-03 0. -1.
        -12    1    3    3    0    0 -0.85349968872E+01 -0.62252655693E+01 -0.15092579103E+02  0.18422433261E+02  0.00000000000E+00 0.  1.
</event>
<event>
 7    1  0.5748623E-013  0.5052887E+02  0.7816164E-02  0.1300439E+00
        -11   -1    0    0    0    0  0.00000000000E+00  0.00000000000E+00  0.45593999997E+02  0.45594000000E+02  0.51100000000E-03 0. -1.
         11   -1    0    0    0    0 -0.00000000000E+00 -0.00000000000E+00 -0.45593999997E+02  0.45594000000E+02  0.51100000000E-03 0.  1.
    9900012    2    1    2    0    0 -0.29814778343E+02  0.23920382139E+02  0.13858532176E+02  0.50528873062E+02  0.30000040158E+02 0.  0.
         12    1    1    2    0    0  0.29814778343E+02 -0.23920382139E+02 -0.13858532176E+02  0.40659126938E+02  0.00000000000E+00 0. -1.
         11    1    3    3    0    0 -0.62925039849E+01  0.35972271810E+01 -0.87899258149E+01  0.11392912090E+02  0.51100000000E-03 0. -1.
        -11    1    3    3    0    0 -0.79031715569E+01  0.56443391761E+01  0.32900672592E+01  0.10253937206E+02  0.51100000000E-03 0.  1.
         12    1    3    3    0    0 -0.15619102801E+02  0.14678815782E+02  0.19358390732E+02  0.28882023766E+02  0.00000000000E+00 0. -1.
</event>
<event>
 7    1  0.5748623E-013  0.5052886E+02  0.7816164E-02  0.1300439E+00
        -11   -1    0    0    0    0  0.00000000000E+00  0.00000000000E+00  0.45593999997E+02  0.45594000000E+02  0.51100000000E-03 0.  1.
         11   -1    0    0    0    0 -0.00000000000E+00 -0.00000000000E+00 -0.45593999997E+02  0.45594000000E+02  0.51100000000E-03 0. -1.
    9900012    2    1    2    0    0 -0.16806159804E+02 -0.35950122016E+02  0.88491352216E+01  0.50528862349E+02  0.30000007597E+02 0.  0.
         12    1    1    2    0    0  0.16806159804E+02  0.35950122016E+02 -0.88491352216E+01  0.40659137651E+02  0.00000000000E+00 0. -1.
         11    1    3    3    0    0 -0.37322819061E+01 -0.22119603324E+02  0.27817481250E+01  0.22604090389E+02  0.51100000000E-03 0. -1.
        -11    1    3    3    0    0  0.90833408947E+00  0.32234281985E+01  0.47769630822E+01  0.58339469246E+01  0.51100000000E-03 0.  1.
        -12    1    3    3    0    0 -0.13982211987E+02 -0.17053946890E+02  0.12904240144E+01  0.22090825035E+02  0.00000000000E+00 0.  1.
</event>
<event>
 7    1  0.5748623E-013  0.5052886E+02  0.7816164E-02  0.1300439E+00
        -11   -1    0    0    0    0  0.00000000000E+00  0.00000000000E+00  0.45593999997E+02  0.45594000000E+02  0.51100000000E-03 0.  1.
         11   -1    0    0    0    0 -0.00000000000E+00 -0.00000000000E+00 -0.45593999997E+02  0.45594000000E+02  0.51100000000E-03 0. -1.
    9900012    2    1    2    0    0 -0.27037199543E+02  0.10580374694E+02  0.28464209470E+02  0.50528859471E+02  0.29999998848E+02 0.  0.
         12    1    1    2    0    0  0.27037199543E+02 -0.10580374694E+02 -0.28464209470E+02  0.40659140529E+02  0.00000000000E+00 0. -1.
         11    1    3    3    0    0  0.53769724961E+01  0.43490660694E+01  0.33082400190E+01  0.76662025270E+01  0.51100000000E-03 0. -1.
        -11    1    3    3    0    0 -0.18780980699E+02  0.73980586139E+01  0.10286007031E+02  0.22655207970E+02  0.51100000000E-03 0.  1.
         12    1    3    3    0    0 -0.13633191339E+02 -0.11667499891E+01  0.14869962421E+02  0.20207448974E+02  0.00000000000E+00 0. -1.
</event>
<event>
 7    1  0.5748623E-013  0.5052887E+02  0.7816164E-02  0.1300439E+00
        -11   -1    0    0    0    0  0.00000000000E+00  0.00000000000E+00  0.45593999997E+02  0.45594000000E+02  0.51100000000E-03 0.  1.
         11   -1    0    0    0    0 -0.00000000000E+00 -0.00000000000E+00 -0.45593999997E+02  0.45594000000E+02  0.51100000000E-03 0. -1.
    9900012    2    1    2    0    0 -0.26810556412E+02 -0.28054882112E+02  0.12135989974E+02  0.50528873127E+02  0.30000040358E+02 0.  0.
         12    1    1    2    0    0  0.26810556412E+02  0.28054882112E+02 -0.12135989974E+02  0.40659126873E+02  0.00000000000E+00 0. -1.
         11    1    3    3    0    0 -0.14044277633E+02 -0.14803940735E+02  0.15237008100E+02  0.25466935654E+02  0.51100000000E-03 0. -1.
        -11    1    3    3    0    0  0.31713054615E+01  0.11379445942E+01 -0.15085837372E-01  0.33693210107E+01  0.51100000000E-03 0.  1.
         12    1    3    3    0    0 -0.15937584240E+02 -0.14388885971E+02 -0.30859322884E+01  0.21692616463E+02  0.00000000000E+00 0. -1.
</event>
<event>
 7    1  0.5748623E-013  0.5052886E+02  0.7816164E-02  0.1300439E+00
        -11   -1    0    0    0    0  0.00000000000E+00  0.00000000000E+00  0.45593999997E+02  0.45594000000E+02  0.51100000000E-03 0.  1.
         11   -1    0    0    0    0 -0.00000000000E+00 -0.00000000000E+00 -0.45593999997E+02  0.45594000000E+02  0.51100000000E-03 0. -1.
    9900012    2    1    2    0    0 -0.20231275689E+02 -0.20558144594E+02  0.28656998422E+02  0.50528863466E+02  0.30000010991E+02 0.  0.
         12    1    1    2    0    0  0.20231275689E+02  0.20558144594E+02 -0.28656998422E+02  0.40659136534E+02  0.00000000000E+00 0. -1.
         11    1    3    3    0    0  0.86808214744E+00  0.11284853497E+01  0.93077185909E+00  0.17009945073E+01  0.51100000000E-03 0. -1.
        -11    1    3    3    0    0 -0.27376779270E+02 -0.16726662151E+02  0.20704441004E+02  0.38183021717E+02  0.51100000000E-03 0.  1.
        -12    1    3    3    0    0  0.62774214337E+01 -0.49599677926E+01  0.70217855588E+01  0.10644847241E+02  0.00000000000E+00 0.  1.
</event>
<event>
 7    1  0.5748623E-013  0.5052888E+02  0.7816164E-02  0.1300439E+00
        -11   -1    0    0    0    0  0.00000000000E+00  0.00000000000E+00  0.45593999997E+02  0.45594000000E+02  0.51100000000E-03 0. -1.
         11   -1    0    0    0    0 -0.00000000000E+00 -0.00000000000E+00 -0.45593999997E+02  0.45594000000E+02  0.51100000000E-03 0.  1.
    9900012    2    1    2    0    0 -0.10432738833E+02  0.34168111736E+02 -0.19412940430E+02  0.50528878572E+02  0.30000056907E+02 0.  0.
         12    1    1    2    0    0  0.10432738833E+02 -0.34168111736E+02  0.19412940430E+02  0.40659121428E+02  0.00000000000E+00 0. -1.
         11    1    3    3    0    0 -0.63437312503E+01  0.17404910439E+02 -0.73908183237E+01  0.19944874763E+02  0.51100000000E-03 0. -1.
        -11    1    3    3    0    0 -0.50099306414E+01 -0.14237913765E+01 -0.11203918451E+02  0.12355337949E+02  0.51100000000E-03 0.  1.
        -12    1    3    3    0    0  0.92092305901E+00  0.18186992674E+02 -0.81820365465E+00  0.18228665860E+02  0.00000000000E+00 0.  1.
</event>
<event>
 7    1  0.5748623E-013  0.5052888E+02  0.7816164E-02  0.1300439E+00
        -11   -1    0    0    0    0  0.00000000000E+00  0.00000000000E+00  0.45593999997E+02  0.45594000000E+02  0.51100000000E-03 0. -1.
         11   -1    0    0    0    0 -0.00000000000E+00 -0.00000000000E+00 -0.45593999997E+02  0.45594000000E+02  0.51100000000E-03 0.  1.
    9900012    2    1    2    0    0  0.32433921979E+02 -0.21046712292E+02  0.12579364899E+02  0.50528882763E+02  0.30000069646E+02 0.  0.
         12    1    1    2    0    0 -0.32433921979E+02  0.21046712292E+02 -0.12579364899E+02  0.40659117237E+02  0.00000000000E+00 0. -1.
         11    1    3    3    0    0  0.24930941662E+02 -0.24595244524E+00  0.58365622422E+01  0.25606206354E+02  0.51100000000E-03 0. -1.
        -11    1    3    3    0    0  0.82316564604E+00 -0.12175599723E+02  0.68865608691E+01  0.14012407044E+02  0.51100000000E-03 0.  1.
         12    1    3    3    0    0  0.66798146709E+01 -0.86251601230E+01 -0.14375821250E+00  0.10910269365E+02  0.00000000000E+00 0. -1.
</event>
<event>
 7    1  0.5748623E-013  0.5052880E+02  0.7816164E-02  0.1300439E+00
        -11   -1    0    0    0    0  0.00000000000E+00  0.00000000000E+00  0.45593999997E+02  0.45594000000E+02  0.51100000000E-03 0.  1.
         11   -1    0    0    0    0 -0.00000000000E+00 -0.00000000000E+00 -0.45593999997E+02  0.45594000000E+02  0.51100000000E-03 0. -1.
    9900012    2    1    2    0    0 -0.19660548164E+02 -0.35582241546E+02 -0.73335419491E+00  0.50528795926E+02  0.29999805697E+02 0.  0.
         12    1    1    2    0    0  0.19660548164E+02  0.35582241546E+02  0.73335419491E+00  0.40659204074E+02  0.00000000000E+00 0. -1.
         11    1    3    3    0    0 -0.53017099531E+00 -0.93854115311E+00 -0.12141516081E+01  0.16236086871E+01  0.51100000000E-03 0. -1.
        -11    1    3    3    0    0 -0.24951704733E+02 -0.28186534652E+02 -0.59234614756E+01  0.38107160756E+02  0.51100000000E-03 0.  1.
        -12    1    3    3    0    0  0.58213275644E+01 -0.64571657402E+01  0.64042588888E+01  0.10798026483E+02  0.00000000000E+00 0.  1.
</event>
<event>
 7    1  0.5748623E-013  0.5052885E+02  0.7816164E-02  0.1300439E+00
        -11   -1    0    0    0    0  0.00000000000E+00  0.00000000000E+00  0.45593999997E+02  0.45594000000E+02  0.51100000000E-03 0. -1.
         11   -1    0    0    0    0 -0.00000000000E+00 -0.00000000000E+00 -0.45593999997E+02  0.45594000000E+02  0.51100000000E-03 0.  1.
    9900012    2    1    2    0    0  0.57737284291E+01 -0.39007813557E+02 -0.99106359377E+01  0.50528853880E+02  0.29999981854E+02 0.  0.
         12    1    1    2    0    0 -0.57737284291E+01  0.39007813557E+02  0.99106359377E+01  0.40659146120E+02  0.00000000000E+00 0. -1.
         11    1    3    3    0    0  0.99245978744E-01 -0.33685697798E+02 -0.16175242521E+01  0.33724656720E+02  0.51100000000E-03 0. -1.
        -11    1    3    3    0    0  0.71416774193E+01 -0.71964058767E+01 -0.97064832724E+01  0.14035940712E+02  0.51100000000E-03 0.  1.
        -12    1    3    3    0    0 -0.14671949689E+01  0.18742901172E+01  0.14133715868E+01  0.27682564481E+01  0.00000000000E+00 0.  1.
</event>
<event>
 7    1  0.5748623E-013  0.5052884E+02  0.7816164E-02  0.1300439E+00
        -11   -1    0    0    0    0  0.00000000000E+00  0.00000000000E+00  0.45593999997E+02  0.45594000000E+02  0.51100000000E-03 0. -1.
         11   -1    0    0    0    0 -0.00000000000E+00 -0.00000000000E+00 -0.45593999997E+02  0.45594000000E+02  0.51100000000E-03 0.  1.
    9900012    2    1    2    0    0  0.26513670666E+02  0.19305437469E+02 -0.24031081412E+02  0.50528837172E+02  0.29999931068E+02 0.  0.
         12    1    1    2    0    0 -0.26513670666E+02 -0.19305437469E+02  0.24031081412E+02  0.40659162828E+02  0.00000000000E+00 0. -1.
         11    1    3    3    0    0  0.55509765330E+01  0.80036352959E+01  0.19645659419E+01  0.99363493307E+01  0.51100000000E-03 0. -1.
        -11    1    3    3    0    0  0.11795628555E+01  0.73546459431E+01 -0.16890118352E+02  0.18459639316E+02  0.51100000000E-03 0.  1.
        -12    1    3    3    0    0  0.19783131278E+02  0.39471562300E+01 -0.91055290017E+01  0.22132848525E+02  0.00000000000E+00 0.  1.
</event>
<event>
 7    1  0.5748623E-013  0.5052891E+02  0.7816164E-02  0.1300439E+00
        -11   -1    0    0    0    0  0.00000000000E+00  0.00000000000E+00  0.45593999997E+02  0.45594000000E+02  0.51100000000E-03 0.  1.
         11   -1    0    0    0    0 -0.00000000000E+00 -0.00000000000E+00 -0.45593999997E+02  0.45594000000E+02  0.51100000000E-03 0. -1.
    9900012    2    1    2    0    0 -0.33885177086E+02  0.22422759813E+02  0.14752238844E+01  0.50528909143E+02  0.30000149832E+02 0.  0.
         12    1    1    2    0    0  0.33885177086E+02 -0.22422759813E+02 -0.14752238844E+01  0.40659090857E+02  0.00000000000E+00 0. -1.
         11    1    3    3    0    0 -0.22939954934E+02  0.20519656425E+02  0.10388330334E+02  0.32484076708E+02  0.51100000000E-03 0. -1.
        -11    1    3    3    0    0 -0.22212580315E+01  0.56132657239E+01 -0.47927520222E+01  0.77079965968E+01  0.51100000000E-03 0.  1.
         12    1    3    3    0    0 -0.87239641207E+01 -0.37101623364E+01 -0.41203544277E+01  0.10336835838E+02  0.00000000000E+00 0. -1.
</event>
<event>
 7    1  0.5748623E-013  0.5052886E+02  0.7816164E-02  0.1300439E+00
        -11   -1    0    0    0    0  0.00000000000E+00  0.00000000000E+00  0.45593999997E+02  0.45594000000E+02  0.51100000000E-03 0. -1.
         11   -1    0    0    0    0 -0.00000000000E+00 -0.00000000000E+00 -0.45593999997E+02  0.45594000000E+02  0.51100000000E-03 0.  1.
    9900012    2    1    2    0    0  0.33357721682E+01  0.19932909415E+02 -0.35280552987E+02  0.50528859911E+02  0.30000000186E+02 0.  0.
         12    1    1    2    0    0 -0.33357721682E+01 -0.19932909415E+02  0.35280552987E+02  0.40659140089E+02  0.00000000000E+00 0. -1.
         11    1    3    3    0    0 -0.14589814087E+01  0.77865613788E+01  0.16215557922E+01  0.80863222978E+01  0.51100000000E-03 0. -1.
        -11    1    3    3    0    0  0.84891987040E+01  0.32209967637E+01 -0.27509383276E+02  0.28969078053E+02  0.51100000000E-03 0.  1.
        -12    1    3    3    0    0 -0.36944451271E+01  0.89253512724E+01 -0.93927255032E+01  0.13473459560E+02  0.00000000000E+00 0.  1.
</event>
<event>
 7    1  0.5748623E-013  0.5052886E+02  0.7816164E-02  0.1300439E+00
        -11   -1    0    0    0    0  0.00000000000E+00  0.00000000000E+00  0.45593999997E+02  0.45594000000E+02  0.51100000000E-03 0. -1.
         11   -1    0    0    0    0 -0.00000000000E+00 -0.00000000000E+00 -0.45593999997E+02  0.45594000000E+02  0.51100000000E-03 0.  1.
    9900012    2    1    2    0    0 -0.64262367789E+01 -0.16183148512E+02 -0.36742000093E+02  0.50528863441E+02  0.30000010915E+02 0.  0.
         12    1    1    2    0    0  0.64262367789E+01  0.16183148512E+02  0.36742000093E+02  0.40659136559E+02  0.00000000000E+00 0. -1.
         11    1    3    3    0    0  0.53443967228E+01 -0.79895533393E+01 -0.13364250328E+02  0.16462038937E+02  0.51100000000E-03 0. -1.
        -11    1    3    3    0    0 -0.15093452705E+02 -0.13422399047E+00 -0.19135059600E+02  0.24371722073E+02  0.51100000000E-03 0.  1.
         12    1    3    3    0    0  0.33228192032E+01 -0.80593711821E+01 -0.42426901655E+01  0.96951024310E+01  0.00000000000E+00 0. -1.
</event>
<event>
 7    1  0.5748623E-013  0.5052885E+02  0.7816164E-02  0.1300439E+00
        -11   -1    0    0    0    0  0.00000000000E+00  0.00000000000E+00  0.45593999997E+02  0.45594000000E+02  0.51100000000E-03 0.  1.
         11   -1    0    0    0    0 -0.00000000000E+00 -0.00000000000E+00 -0.45593999997E+02  0.45594000000E+02  0.51100000000E-03 0. -1.
    9900012    2    1    2    0    0  0.32550841119E+01 -0.67985460366E+00  0.40522936686E+02  0.50528853766E+02  0.29999981506E+02 0.  0.
         12    1    1    2    0    0 -0.32550841119E+01  0.67985460366E+00 -0.40522936686E+02  0.40659146234E+02  0.00000000000E+00 0. -1.
         11    1    3    3    0    0  0.38353344078E+01 -0.21527041713E+01  0.80716940007E+01  0.91921798051E+01  0.51100000000E-03 0. -1.
        -11    1    3    3    0    0 -0.99610353096E+01  0.83595949317E+01  0.11449032187E+02  0.17325859001E+02  0.51100000000E-03 0.  1.
        -12    1    3    3    0    0  0.93807850138E+01 -0.68867453641E+01  0.21002210498E+02  0.24010814959E+02  0.00000000000E+00 0.  1.
</event>
<event>
 7    1  0.5748623E-013  0.5052885E+02  0.7816164E-02  0.1300439E+00
        -11   -1    0    0    0    0  0.00000000000E+00  0.00000000000E+00  0.45593999997E+02  0.45594000000E+02  0.51100000000E-03 0.  1.
         11   -1    0    0    0    0 -0.00000000000E+00 -0.00000000000E+00 -0.45593999997E+02  0.45594000000E+02  0.51100000000E-03 0. -1.
    9900012    2    1    2    0    0  0.14530675499E+01 -0.35879174119E+02  0.19071969428E+02  0.50528849018E+02  0.29999967074E+02 0.  0.
         12    1    1    2    0    0 -0.14530675499E+01  0.35879174119E+02 -0.19071969428E+02  0.40659150982E+02  0.00000000000E+00 0. -1.
         11    1    3    3    0    0  0.14302142792E+01  0.21506319495E+01 -0.46033244635E+01  0.52783829952E+01  0.51100000000E-03 0. -1.
        -11    1    3    3    0    0  0.29611056428E+01 -0.26463711859E+02  0.16444662512E+02  0.31297334030E+02  0.51100000000E-03 0.  1.
         12    1    3    3    0    0 -0.29382523720E+01 -0.11566094209E+02  0.72306313796E+01  0.13953131993E+02  0.00000000000E+00 0. -1.
</event>
<event>
 7    1  0.5748623E-013  0.5052886E+02  0.7816164E-02  0.1300439E+00
        -11   -1    0    0    0    0  0.00000000000E+00  0.00000000000E+00  0.45593999997E+02  0.45594000000E+02  0.51100000000E-03 0.  1.
         11   -1    0    0    0    0 -0.00000000000E+00 -0.00000000000E+00 -0.45593999997E+02  0.45594000000E+02  0.51100000000E-03 0. -1.
    9900012    2    1    2    0    0  0.24142972734E+02 -0.25519510193E+02  0.20470403212E+02  0.50528856618E+02  0.29999990175E+02 0.  0.
         12    1    1    2    0    0 -0.24142972734E+02  0.25519510193E+02 -0.20470403212E+02  0.40659143382E+02  0.00000000000E+00 0. -1.
         11    1    3    3    0    0  0.61865183967E+01  0.17526729890E+01  0.81751452975E+01  0.10400859261E+02  0.51100000000E-03 0. -1.
        -11    1    3    3    0    0  0.81819502981E+01 -0.21223784392E+02 -0.72763108003E+00  0.22757916904E+02  0.51100000000E-03 0.  1.
        -12    1    3    3    0    0  0.97745040394E+01 -0.60483987909E+01  0.13022888994E+02  0.17370080452E+02  0.00000000000E+00 0.  1.
</event>
<event>
 7    1  0.5748623E-013  0.5052886E+02  0.7816164E-02  0.1300439E+00
        -11   -1    0    0    0    0  0.00000000000E+00  0.00000000000E+00  0.45593999997E+02  0.45594000000E+02  0.51100000000E-03 0.  1.
         11   -1    0    0    0    0 -0.00000000000E+00 -0.00000000000E+00 -0.45593999997E+02  0.45594000000E+02  0.51100000000E-03 0. -1.
    9900012    2    1    2    0    0  0.11835001869E+02 -0.28999819099E+02  0.25925058647E+02  0.50528862738E+02  0.30000008779E+02 0.  0.
         12    1    1    2    0    0 -0.11835001869E+02  0.28999819099E+02 -0.25925058647E+02  0.40659137262E+02  0.00000000000E+00 0. -1.
         11    1    3    3    0    0 -0.57720224963E+01 -0.20159039763E+02  0.11376261992E+02  0.23856287747E+02  0.51100000000E-03 0. -1.
        -11    1    3    3    0    0  0.10361739674E+02 -0.10517450011E+02  0.81645104020E+01  0.16871325798E+02  0.51100000000E-03 0.  1.
         12    1    3    3    0    0  0.72452846913E+01  0.16766706747E+01  0.63842862528E+01  0.98012491942E+01  0.00000000000E+00 0. -1.
</event>
<event>
 7    1  0.5748623E-013  0.5052886E+02  0.7816164E-02  0.1300439E+00
        -11   -1    0    0    0    0  0.00000000000E+00  0.00000000000E+00  0.45593999997E+02  0.45594000000E+02  0.51100000000E-03 0.  1.
         11   -1    0    0    0    0 -0.00000000000E+00 -0.00000000000E+00 -0.45593999997E+02  0.45594000000E+02  0.51100000000E-03 0. -1.
    9900012    2    1    2    0    0  0.44140561572E+01  0.34888659028E+02  0.20407434114E+02  0.50528858498E+02  0.29999995892E+02 0.  0.
         12    1    1    2    0    0 -0.44140561572E+01 -0.34888659028E+02 -0.20407434114E+02  0.40659141502E+02  0.00000000000E+00 0. -1.
         11    1    3    3    0    0 -0.23381350269E+01  0.25877787127E+01  0.10809577111E+02  0.11358275910E+02  0.51100000000E-03 0. -1.
        -11    1    3    3    0    0  0.41373427711E+01  0.51664258948E+01 -0.49559270988E+01  0.82686622498E+01  0.51100000000E-03 0.  1.
        -12    1    3    3    0    0  0.26148484130E+01  0.27134454420E+02  0.14553784102E+02  0.30901920338E+02  0.00000000000E+00 0.  1.
</event>
<event>
 7    1  0.5748623E-013  0.5052885E+02  0.7816164E-02  0.1300439E+00
        -11   -1    0    0    0    0  0.00000000000E+00  0.00000000000E+00  0.45593999997E+02  0.45594000000E+02  0.51100000000E-03 0.  1.
         11   -1    0    0    0    0 -0.00000000000E+00 -0.00000000000E+00 -0.45593999997E+02  0.45594000000E+02  0.51100000000E-03 0. -1.
    9900012    2    1    2    0    0 -0.33812511322E+02 -0.77500047939E+01  0.21208904334E+02  0.50528854420E+02  0.29999983496E+02 0.  0.
         12    1    1    2    0    0  0.33812511322E+02  0.77500047939E+01 -0.21208904334E+02  0.40659145580E+02  0.00000000000E+00 0. -1.
         11    1    3    3    0    0 -0.14497421045E+02  0.30504354290E+01 -0.38889123712E+01  0.15316788598E+02  0.51100000000E-03 0. -1.
        -11    1    3    3    0    0 -0.12509137999E+02 -0.11948648748E+02  0.20912860524E+02  0.27140310904E+02  0.51100000000E-03 0.  1.
         12    1    3    3    0    0 -0.68059522779E+01  0.11482085253E+01  0.41849561807E+01  0.80717549183E+01  0.00000000000E+00 0. -1.
</event>
<event>
 7    1  0.5748623E-013  0.5052886E+02  0.7816164E-02  0.1300439E+00
        -11   -1    0    0    0    0  0.00000000000E+00  0.00000000000E+00  0.45593999997E+02  0.45594000000E+02  0.51100000000E-03 0. -1.
         11   -1    0    0    0    0 -0.00000000000E+00 -0.00000000000E+00 -0.45593999997E+02  0.45594000000E+02  0.51100000000E-03 0.  1.
    9900012    2    1    2    0    0  0.37725919470E+02 -0.39030775726E+01 -0.14652199530E+02  0.50528856312E+02  0.29999989245E+02 0.  0.
         12    1    1    2    0    0 -0.37725919470E+02  0.39030775726E+01  0.14652199530E+02  0.40659143688E+02  0.00000000000E+00 0. -1.
         11    1    3    3    0    0  0.11585038280E+01  0.46244976206E+01 -0.87099757675E+01  0.99293397311E+01  0.51100000000E-03 0. -1.
        -11    1    3    3    0    0  0.32869547836E+02 -0.39772187211E+01 -0.13240301256E+01  0.33135758626E+02  0.51100000000E-03 0.  1.
        -12    1    3    3    0    0  0.36978678066E+01 -0.45503564721E+01 -0.46181936372E+01  0.74637579548E+01  0.00000000000E+00 0.  1.
</event>
<event>
 7    1  0.5748623E-013  0.5052886E+02  0.7816164E-02  0.1300439E+00
        -11   -1    0    0    0    0  0.00000000000E+00  0.00000000000E+00  0.45593999997E+02  0.45594000000E+02  0.51100000000E-03 0.  1.
         11   -1    0    0    0    0 -0.00000000000E+00 -0.00000000000E+00 -0.45593999997E+02  0.45594000000E+02  0.51100000000E-03 0. -1.
    9900012    2    1    2    0    0 -0.24754832732E+02 -0.32062363747E+01  0.32094916394E+02  0.50528863836E+02  0.30000012115E+02 0.  0.
         12    1    1    2    0    0  0.24754832732E+02  0.32062363747E+01 -0.32094916394E+02  0.40659136164E+02  0.00000000000E+00 0. -1.
         11    1    3    3    0    0 -0.12513641839E+02 -0.63098281000E+01 -0.14411979006E+01  0.14088371601E+02  0.51100000000E-03 0. -1.
        -11    1    3    3    0    0 -0.93223579234E+01  0.59928506345E+00  0.16361115533E+02  0.18840159277E+02  0.51100000000E-03 0.  1.
         12    1    3    3    0    0 -0.29188329699E+01  0.25043066618E+01  0.17174998762E+02  0.17600332958E+02  0.00000000000E+00 0. -1.
</event>
<event>
 7    1  0.5748623E-013  0.5052885E+02  0.7816164E-02  0.1300439E+00
        -11   -1    0    0    0    0  0.00000000000E+00  0.00000000000E+00  0.45593999997E+02  0.45594000000E+02  0.51100000000E-03 0.  1.
         11   -1    0    0    0    0 -0.00000000000E+00 -0.00000000000E+00 -0.45593999997E+02  0.45594000000E+02  0.51100000000E-03 0. -1.
    9900012    2    1    2    0    0 -0.38625864097E+02 -0.72614113493E+01  0.10415407062E+02  0.50528853719E+02  0.29999981365E+02 0.  0.
         12    1    1    2    0    0  0.38625864097E+02  0.72614113493E+01 -0.10415407062E+02  0.40659146281E+02  0.00000000000E+00 0. -1.
         11    1    3    3    0    0 -0.19372997093E+02 -0.16517752585E+01 -0.87851034342E+01  0.21335871683E+02  0.51100000000E-03 0. -1.
        -11    1    3    3    0    0 -0.67529933633E+01 -0.23160665468E+00  0.15968974393E+01  0.69431003666E+01  0.51100000000E-03 0.  1.
         12    1    3    3    0    0 -0.12499873641E+02 -0.53780294361E+01  0.17603613057E+02  0.22249881670E+02  0.00000000000E+00 0. -1.
</event>
<event>
 7    1  0.5748623E-013  0.5052888E+02  0.7816164E-02  0.1300439E+00
        -11   -1    0    0    0    0  0.00000000000E+00  0.00000000000E+00  0.45593999997E+02  0.45594000000E+02  0.51100000000E-03 0.  1.
         11   -1    0    0    0    0 -0.00000000000E+00 -0.00000000000E+00 -0.45593999997E+02  0.45594000000E+02  0.51100000000E-03 0. -1.
    9900012    2    1    2    0    0 -0.14798003289E+02  0.31825111278E+02  0.20526709769E+02  0.50528875279E+02  0.30000046897E+02 0.  0.
         12    1    1    2    0    0  0.14798003289E+02 -0.31825111278E+02 -0.20526709769E+02  0.40659124721E+02  0.00000000000E+00 0. -1.
         11    1    3    3    0    0 -0.16870653625E+01  0.70727947306E+00 -0.24059716330E+01  0.30224383452E+01  0.51100000000E-03 0. -1.
        -11    1    3    3    0    0  0.44556166850E+01  0.20473735036E+02  0.13321901725E+02  0.24829406199E+02  0.51100000000E-03 0.  1.
        -12    1    3    3    0    0 -0.17566554611E+02  0.10644096769E+02  0.96107796764E+01  0.22677030734E+02  0.00000000000E+00 0.  1.
</event>
<event>
 7    1  0.5748623E-013  0.5052886E+02  0.7816164E-02  0.1300439E+00
        -11   -1    0    0    0    0  0.00000000000E+00  0.00000000000E+00  0.45593999997E+02  0.45594000000E+02  0.51100000000E-03 0. -1.
         11   -1    0    0    0    0 -0.00000000000E+00 -0.00000000000E+00 -0.45593999997E+02  0.45594000000E+02  0.51100000000E-03 0.  1.
    9900012    2    1    2    0    0  0.23829362202E+02  0.18631564476E+02 -0.27169693105E+02  0.50528856856E+02  0.29999990900E+02 0.  0.
         12    1    1    2    0    0 -0.23829362202E+02 -0.18631564476E+02  0.27169693105E+02  0.40659143144E+02  0.00000000000E+00 0. -1.
         11    1    3    3    0    0  0.82355950018E+01 -0.46462910718E+01  0.16313615603E+01  0.95955399306E+01  0.51100000000E-03 0. -1.
        -11    1    3    3    0    0  0.78898944554E+01  0.11651144642E+02 -0.89643771364E+01  0.16684114112E+02  0.51100000000E-03 0.  1.
         12    1    3    3    0    0  0.77038727449E+01  0.11626710906E+02 -0.19836677528E+02  0.24249202814E+02  0.00000000000E+00 0. -1.
</event>
<event>
 7    1  0.5748623E-013  0.5052885E+02  0.7816164E-02  0.1300439E+00
        -11   -1    0    0    0    0  0.00000000000E+00  0.00000000000E+00  0.45593999997E+02  0.45594000000E+02  0.51100000000E-03 0.  1.
         11   -1    0    0    0    0 -0.00000000000E+00 -0.00000000000E+00 -0.45593999997E+02  0.45594000000E+02  0.51100000000E-03 0. -1.
    9900012    2    1    2    0    0 -0.30104918924E+02 -0.25747452650E+02  0.91612825639E+01  0.50528849005E+02  0.29999967036E+02 0.  0.
         12    1    1    2    0    0  0.30104918924E+02  0.25747452650E+02 -0.91612825639E+01  0.40659150995E+02  0.00000000000E+00 0. -1.
         11    1    3    3    0    0 -0.15179681472E+02  0.10638692281E+01  0.49342081519E+01  0.15996904627E+02  0.51100000000E-03 0. -1.
        -11    1    3    3    0    0 -0.17673426325E+02 -0.18859742352E+02  0.35926758771E+01  0.26094965029E+02  0.51100000000E-03 0.  1.
         12    1    3    3    0    0  0.27481888719E+01 -0.79515795255E+01  0.63439853489E+00  0.84369793485E+01  0.00000000000E+00 0. -1.
</event>
<event>
 7    1  0.5748623E-013  0.5052886E+02  0.7816164E-02  0.1300439E+00
        -11   -1    0    0    0    0  0.00000000000E+00  0.00000000000E+00  0.45593999997E+02  0.45594000000E+02  0.51100000000E-03 0. -1.
         11   -1    0    0    0    0 -0.00000000000E+00 -0.00000000000E+00 -0.45593999997E+02  0.45594000000E+02  0.51100000000E-03 0.  1.
    9900012    2    1    2    0    0 -0.27112711057E+02  0.29524379564E+02 -0.68101292583E+01  0.50528856502E+02  0.29999989823E+02 0.  0.
         12    1    1    2    0    0  0.27112711057E+02 -0.29524379564E+02  0.68101292583E+01  0.40659143498E+02  0.00000000000E+00 0. -1.
         11    1    3    3    0    0 -0.22978980804E+02  0.19064615017E+02 -0.13389147023E+02  0.32722505449E+02  0.51100000000E-03 0. -1.
        -11    1    3    3    0    0 -0.68578811231E+01  0.83671209444E+01  0.86004993171E+01  0.13820558424E+02  0.51100000000E-03 0.  1.
         12    1    3    3    0    0  0.27241508709E+01  0.20926436022E+01 -0.20214815521E+01  0.39857926287E+01  0.00000000000E+00 0. -1.
</event>
<event>
 7    1  0.5748623E-013  0.5052887E+02  0.7816164E-02  0.1300439E+00
        -11   -1    0    0    0    0  0.00000000000E+00  0.00000000000E+00  0.45593999997E+02  0.45594000000E+02  0.51100000000E-03 0.  1.
         11   -1    0    0    0    0 -0.00000000000E+00 -0.00000000000E+00 -0.45593999997E+02  0.45594000000E+02  0.51100000000E-03 0. -1.
    9900012    2    1    2    0    0 -0.24117687155E+02  0.19524482194E+02  0.26273497781E+02  0.50528869115E+02  0.30000028162E+02 0.  0.
         12    1    1    2    0    0  0.24117687155E+02 -0.19524482194E+02 -0.26273497781E+02  0.40659130885E+02  0.00000000000E+00 0. -1.
         11    1    3    3    0    0  0.20619749205E+01  0.23327921073E+01  0.73883787283E+01  0.80175931602E+01  0.51100000000E-03 0. -1.
        -11    1    3    3    0    0 -0.20131124416E+02  0.21902892481E+02  0.11585657723E+02  0.31925324343E+02  0.51100000000E-03 0.  1.
        -12    1    3    3    0    0 -0.60485376593E+01 -0.47112023940E+01  0.72994613297E+01  0.10585951611E+02  0.00000000000E+00 0.  1.
</event>
<event>
 7    1  0.5748623E-013  0.5052886E+02  0.7816164E-02  0.1300439E+00
        -11   -1    0    0    0    0  0.00000000000E+00  0.00000000000E+00  0.45593999997E+02  0.45594000000E+02  0.51100000000E-03 0.  1.
         11   -1    0    0    0    0 -0.00000000000E+00 -0.00000000000E+00 -0.45593999997E+02  0.45594000000E+02  0.51100000000E-03 0. -1.
    9900012    2    1    2    0    0  0.48068781959E+01 -0.38807607274E+02  0.11136841279E+02  0.50528859650E+02  0.29999999391E+02 0.  0.
         12    1    1    2    0    0 -0.48068781959E+01  0.38807607274E+02 -0.11136841279E+02  0.40659140350E+02  0.00000000000E+00 0. -1.
         11    1    3    3    0    0  0.78693717613E+01 -0.58320955028E+00 -0.35757439462E+01  0.86633186671E+01  0.51100000000E-03 0. -1.
        -11    1    3    3    0    0 -0.20026544825E+01 -0.18678733017E+02  0.11508424357E+02  0.22030649639E+02  0.51100000000E-03 0.  1.
         12    1    3    3    0    0 -0.10598390829E+01 -0.19545664707E+02  0.32041608687E+01  0.19834891343E+02  0.00000000000E+00 0. -1.
</event>
<event>
 7    1  0.5748623E-013  0.5052886E+02  0.7816164E-02  0.1300439E+00
        -11   -1    0    0    0    0  0.00000000000E+00  0.00000000000E+00  0.45593999997E+02  0.45594000000E+02  0.51100000000E-03 0. -1.
         11   -1    0    0    0    0 -0.00000000000E+00 -0.00000000000E+00 -0.45593999997E+02  0.45594000000E+02  0.51100000000E-03 0.  1.
    9900012    2    1    2    0    0 -0.25147809910E+02  0.20445800902E+00 -0.31948579291E+02  0.50528857546E+02  0.29999992998E+02 0.  0.
         12    1    1    2    0    0  0.25147809910E+02 -0.20445800902E+00  0.31948579291E+02  0.40659142454E+02  0.00000000000E+00 0. -1.
         11    1    3    3    0    0 -0.13376330401E+02 -0.17791805129E+01 -0.53350749992E+01  0.14510503913E+02  0.51100000000E-03 0.  1.
        -11    1    3    3    0    0  0.28234472660E+01  0.75332970787E+01 -0.54466012950E+01  0.97153427766E+01  0.51100000000E-03 0. -1.
        -12    1    3    3    0    0 -0.14594926775E+02 -0.55496585567E+01 -0.21166902997E+02  0.26303010857E+02  0.00000000000E+00 0.  1.
</event>
<event>
 7    1  0.5748623E-013  0.5052888E+02  0.7816164E-02  0.1300439E+00
        -11   -1    0    0    0    0  0.00000000000E+00  0.00000000000E+00  0.45593999997E+02  0.45594000000E+02  0.51100000000E-03 0. -1.
         11   -1    0    0    0    0 -0.00000000000E+00 -0.00000000000E+00 -0.45593999997E+02  0.45594000000E+02  0.51100000000E-03 0.  1.
    9900012    2    1    2    0    0  0.12819072720E+02 -0.37904091718E+02 -0.72191028337E+01  0.50528877530E+02  0.30000053739E+02 0.  0.
         12    1    1    2    0    0 -0.12819072720E+02  0.37904091718E+02  0.72191028337E+01  0.40659122470E+02  0.00000000000E+00 0. -1.
         11    1    3    3    0    0  0.23688850735E+01 -0.41524578154E+01  0.78830821136E+01  0.92194092149E+01  0.51100000000E-03 0. -1.
        -11    1    3    3    0    0  0.96228662830E+01 -0.30064690540E+02 -0.69486073000E+01  0.32322876055E+02  0.51100000000E-03 0.  1.
         12    1    3    3    0    0  0.82732136331E+00 -0.36869433620E+01 -0.81535776473E+01  0.89865922598E+01  0.00000000000E+00 0. -1.
</event>
<event>
 7    1  0.5748623E-013  0.5052887E+02  0.7816164E-02  0.1300439E+00
        -11   -1    0    0    0    0  0.00000000000E+00  0.00000000000E+00  0.45593999997E+02  0.45594000000E+02  0.51100000000E-03 0.  1.
         11   -1    0    0    0    0 -0.00000000000E+00 -0.00000000000E+00 -0.45593999997E+02  0.45594000000E+02  0.51100000000E-03 0. -1.
    9900012    2    1    2    0    0  0.37254143259E+02  0.72211720494E+01  0.14599588861E+02  0.50528874202E+02  0.30000043625E+02 0.  0.
         12    1    1    2    0    0 -0.37254143259E+02 -0.72211720494E+01 -0.14599588861E+02  0.40659125798E+02  0.00000000000E+00 0. -1.
         11    1    3    3    0    0  0.11119991748E+02 -0.27306861941E+01  0.19039449912E+01  0.11607578144E+02  0.51100000000E-03 0. -1.
        -11    1    3    3    0    0  0.18186297199E+02  0.12935954091E+02  0.18204685296E+02  0.28800883338E+02  0.51100000000E-03 0.  1.
        -12    1    3    3    0    0  0.79478543118E+01 -0.29840958472E+01 -0.55090414270E+01  0.10120412720E+02  0.00000000000E+00 0.  1.
</event>
<event>
 7    1  0.5748623E-013  0.5052886E+02  0.7816164E-02  0.1300439E+00
        -11   -1    0    0    0    0  0.00000000000E+00  0.00000000000E+00  0.45593999997E+02  0.45594000000E+02  0.51100000000E-03 0.  1.
         11   -1    0    0    0    0 -0.00000000000E+00 -0.00000000000E+00 -0.45593999997E+02  0.45594000000E+02  0.51100000000E-03 0. -1.
    9900012    2    1    2    0    0 -0.12744194703E+02  0.38175527567E+02 -0.57775701402E+01  0.50528859326E+02  0.29999998406E+02 0.  0.
         12    1    1    2    0    0  0.12744194703E+02 -0.38175527567E+02  0.57775701402E+01  0.40659140674E+02  0.00000000000E+00 0. -1.
         11    1    3    3    0    0  0.46235271416E+01  0.21031055327E+01 -0.63177098424E+01  0.81063872363E+01  0.51100000000E-03 0. -1.
        -11    1    3    3    0    0 -0.15455981616E+01  0.19209445650E+02 -0.46397333112E+00  0.19277109414E+02  0.51100000000E-03 0.  1.
         12    1    3    3    0    0 -0.15822123683E+02  0.16862976385E+02  0.10041130333E+01  0.23145362675E+02  0.00000000000E+00 0. -1.
</event>
<event>
 7    1  0.5748623E-013  0.5052886E+02  0.7816164E-02  0.1300439E+00
        -11   -1    0    0    0    0  0.00000000000E+00  0.00000000000E+00  0.45593999997E+02  0.45594000000E+02  0.51100000000E-03 0. -1.
         11   -1    0    0    0    0 -0.00000000000E+00 -0.00000000000E+00 -0.45593999997E+02  0.45594000000E+02  0.51100000000E-03 0.  1.
    9900012    2    1    2    0    0 -0.11382755611E+02 -0.33977006925E+02 -0.19213577913E+02  0.50528859563E+02  0.29999999128E+02 0.  0.
         12    1    1    2    0    0  0.11382755611E+02  0.33977006925E+02  0.19213577913E+02  0.40659140437E+02  0.00000000000E+00 0. -1.
         11    1    3    3    0    0 -0.15430952509E+02 -0.22590250197E+02 -0.20198825157E+02  0.34006267618E+02  0.51100000000E-03 0. -1.
        -11    1    3    3    0    0  0.58410089009E+01 -0.11372810974E+02 -0.20979012356E+01  0.12956056664E+02  0.51100000000E-03 0.  1.
         12    1    3    3    0    0 -0.17928120022E+01 -0.13945753501E-01  0.30831484798E+01  0.35665352806E+01  0.00000000000E+00 0. -1.
</event>
<event>
 7    1  0.5748623E-013  0.5052888E+02  0.7816164E-02  0.1300439E+00
        -11   -1    0    0    0    0  0.00000000000E+00  0.00000000000E+00  0.45593999997E+02  0.45594000000E+02  0.51100000000E-03 0.  1.
         11   -1    0    0    0    0 -0.00000000000E+00 -0.00000000000E+00 -0.45593999997E+02  0.45594000000E+02  0.51100000000E-03 0. -1.
    9900012    2    1    2    0    0  0.21947344678E+02  0.19498682734E+02  0.28129691236E+02  0.50528879304E+02  0.30000059132E+02 0.  0.
         12    1    1    2    0    0 -0.21947344678E+02 -0.19498682734E+02 -0.28129691236E+02  0.40659120696E+02  0.00000000000E+00 0. -1.
         11    1    3    3    0    0  0.59682405671E+01  0.40288770260E+01  0.36976835291E+01  0.80947272530E+01  0.51100000000E-03 0. -1.
        -11    1    3    3    0    0  0.53065220470E+01 -0.25533075560E+01 -0.40005411009E+01  0.71191913215E+01  0.51100000000E-03 0.  1.
        -12    1    3    3    0    0  0.10672582064E+02  0.18023113264E+02  0.28432548808E+02  0.35314960729E+02  0.00000000000E+00 0.  1.
</event>
<event>
 7    1  0.5748623E-013  0.5052886E+02  0.7816164E-02  0.1300439E+00
        -11   -1    0    0    0    0  0.00000000000E+00  0.00000000000E+00  0.45593999997E+02  0.45594000000E+02  0.51100000000E-03 0. -1.
         11   -1    0    0    0    0 -0.00000000000E+00 -0.00000000000E+00 -0.45593999997E+02  0.45594000000E+02  0.51100000000E-03 0.  1.
    9900012    2    1    2    0    0  0.38183813034E+02 -0.11623375662E+02  0.77497771550E+01  0.50528862213E+02  0.30000007183E+02 0.  0.
         12    1    1    2    0    0 -0.38183813034E+02  0.11623375662E+02 -0.77497771550E+01  0.40659137787E+02  0.00000000000E+00 0. -1.
         11    1    3    3    0    0  0.28500620933E+02 -0.18765129192E+01  0.11458166850E+02  0.30774929441E+02  0.51100000000E-03 0. -1.
        -11    1    3    3    0    0  0.11509876439E+02 -0.80968719210E+01 -0.69406720811E+01  0.15691064966E+02  0.51100000000E-03 0.  1.
         12    1    3    3    0    0 -0.18266843382E+01 -0.16499908222E+01  0.32322823864E+01  0.40628678061E+01  0.00000000000E+00 0. -1.
</event>
<event>
 7    1  0.5748623E-013  0.5052886E+02  0.7816164E-02  0.1300439E+00
        -11   -1    0    0    0    0  0.00000000000E+00  0.00000000000E+00  0.45593999997E+02  0.45594000000E+02  0.51100000000E-03 0.  1.
         11   -1    0    0    0    0 -0.00000000000E+00 -0.00000000000E+00 -0.45593999997E+02  0.45594000000E+02  0.51100000000E-03 0. -1.
    9900012    2    1    2    0    0  0.61015137747E+01  0.20605974337E+02  0.34515657817E+02  0.50528864702E+02  0.30000014747E+02 0.  0.
         12    1    1    2    0    0 -0.61015137747E+01 -0.20605974337E+02 -0.34515657817E+02  0.40659135298E+02  0.00000000000E+00 0. -1.
         11    1    3    3    0    0  0.99948954564E+01  0.17050910842E+02  0.34760347090E+02  0.39986413015E+02  0.51100000000E-03 0. -1.
        -11    1    3    3    0    0 -0.19917756512E+01  0.65196620740E+01  0.81193772988E+00  0.68653045775E+01  0.51100000000E-03 0.  1.
         12    1    3    3    0    0 -0.19016060305E+01 -0.29645985797E+01 -0.10566270037E+01  0.36771471087E+01  0.00000000000E+00 0. -1.
</event>
<event>
 7    1  0.5748623E-013  0.5052886E+02  0.7816164E-02  0.1300439E+00
        -11   -1    0    0    0    0  0.00000000000E+00  0.00000000000E+00  0.45593999997E+02  0.45594000000E+02  0.51100000000E-03 0. -1.
         11   -1    0    0    0    0 -0.00000000000E+00 -0.00000000000E+00 -0.45593999997E+02  0.45594000000E+02  0.51100000000E-03 0.  1.
    9900012    2    1    2    0    0 -0.39782825671E+02  0.20410727106E+01 -0.81440891384E+01  0.50528863461E+02  0.30000010977E+02 0.  0.
         12    1    1    2    0    0  0.39782825671E+02 -0.20410727106E+01  0.81440891384E+01  0.40659136539E+02  0.00000000000E+00 0. -1.
         11    1    3    3    0    0 -0.45435483167E+01  0.38662018028E+01  0.38580940670E+01  0.71046631009E+01  0.51100000000E-03 0. -1.
        -11    1    3    3    0    0 -0.29970693243E+02  0.54618846999E+01 -0.14984894428E+02  0.33950282756E+02  0.51100000000E-03 0.  1.
        -12    1    3    3    0    0 -0.52685841110E+01 -0.72870137921E+01  0.29827112223E+01  0.94739176045E+01  0.00000000000E+00 0.  1.
</event>
<event>
 7    1  0.5748623E-013  0.5052887E+02  0.7816164E-02  0.1300439E+00
        -11   -1    0    0    0    0  0.00000000000E+00  0.00000000000E+00  0.45593999997E+02  0.45594000000E+02  0.51100000000E-03 0. -1.
         11   -1    0    0    0    0 -0.00000000000E+00 -0.00000000000E+00 -0.45593999997E+02  0.45594000000E+02  0.51100000000E-03 0.  1.
    9900012    2    1    2    0    0 -0.82195274364E+01  0.16565462167E+02 -0.36210352692E+02  0.50528870519E+02  0.30000032431E+02 0.  0.
         12    1    1    2    0    0  0.82195274364E+01 -0.16565462167E+02  0.36210352692E+02  0.40659129481E+02  0.00000000000E+00 0. -1.
         11    1    3    3    0    0 -0.57325766315E+01 -0.32740537748E+01 -0.22641091826E+02  0.23583911938E+02  0.51100000000E-03 0. -1.
        -11    1    3    3    0    0 -0.92381271651E+00  0.13676422805E+02 -0.21503930189E+01  0.13875235532E+02  0.51100000000E-03 0.  1.
        -12    1    3    3    0    0 -0.15631380883E+01  0.61630931367E+01 -0.11418867847E+02  0.13069723050E+02  0.00000000000E+00 0.  1.
</event>
<event>
 7    1  0.5748623E-013  0.5052887E+02  0.7816164E-02  0.1300439E+00
        -11   -1    0    0    0    0  0.00000000000E+00  0.00000000000E+00  0.45593999997E+02  0.45594000000E+02  0.51100000000E-03 0. -1.
         11   -1    0    0    0    0 -0.00000000000E+00 -0.00000000000E+00 -0.45593999997E+02  0.45594000000E+02  0.51100000000E-03 0.  1.
    9900012    2    1    2    0    0 -0.31188772964E+02  0.24361426952E+02 -0.93244880206E+01  0.50528871148E+02  0.30000034341E+02 0.  0.
         12    1    1    2    0    0  0.31188772964E+02 -0.24361426952E+02  0.93244880206E+01  0.40659128852E+02  0.00000000000E+00 0. -1.
         11    1    3    3    0    0 -0.71082295825E+01  0.11363589639E+02  0.52886166745E+01  0.14409287417E+02  0.51100000000E-03 0. -1.
        -11    1    3    3    0    0 -0.12678685494E+02  0.12199194993E+02 -0.16974990377E+02  0.24448307158E+02  0.51100000000E-03 0.  1.
        -12    1    3    3    0    0 -0.11401857888E+02  0.79864232055E+00  0.23618856823E+01  0.11671276573E+02  0.00000000000E+00 0.  1.
</event>
<event>
 7    1  0.5748623E-013  0.5052885E+02  0.7816164E-02  0.1300439E+00
        -11   -1    0    0    0    0  0.00000000000E+00  0.00000000000E+00  0.45593999997E+02  0.45594000000E+02  0.51100000000E-03 0.  1.
         11   -1    0    0    0    0 -0.00000000000E+00 -0.00000000000E+00 -0.45593999997E+02  0.45594000000E+02  0.51100000000E-03 0. -1.
    9900012    2    1    2    0    0 -0.32898090071E+02 -0.22217542021E+02 -0.87899144125E+01  0.50528854668E+02  0.29999984249E+02 0.  0.
         12    1    1    2    0    0  0.32898090071E+02  0.22217542021E+02  0.87899144125E+01  0.40659145332E+02  0.00000000000E+00 0. -1.
         11    1    3    3    0    0 -0.10678121282E+02  0.46004005223E+01 -0.89490795750E+01  0.14672149964E+02  0.51100000000E-03 0. -1.
        -11    1    3    3    0    0 -0.22677905340E+02 -0.24899142934E+02  0.10435135897E+01  0.33694860592E+02  0.51100000000E-03 0.  1.
        -12    1    3    3    0    0  0.45793655080E+00 -0.19187996084E+01 -0.88434842722E+00  0.21618441115E+01  0.00000000000E+00 0.  1.
</event>
<event>
 7    1  0.5748623E-013  0.5052886E+02  0.7816164E-02  0.1300439E+00
        -11   -1    0    0    0    0  0.00000000000E+00  0.00000000000E+00  0.45593999997E+02  0.45594000000E+02  0.51100000000E-03 0.  1.
         11   -1    0    0    0    0 -0.00000000000E+00 -0.00000000000E+00 -0.45593999997E+02  0.45594000000E+02  0.51100000000E-03 0. -1.
    9900012    2    1    2    0    0  0.37984541876E+02 -0.10891374352E+02  0.95769526598E+01  0.50528862293E+02  0.30000007427E+02 0.  0.
         12    1    1    2    0    0 -0.37984541876E+02  0.10891374352E+02 -0.95769526598E+01  0.40659137707E+02  0.00000000000E+00 0. -1.
         11    1    3    3    0    0  0.10186409429E+02  0.46328628304E+01 -0.66612417463E+01  0.13022998768E+02  0.51100000000E-03 0. -1.
        -11    1    3    3    0    0  0.13290449128E+02 -0.10567529149E+02  0.29842476915E+01  0.17239908494E+02  0.51100000000E-03 0.  1.
         12    1    3    3    0    0  0.14507683319E+02 -0.49567080337E+01  0.13253946715E+02  0.20265955032E+02  0.00000000000E+00 0. -1.
</event>
<event>
 7    1  0.5748623E-013  0.5052892E+02  0.7816164E-02  0.1300439E+00
        -11   -1    0    0    0    0  0.00000000000E+00  0.00000000000E+00  0.45593999997E+02  0.45594000000E+02  0.51100000000E-03 0.  1.
         11   -1    0    0    0    0 -0.00000000000E+00 -0.00000000000E+00 -0.45593999997E+02  0.45594000000E+02  0.51100000000E-03 0. -1.
    9900012    2    1    2    0    0 -0.22036583422E+02 -0.19824734305E+02  0.27830371119E+02  0.50528921607E+02  0.30000187716E+02 0.  0.
         12    1    1    2    0    0  0.22036583422E+02  0.19824734305E+02 -0.27830371119E+02  0.40659078393E+02  0.00000000000E+00 0. -1.
         11    1    3    3    0    0 -0.81693557971E+01 -0.20491498494E+01 -0.13046615490E+01  0.85228828024E+01  0.51100000000E-03 0. -1.
        -11    1    3    3    0    0 -0.58172827438E+00 -0.57430084669E+01  0.21947957806E+02  0.22694347450E+02  0.51100000000E-03 0.  1.
        -12    1    3    3    0    0 -0.13285499350E+02 -0.12032575989E+02  0.71870748612E+01  0.19311691355E+02  0.00000000000E+00 0.  1.
</event>
<event>
 7    1  0.5748623E-013  0.5052886E+02  0.7816164E-02  0.1300439E+00
        -11   -1    0    0    0    0  0.00000000000E+00  0.00000000000E+00  0.45593999997E+02  0.45594000000E+02  0.51100000000E-03 0.  1.
         11   -1    0    0    0    0 -0.00000000000E+00 -0.00000000000E+00 -0.45593999997E+02  0.45594000000E+02  0.51100000000E-03 0. -1.
    9900012    2    1    2    0    0  0.19756430151E+02 -0.28514599281E+02 -0.21207706703E+02  0.50528859231E+02  0.29999998120E+02 0.  0.
         12    1    1    2    0    0 -0.19756430151E+02  0.28514599281E+02  0.21207706703E+02  0.40659140769E+02  0.00000000000E+00 0. -1.
         11    1    3    3    0    0 -0.44537835184E+01 -0.26536344932E+01 -0.91373302898E+01  0.10505654132E+02  0.51100000000E-03 0. -1.
        -11    1    3    3    0    0  0.23466067189E+02 -0.24977029899E+02 -0.72021040208E+01  0.35019689240E+02  0.51100000000E-03 0.  1.
        -12    1    3    3    0    0  0.74414648002E+00 -0.88393488859E+00 -0.48682723919E+01  0.50035158592E+01  0.00000000000E+00 0.  1.
</event>
<event>
 7    1  0.5748623E-013  0.5052881E+02  0.7816164E-02  0.1300439E+00
        -11   -1    0    0    0    0  0.00000000000E+00  0.00000000000E+00  0.45593999997E+02  0.45594000000E+02  0.51100000000E-03 0. -1.
         11   -1    0    0    0    0 -0.00000000000E+00 -0.00000000000E+00 -0.45593999997E+02  0.45594000000E+02  0.51100000000E-03 0.  1.
    9900012    2    1    2    0    0  0.19727359775E+02 -0.29358545769E+02 -0.20051848695E+02  0.50528811992E+02  0.29999854532E+02 0.  0.
         12    1    1    2    0    0 -0.19727359775E+02  0.29358545769E+02  0.20051848695E+02  0.40659188008E+02  0.00000000000E+00 0. -1.
         11    1    3    3    0    0 -0.19508976365E+01 -0.11242111565E+01 -0.37855996105E+01  0.44046131481E+01  0.51100000000E-03 0. -1.
        -11    1    3    3    0    0  0.12451784485E+02 -0.18529256650E+02  0.31421728234E+01  0.22544479129E+02  0.51100000000E-03 0.  1.
        -12    1    3    3    0    0  0.92264729266E+01 -0.97050779616E+01 -0.19408421908E+02  0.23579719716E+02  0.00000000000E+00 0.  1.
</event>
<event>
 7    1  0.5748623E-013  0.5052885E+02  0.7816164E-02  0.1300439E+00
        -11   -1    0    0    0    0  0.00000000000E+00  0.00000000000E+00  0.45593999997E+02  0.45594000000E+02  0.51100000000E-03 0.  1.
         11   -1    0    0    0    0 -0.00000000000E+00 -0.00000000000E+00 -0.45593999997E+02  0.45594000000E+02  0.51100000000E-03 0. -1.
    9900012    2    1    2    0    0  0.17271615697E+02  0.87498148386E+01  0.35753295234E+02  0.50528854798E+02  0.29999984644E+02 0.  0.
         12    1    1    2    0    0 -0.17271615697E+02 -0.87498148386E+01 -0.35753295234E+02  0.40659145202E+02  0.00000000000E+00 0. -1.
         11    1    3    3    0    0  0.50761915118E+01  0.13616126016E+01 -0.18984242382E+01  0.55879982096E+01  0.51100000000E-03 0. -1.
        -11    1    3    3    0    0  0.22069646935E+01  0.85226822069E+01  0.32448125835E+02  0.33621238461E+02  0.51100000000E-03 0.  1.
        -12    1    3    3    0    0  0.99884594916E+01 -0.11344799699E+01  0.52035936370E+01  0.11319618128E+02  0.00000000000E+00 0.  1.
</event>
<event>
 7    1  0.5748623E-013  0.5052886E+02  0.7816164E-02  0.1300439E+00
        -11   -1    0    0    0    0  0.00000000000E+00  0.00000000000E+00  0.45593999997E+02  0.45594000000E+02  0.51100000000E-03 0.  1.
         11   -1    0    0    0    0 -0.00000000000E+00 -0.00000000000E+00 -0.45593999997E+02  0.45594000000E+02  0.51100000000E-03 0. -1.
    9900012    2    1    2    0    0  0.16250433330E+02  0.27604288421E+02  0.25041811835E+02  0.50528860036E+02  0.30000000564E+02 0.  0.
         12    1    1    2    0    0 -0.16250433330E+02 -0.27604288421E+02 -0.25041811835E+02  0.40659139964E+02  0.00000000000E+00 0. -1.
         11    1    3    3    0    0  0.11564135343E+02  0.79598267120E+00  0.94351162934E+01  0.14946044104E+02  0.51100000000E-03 0. -1.
        -11    1    3    3    0    0 -0.51687604407E+01  0.12941599034E+02  0.26183951435E+01  0.14179459209E+02  0.51100000000E-03 0.  1.
        -12    1    3    3    0    0  0.98550584280E+01  0.13866706715E+02  0.12988300399E+02  0.21403356723E+02  0.00000000000E+00 0.  1.
</event>
<event>
 7    1  0.5748623E-013  0.5052887E+02  0.7816164E-02  0.1300439E+00
        -11   -1    0    0    0    0  0.00000000000E+00  0.00000000000E+00  0.45593999997E+02  0.45594000000E+02  0.51100000000E-03 0. -1.
         11   -1    0    0    0    0 -0.00000000000E+00 -0.00000000000E+00 -0.45593999997E+02  0.45594000000E+02  0.51100000000E-03 0.  1.
    9900012    2    1    2    0    0 -0.15255783132E+02 -0.25884751041E+02 -0.27393528764E+02  0.50528872198E+02  0.30000037534E+02 0.  0.
         12    1    1    2    0    0  0.15255783132E+02  0.25884751041E+02  0.27393528764E+02  0.40659127802E+02  0.00000000000E+00 0. -1.
         11    1    3    3    0    0 -0.60345194407E+01 -0.14916372523E+01  0.23698553958E+01  0.66525650264E+01  0.51100000000E-03 0. -1.
        -11    1    3    3    0    0  0.26281040628E+01 -0.13766879007E+02 -0.22201064789E+02  0.26254926520E+02  0.51100000000E-03 0.  1.
         12    1    3    3    0    0 -0.11849367754E+02 -0.10626234781E+02 -0.75623193713E+01  0.17621380652E+02  0.00000000000E+00 0. -1.
</event>
<event>
 7    1  0.5748623E-013  0.5052885E+02  0.7816164E-02  0.1300439E+00
        -11   -1    0    0    0    0  0.00000000000E+00  0.00000000000E+00  0.45593999997E+02  0.45594000000E+02  0.51100000000E-03 0. -1.
         11   -1    0    0    0    0 -0.00000000000E+00 -0.00000000000E+00 -0.45593999997E+02  0.45594000000E+02  0.51100000000E-03 0.  1.
    9900012    2    1    2    0    0 -0.35926041887E+02  0.53050827181E+00 -0.19031663151E+02  0.50528854325E+02  0.29999983207E+02 0.  0.
         12    1    1    2    0    0  0.35926041887E+02 -0.53050827181E+00  0.19031663151E+02  0.40659145675E+02  0.00000000000E+00 0. -1.
         11    1    3    3    0    0 -0.21806746466E+02 -0.65136743137E-01 -0.34186190720E+00  0.21809523242E+02  0.51100000000E-03 0. -1.
        -11    1    3    3    0    0 -0.10040598512E+02  0.68549327763E+01 -0.17261522386E+02  0.21113120972E+02  0.51100000000E-03 0.  1.
        -12    1    3    3    0    0 -0.40786969097E+01 -0.62592877613E+01 -0.14282788577E+01  0.76062101112E+01  0.00000000000E+00 0.  1.
</event>
<event>
 7    1  0.5748623E-013  0.5052885E+02  0.7816164E-02  0.1300439E+00
        -11   -1    0    0    0    0  0.00000000000E+00  0.00000000000E+00  0.45593999997E+02  0.45594000000E+02  0.51100000000E-03 0. -1.
         11   -1    0    0    0    0 -0.00000000000E+00 -0.00000000000E+00 -0.45593999997E+02  0.45594000000E+02  0.51100000000E-03 0.  1.
    9900012    2    1    2    0    0  0.11319017800E+02 -0.38490367534E+02  0.65983024329E+01  0.50528854020E+02  0.29999982278E+02 0.  0.
         12    1    1    2    0    0 -0.11319017800E+02  0.38490367534E+02 -0.65983024329E+01  0.40659145980E+02  0.00000000000E+00 0. -1.
         11    1    3    3    0    0  0.34041713666E+01 -0.23311227202E+01 -0.41025552740E+01  0.58183739882E+01  0.51100000000E-03 0. -1.
        -11    1    3    3    0    0  0.84848178100E+01 -0.39279941768E+02  0.93307099736E+01  0.41254916161E+02  0.51100000000E-03 0.  1.
        -12    1    3    3    0    0 -0.56997137637E+00  0.31206969545E+01  0.13701477333E+01  0.34555638704E+01  0.00000000000E+00 0.  1.
</event>
<event>
 7    1  0.5748623E-013  0.5052887E+02  0.7816164E-02  0.1300439E+00
        -11   -1    0    0    0    0  0.00000000000E+00  0.00000000000E+00  0.45593999997E+02  0.45594000000E+02  0.51100000000E-03 0.  1.
         11   -1    0    0    0    0 -0.00000000000E+00 -0.00000000000E+00 -0.45593999997E+02  0.45594000000E+02  0.51100000000E-03 0. -1.
    9900012    2    1    2    0    0  0.26926316529E+02  0.23939126721E+02  0.18842947885E+02  0.50528868246E+02  0.30000025520E+02 0.  0.
         12    1    1    2    0    0 -0.26926316529E+02 -0.23939126721E+02 -0.18842947885E+02  0.40659131754E+02  0.00000000000E+00 0. -1.
         11    1    3    3    0    0  0.20801736953E+02  0.22338448945E+02  0.12055655837E+02  0.32818552672E+02  0.51100000000E-03 0.  1.
        -11    1    3    3    0    0  0.53364082605E+01  0.19086805903E+01  0.11553957256E+02  0.12869119755E+02  0.51100000000E-03 0. -1.
         12    1    3    3    0    0  0.78817131586E+00 -0.30800281474E+00 -0.47666652081E+01  0.48411958196E+01  0.00000000000E+00 0. -1.
</event>
<event>
 7    1  0.5748623E-013  0.5052886E+02  0.7816164E-02  0.1300439E+00
        -11   -1    0    0    0    0  0.00000000000E+00  0.00000000000E+00  0.45593999997E+02  0.45594000000E+02  0.51100000000E-03 0. -1.
         11   -1    0    0    0    0 -0.00000000000E+00 -0.00000000000E+00 -0.45593999997E+02  0.45594000000E+02  0.51100000000E-03 0.  1.
    9900012    2    1    2    0    0 -0.24516369552E+02  0.28424506473E+02 -0.15625639001E+02  0.50528861563E+02  0.30000005207E+02 0.  0.
         12    1    1    2    0    0  0.24516369552E+02 -0.28424506473E+02  0.15625639001E+02  0.40659138437E+02  0.00000000000E+00 0. -1.
         11    1    3    3    0    0 -0.58258361508E+01  0.16644361508E+02  0.60930514358E+01  0.18657449261E+02  0.51100000000E-03 0. -1.
        -11    1    3    3    0    0 -0.19134831607E+02  0.12216218112E+02 -0.21189270310E+02  0.31054193632E+02  0.51100000000E-03 0.  1.
        -12    1    3    3    0    0  0.44429820583E+00 -0.43607314665E+00 -0.52942012693E+00  0.81721867069E+00  0.00000000000E+00 0.  1.
</event>
<event>
 7    1  0.5748623E-013  0.5052886E+02  0.7816164E-02  0.1300439E+00
        -11   -1    0    0    0    0  0.00000000000E+00  0.00000000000E+00  0.45593999997E+02  0.45594000000E+02  0.51100000000E-03 0.  1.
         11   -1    0    0    0    0 -0.00000000000E+00 -0.00000000000E+00 -0.45593999997E+02  0.45594000000E+02  0.51100000000E-03 0. -1.
    9900012    2    1    2    0    0  0.26562937692E+02 -0.30400443106E+02  0.48362005452E+01  0.50528862828E+02  0.30000009051E+02 0.  0.
         12    1    1    2    0    0 -0.26562937692E+02  0.30400443106E+02 -0.48362005452E+01  0.40659137172E+02  0.00000000000E+00 0. -1.
         11    1    3    3    0    0 -0.30094455543E+01 -0.82214424982E+00  0.49623611692E+01  0.58615452183E+01  0.51100000000E-03 0. -1.
        -11    1    3    3    0    0  0.26090939283E+02 -0.26604645257E+02  0.52216828344E+01  0.37627253870E+02  0.51100000000E-03 0.  1.
         12    1    3    3    0    0  0.34814439632E+01 -0.29736535989E+01 -0.53478434584E+01  0.70400637391E+01  0.00000000000E+00 0. -1.
</event>
<event>
 7    1  0.5748623E-013  0.5052886E+02  0.7816164E-02  0.1300439E+00
        -11   -1    0    0    0    0  0.00000000000E+00  0.00000000000E+00  0.45593999997E+02  0.45594000000E+02  0.51100000000E-03 0.  1.
         11   -1    0    0    0    0 -0.00000000000E+00 -0.00000000000E+00 -0.45593999997E+02  0.45594000000E+02  0.51100000000E-03 0. -1.
    9900012    2    1    2    0    0  0.23939811307E+02 -0.31701861459E+02  0.86627211706E+01  0.50528864207E+02  0.30000013244E+02 0.  0.
         12    1    1    2    0    0 -0.23939811307E+02  0.31701861459E+02 -0.86627211706E+01  0.40659135793E+02  0.00000000000E+00 0. -1.
         11    1    3    3    0    0  0.16430330858E+02 -0.23890134136E+02  0.13985542694E+02  0.32191453615E+02  0.51100000000E-03 0.  1.
        -11    1    3    3    0    0  0.18847633025E+00  0.35800059216E+01 -0.28325800228E+01  0.45689687647E+01  0.51100000000E-03 0. -1.
         12    1    3    3    0    0  0.73210041185E+01 -0.11391733244E+02 -0.24902415011E+01  0.13768441827E+02  0.00000000000E+00 0. -1.
</event>
<event>
 7    1  0.5748623E-013  0.5052886E+02  0.7816164E-02  0.1300439E+00
        -11   -1    0    0    0    0  0.00000000000E+00  0.00000000000E+00  0.45593999997E+02  0.45594000000E+02  0.51100000000E-03 0. -1.
         11   -1    0    0    0    0 -0.00000000000E+00 -0.00000000000E+00 -0.45593999997E+02  0.45594000000E+02  0.51100000000E-03 0.  1.
    9900012    2    1    2    0    0  0.24252024167E+02 -0.21482762946E+02 -0.24566158341E+02  0.50528856925E+02  0.29999991108E+02 0.  0.
         12    1    1    2    0    0 -0.24252024167E+02  0.21482762946E+02  0.24566158341E+02  0.40659143075E+02  0.00000000000E+00 0. -1.
         11    1    3    3    0    0  0.61592329207E+01 -0.14657474954E+02 -0.50594564100E+01  0.16684598336E+02  0.51100000000E-03 0. -1.
        -11    1    3    3    0    0  0.54547810459E+01  0.56645828616E+01 -0.12450447343E+02  0.14726023718E+02  0.51100000000E-03 0.  1.
        -12    1    3    3    0    0  0.12638010200E+02 -0.12489870853E+02 -0.70562545886E+01  0.19118234870E+02  0.00000000000E+00 0.  1.
</event>
<event>
 7    1  0.5748623E-013  0.5052886E+02  0.7816164E-02  0.1300439E+00
        -11   -1    0    0    0    0  0.00000000000E+00  0.00000000000E+00  0.45593999997E+02  0.45594000000E+02  0.51100000000E-03 0.  1.
         11   -1    0    0    0    0 -0.00000000000E+00 -0.00000000000E+00 -0.45593999997E+02  0.45594000000E+02  0.51100000000E-03 0. -1.
    9900012    2    1    2    0    0  0.34356395346E+02  0.94595083815E+00  0.21723472214E+02  0.50528856266E+02  0.29999989105E+02 0.  0.
         12    1    1    2    0    0 -0.34356395346E+02 -0.94595083815E+00 -0.21723472214E+02  0.40659143734E+02  0.00000000000E+00 0. -1.
         11    1    3    3    0    0 -0.13515711990E+01 -0.14731002070E+01  0.14162283199E+01  0.24499942532E+01  0.51100000000E-03 0. -1.
        -11    1    3    3    0    0  0.37803969225E+02  0.24855945391E+01  0.12346642270E+02  0.39846679222E+02  0.51100000000E-03 0.  1.
        -12    1    3    3    0    0 -0.20960026802E+01 -0.66543493977E-01  0.79606016244E+01  0.82321827904E+01  0.00000000000E+00 0.  1.
</event>
<event>
 7    1  0.5748623E-013  0.5052886E+02  0.7816164E-02  0.1300439E+00
        -11   -1    0    0    0    0  0.00000000000E+00  0.00000000000E+00  0.45593999997E+02  0.45594000000E+02  0.51100000000E-03 0. -1.
         11   -1    0    0    0    0 -0.00000000000E+00 -0.00000000000E+00 -0.45593999997E+02  0.45594000000E+02  0.51100000000E-03 0.  1.
    9900012    2    1    2    0    0  0.24069781224E+02 -0.21115703669E+02 -0.25058691277E+02  0.50528864272E+02  0.30000013442E+02 0.  0.
         12    1    1    2    0    0 -0.24069781224E+02  0.21115703669E+02  0.25058691277E+02  0.40659135728E+02  0.00000000000E+00 0. -1.
         11    1    3    3    0    0  0.53971799021E+01 -0.92745372889E+01  0.45223716340E+01  0.11644674245E+02  0.51100000000E-03 0. -1.
        -11    1    3    3    0    0  0.14865528517E+02 -0.49632321429E+01 -0.25737402520E+02  0.30133561026E+02  0.51100000000E-03 0.  1.
        -12    1    3    3    0    0  0.38070728052E+01 -0.68779342372E+01 -0.38436603911E+01  0.87506290013E+01  0.00000000000E+00 0.  1.
</event>
<event>
 7    1  0.5748623E-013  0.5052885E+02  0.7816164E-02  0.1300439E+00
        -11   -1    0    0    0    0  0.00000000000E+00  0.00000000000E+00  0.45593999997E+02  0.45594000000E+02  0.51100000000E-03 0.  1.
         11   -1    0    0    0    0 -0.00000000000E+00 -0.00000000000E+00 -0.45593999997E+02  0.45594000000E+02  0.51100000000E-03 0. -1.
    9900012    2    1    2    0    0 -0.79063790215E+01  0.12097386171E+02  0.38004063160E+02  0.50528850992E+02  0.29999973076E+02 0.  0.
         12    1    1    2    0    0  0.79063790215E+01 -0.12097386171E+02 -0.38004063160E+02  0.40659149008E+02  0.00000000000E+00 0. -1.
         11    1    3    3    0    0 -0.10815208565E+02  0.72844826605E+01  0.94744168156E+01  0.16118219448E+02  0.51100000000E-03 0. -1.
        -11    1    3    3    0    0  0.39541183175E+01  0.77071540902E+01  0.29835683836E+02  0.31067721289E+02  0.51100000000E-03 0.  1.
        -12    1    3    3    0    0 -0.10452887741E+01 -0.28942505800E+01 -0.13060374924E+01  0.33429102549E+01  0.00000000000E+00 0.  1.
</event>
<event>
 7    1  0.5748623E-013  0.5052885E+02  0.7816164E-02  0.1300439E+00
        -11   -1    0    0    0    0  0.00000000000E+00  0.00000000000E+00  0.45593999997E+02  0.45594000000E+02  0.51100000000E-03 0. -1.
         11   -1    0    0    0    0 -0.00000000000E+00 -0.00000000000E+00 -0.45593999997E+02  0.45594000000E+02  0.51100000000E-03 0.  1.
    9900012    2    1    2    0    0 -0.97355483196E+01  0.18177246808E+02 -0.35042447243E+02  0.50528852058E+02  0.29999976315E+02 0.  0.
         12    1    1    2    0    0  0.97355483196E+01 -0.18177246808E+02  0.35042447243E+02  0.40659147942E+02  0.00000000000E+00 0. -1.
         11    1    3    3    0    0 -0.52377018176E+01  0.66711639123E+01  0.11970107201E+01  0.85656747078E+01  0.51100000000E-03 0. -1.
        -11    1    3    3    0    0 -0.41868866129E+01 -0.18747508972E+01 -0.21788242485E+02  0.22265943081E+02  0.51100000000E-03 0.  1.
         12    1    3    3    0    0 -0.31095988900E+00  0.13380833793E+02 -0.14451215478E+02  0.19697234269E+02  0.00000000000E+00 0. -1.
</event>
<event>
 7    1  0.5748623E-013  0.5052886E+02  0.7816164E-02  0.1300439E+00
        -11   -1    0    0    0    0  0.00000000000E+00  0.00000000000E+00  0.45593999997E+02  0.45594000000E+02  0.51100000000E-03 0.  1.
         11   -1    0    0    0    0 -0.00000000000E+00 -0.00000000000E+00 -0.45593999997E+02  0.45594000000E+02  0.51100000000E-03 0. -1.
    9900012    2    1    2    0    0 -0.10272509271E+02  0.82263833386E+01  0.38470352918E+02  0.50528857324E+02  0.29999992321E+02 0.  0.
         12    1    1    2    0    0  0.10272509271E+02 -0.82263833386E+01 -0.38470352918E+02  0.40659142676E+02  0.00000000000E+00 0. -1.
         11    1    3    3    0    0  0.33942333123E+01  0.12894027706E+02  0.12773892455E+02  0.18464807039E+02  0.51100000000E-03 0. -1.
        -11    1    3    3    0    0 -0.11596055849E+02 -0.27715010311E+01  0.85061650865E+01  0.14645974667E+02  0.51100000000E-03 0.  1.
         12    1    3    3    0    0 -0.20706867349E+01 -0.18961433367E+01  0.17190295376E+02  0.17418075618E+02  0.00000000000E+00 0. -1.
</event>
<event>
 7    1  0.5748623E-013  0.5052885E+02  0.7816164E-02  0.1300439E+00
        -11   -1    0    0    0    0  0.00000000000E+00  0.00000000000E+00  0.45593999997E+02  0.45594000000E+02  0.51100000000E-03 0.  1.
         11   -1    0    0    0    0 -0.00000000000E+00 -0.00000000000E+00 -0.45593999997E+02  0.45594000000E+02  0.51100000000E-03 0. -1.
    9900012    2    1    2    0    0 -0.19772359798E+02 -0.79377888196E+00  0.35518865857E+02  0.50528854305E+02  0.29999983144E+02 0.  0.
         12    1    1    2    0    0  0.19772359798E+02  0.79377888196E+00 -0.35518865857E+02  0.40659145695E+02  0.00000000000E+00 0. -1.
         11    1    3    3    0    0 -0.88852861187E+01 -0.14093962907E+02  0.24303985486E+02  0.29466452291E+02  0.51100000000E-03 0. -1.
        -11    1    3    3    0    0 -0.85656468907E+01  0.68406427638E+01  0.70644142696E+01  0.13041113806E+02  0.51100000000E-03 0.  1.
         12    1    3    3    0    0 -0.23214267886E+01  0.64595412616E+01  0.41504661019E+01  0.80212882075E+01  0.00000000000E+00 0. -1.
</event>
<event>
 7    1  0.5748623E-013  0.5052886E+02  0.7816164E-02  0.1300439E+00
        -11   -1    0    0    0    0  0.00000000000E+00  0.00000000000E+00  0.45593999997E+02  0.45594000000E+02  0.51100000000E-03 0. -1.
         11   -1    0    0    0    0 -0.00000000000E+00 -0.00000000000E+00 -0.45593999997E+02  0.45594000000E+02  0.51100000000E-03 0.  1.
    9900012    2    1    2    0    0  0.15585792865E+02  0.35622219567E+02 -0.11887233463E+02  0.50528858525E+02  0.29999995972E+02 0.  0.
         12    1    1    2    0    0 -0.15585792865E+02 -0.35622219567E+02  0.11887233463E+02  0.40659141475E+02  0.00000000000E+00 0. -1.
         11    1    3    3    0    0  0.20167620840E+02  0.19535969297E+02 -0.13757426887E+02  0.31267456269E+02  0.51100000000E-03 0. -1.
        -11    1    3    3    0    0 -0.67786819856E+00  0.11890543252E+01 -0.28436383815E+01  0.31558889379E+01  0.51100000000E-03 0.  1.
         12    1    3    3    0    0 -0.39039597765E+01  0.14897195945E+02  0.47138318050E+01  0.16105513318E+02  0.00000000000E+00 0. -1.
</event>
<event>
 7    1  0.5748623E-013  0.5052887E+02  0.7816164E-02  0.1300439E+00
        -11   -1    0    0    0    0  0.00000000000E+00  0.00000000000E+00  0.45593999997E+02  0.45594000000E+02  0.51100000000E-03 0. -1.
         11   -1    0    0    0    0 -0.00000000000E+00 -0.00000000000E+00 -0.45593999997E+02  0.45594000000E+02  0.51100000000E-03 0.  1.
    9900012    2    1    2    0    0 -0.29567807261E+02  0.10922354479E+01 -0.27887569498E+02  0.50528871419E+02  0.30000035164E+02 0.  0.
         12    1    1    2    0    0  0.29567807261E+02 -0.10922354479E+01  0.27887569498E+02  0.40659128581E+02  0.00000000000E+00 0. -1.
         11    1    3    3    0    0 -0.90313819373E+01 -0.22783354977E+01 -0.19404644661E+00  0.93163472790E+01  0.51100000000E-03 0. -1.
        -11    1    3    3    0    0 -0.10425619455E+02  0.12322870194E+02 -0.19889666889E+02  0.25615337594E+02  0.51100000000E-03 0.  1.
        -12    1    3    3    0    0 -0.10110805869E+02 -0.89522992482E+01 -0.78038561626E+01  0.15597186546E+02  0.00000000000E+00 0.  1.
</event>
<event>
 7    1  0.5748623E-013  0.5052885E+02  0.7816164E-02  0.1300439E+00
        -11   -1    0    0    0    0  0.00000000000E+00  0.00000000000E+00  0.45593999997E+02  0.45594000000E+02  0.51100000000E-03 0.  1.
         11   -1    0    0    0    0 -0.00000000000E+00 -0.00000000000E+00 -0.45593999997E+02  0.45594000000E+02  0.51100000000E-03 0. -1.
    9900012    2    1    2    0    0  0.19300019951E+01  0.74574098959E+01  0.39922778015E+02  0.50528854971E+02  0.29999985169E+02 0.  0.
         12    1    1    2    0    0 -0.19300019951E+01 -0.74574098959E+01 -0.39922778015E+02  0.40659145029E+02  0.00000000000E+00 0. -1.
         11    1    3    3    0    0  0.19765208936E+01 -0.86067989226E+01  0.21730571794E+02  0.23456371700E+02  0.51100000000E-03 0. -1.
        -11    1    3    3    0    0  0.21373713095E+00  0.10935981135E+02  0.18951801343E+02  0.21881776467E+02  0.51100000000E-03 0.  1.
         12    1    3    3    0    0 -0.26025602942E+00  0.51282276833E+01 -0.75959512268E+00  0.51907068038E+01  0.00000000000E+00 0. -1.
</event>
<event>
 7    1  0.5748623E-013  0.5052885E+02  0.7816164E-02  0.1300439E+00
        -11   -1    0    0    0    0  0.00000000000E+00  0.00000000000E+00  0.45593999997E+02  0.45594000000E+02  0.51100000000E-03 0.  1.
         11   -1    0    0    0    0 -0.00000000000E+00 -0.00000000000E+00 -0.45593999997E+02  0.45594000000E+02  0.51100000000E-03 0. -1.
    9900012    2    1    2    0    0  0.26772205773E+02  0.29278587418E+02 -0.88982833416E+01  0.50528854293E+02  0.29999983110E+02 0.  0.
         12    1    1    2    0    0 -0.26772205773E+02 -0.29278587418E+02  0.88982833416E+01  0.40659145707E+02  0.00000000000E+00 0. -1.
         11    1    3    3    0    0  0.20707912363E+02  0.23232526741E+02 -0.12290307283E+02  0.33460717066E+02  0.51100000000E-03 0. -1.
        -11    1    3    3    0    0  0.96307602807E+01  0.14316411540E-01  0.28320718072E+01  0.10038544692E+02  0.51100000000E-03 0.  1.
         12    1    3    3    0    0 -0.35664668707E+01  0.60317442656E+01  0.55995213402E+00  0.70295925357E+01  0.00000000000E+00 0. -1.
</event>
<event>
 7    1  0.5748623E-013  0.5052887E+02  0.7816164E-02  0.1300439E+00
        -11   -1    0    0    0    0  0.00000000000E+00  0.00000000000E+00  0.45593999997E+02  0.45594000000E+02  0.51100000000E-03 0.  1.
         11   -1    0    0    0    0 -0.00000000000E+00 -0.00000000000E+00 -0.45593999997E+02  0.45594000000E+02  0.51100000000E-03 0. -1.
    9900012    2    1    2    0    0  0.21333684393E+02 -0.46699959223E+01  0.34296210854E+02  0.50528867808E+02  0.30000024188E+02 0.  0.
         12    1    1    2    0    0 -0.21333684393E+02  0.46699959223E+01 -0.34296210854E+02  0.40659132192E+02  0.00000000000E+00 0. -1.
         11    1    3    3    0    0  0.17348470817E+02 -0.10054173121E+02  0.60377188849E+01  0.20940627652E+02  0.51100000000E-03 0. -1.
        -11    1    3    3    0    0  0.12989765235E+01  0.58861791895E+01  0.20084383518E+02  0.20969427913E+02  0.51100000000E-03 0.  1.
         12    1    3    3    0    0  0.26862370521E+01 -0.50200199037E+00  0.81741084514E+01  0.86188122426E+01  0.00000000000E+00 0. -1.
</event>
<event>
 7    1  0.5748623E-013  0.5052885E+02  0.7816164E-02  0.1300439E+00
        -11   -1    0    0    0    0  0.00000000000E+00  0.00000000000E+00  0.45593999997E+02  0.45594000000E+02  0.51100000000E-03 0.  1.
         11   -1    0    0    0    0 -0.00000000000E+00 -0.00000000000E+00 -0.45593999997E+02  0.45594000000E+02  0.51100000000E-03 0. -1.
    9900012    2    1    2    0    0  0.11902484192E+02  0.29051541021E+02  0.25836119795E+02  0.50528852792E+02  0.29999978546E+02 0.  0.
         12    1    1    2    0    0 -0.11902484192E+02 -0.29051541021E+02 -0.25836119795E+02  0.40659147208E+02  0.00000000000E+00 0. -1.
         11    1    3    3    0    0 -0.58085272786E+01  0.37784898549E+01 -0.16732493353E+01  0.71285158574E+01  0.51100000000E-03 0. -1.
        -11    1    3    3    0    0  0.17030377760E+02  0.13583917893E+02  0.19256318244E+02  0.29075116243E+02  0.51100000000E-03 0.  1.
        -12    1    3    3    0    0  0.68063371079E+00  0.11689133273E+02  0.82530508862E+01  0.14325220691E+02  0.00000000000E+00 0.  1.
</event>
<event>
 7    1  0.5748623E-013  0.5052883E+02  0.7816164E-02  0.1300439E+00
        -11   -1    0    0    0    0  0.00000000000E+00  0.00000000000E+00  0.45593999997E+02  0.45594000000E+02  0.51100000000E-03 0. -1.
         11   -1    0    0    0    0 -0.00000000000E+00 -0.00000000000E+00 -0.45593999997E+02  0.45594000000E+02  0.51100000000E-03 0.  1.
    9900012    2    1    2    0    0 -0.82514476939E+00  0.30121328674E+02 -0.27298227122E+02  0.50528825033E+02  0.29999894170E+02 0.  0.
         12    1    1    2    0    0  0.82514476939E+00 -0.30121328674E+02  0.27298227122E+02  0.40659174967E+02  0.00000000000E+00 0. -1.
         11    1    3    3    0    0 -0.85793620827E+01  0.63622138715E+01  0.21982859230E+01  0.10904846645E+02  0.51100000000E-03 0. -1.
        -11    1    3    3    0    0  0.21185004503E+01  0.12682388286E+02 -0.91475961020E+01  0.15780035852E+02  0.51100000000E-03 0.  1.
         12    1    3    3    0    0  0.56357168630E+01  0.11076726517E+02 -0.20348916943E+02  0.23843942536E+02  0.00000000000E+00 0. -1.
</event>
<event>
 7    1  0.5748623E-013  0.5052886E+02  0.7816164E-02  0.1300439E+00
        -11   -1    0    0    0    0  0.00000000000E+00  0.00000000000E+00  0.45593999997E+02  0.45594000000E+02  0.51100000000E-03 0. -1.
         11   -1    0    0    0    0 -0.00000000000E+00 -0.00000000000E+00 -0.45593999997E+02  0.45594000000E+02  0.51100000000E-03 0.  1.
    9900012    2    1    2    0    0  0.10687439371E+01  0.32939954362E+02 -0.23811400011E+02  0.50528861084E+02  0.30000003750E+02 0.  0.
         12    1    1    2    0    0 -0.10687439371E+01 -0.32939954362E+02  0.23811400011E+02  0.40659138916E+02  0.00000000000E+00 0. -1.
         11    1    3    3    0    0  0.74240005738E+01  0.39672947232E+01  0.22500621154E+01  0.87130931204E+01  0.51100000000E-03 0. -1.
        -11    1    3    3    0    0 -0.10657607022E+02  0.22787566248E+02 -0.19613245366E+02  0.31898858239E+02  0.51100000000E-03 0.  1.
         12    1    3    3    0    0  0.43023503849E+01  0.61850933907E+01 -0.64482167603E+01  0.99169097240E+01  0.00000000000E+00 0. -1.
</event>
<event>
 7    1  0.5748623E-013  0.5052886E+02  0.7816164E-02  0.1300439E+00
        -11   -1    0    0    0    0  0.00000000000E+00  0.00000000000E+00  0.45593999997E+02  0.45594000000E+02  0.51100000000E-03 0.  1.
         11   -1    0    0    0    0 -0.00000000000E+00 -0.00000000000E+00 -0.45593999997E+02  0.45594000000E+02  0.51100000000E-03 0. -1.
    9900012    2    1    2    0    0  0.27821093406E+02  0.16843964296E+01  0.29602616788E+02  0.50528863876E+02  0.30000012239E+02 0.  0.
         12    1    1    2    0    0 -0.27821093406E+02 -0.16843964296E+01 -0.29602616788E+02  0.40659136124E+02  0.00000000000E+00 0. -1.
         11    1    3    3    0    0  0.27862464351E+02  0.28163244846E+01  0.21311975504E+02  0.35191602741E+02  0.51100000000E-03 0. -1.
        -11    1    3    3    0    0 -0.26019909920E+01 -0.15408363065E+00  0.11106125000E+02  0.11407896899E+02  0.51100000000E-03 0.  1.
        -12    1    3    3    0    0  0.25606200462E+01 -0.97784442437E+00 -0.28154837165E+01  0.39293642357E+01  0.00000000000E+00 0.  1.
</event>
<event>
 7    1  0.5748623E-013  0.5052886E+02  0.7816164E-02  0.1300439E+00
        -11   -1    0    0    0    0  0.00000000000E+00  0.00000000000E+00  0.45593999997E+02  0.45594000000E+02  0.51100000000E-03 0.  1.
         11   -1    0    0    0    0 -0.00000000000E+00 -0.00000000000E+00 -0.45593999997E+02  0.45594000000E+02  0.51100000000E-03 0. -1.
    9900012    2    1    2    0    0 -0.39040915061E+02  0.66626419766E+01 -0.91968401339E+01  0.50528859388E+02  0.29999998594E+02 0.  0.
         12    1    1    2    0    0  0.39040915061E+02 -0.66626419766E+01  0.91968401339E+01  0.40659140612E+02  0.00000000000E+00 0. -1.
         11    1    3    3    0    0 -0.16022772730E+02  0.12372914116E+02 -0.14536864037E+02  0.24922653670E+02  0.51100000000E-03 0. -1.
        -11    1    3    3    0    0 -0.20416262262E+02 -0.39363840052E+01  0.71338843944E+01  0.21982065203E+02  0.51100000000E-03 0.  1.
         12    1    3    3    0    0 -0.26018800696E+01 -0.17738881338E+01 -0.17938604911E+01  0.36241405146E+01  0.00000000000E+00 0. -1.
</event>
<event>
 7    1  0.5748623E-013  0.5052884E+02  0.7816164E-02  0.1300439E+00
        -11   -1    0    0    0    0  0.00000000000E+00  0.00000000000E+00  0.45593999997E+02  0.45594000000E+02  0.51100000000E-03 0. -1.
         11   -1    0    0    0    0 -0.00000000000E+00 -0.00000000000E+00 -0.45593999997E+02  0.45594000000E+02  0.51100000000E-03 0.  1.
    9900012    2    1    2    0    0  0.36391447086E+02  0.13306294084E+02  0.12319587354E+02  0.50528842165E+02  0.29999946244E+02 0.  0.
         12    1    1    2    0    0 -0.36391447086E+02 -0.13306294084E+02 -0.12319587354E+02  0.40659157835E+02  0.00000000000E+00 0. -1.
         11    1    3    3    0    0  0.28914063321E+02  0.82441031127E+01  0.10567093763E+02  0.31869291876E+02  0.51100000000E-03 0.  1.
        -11    1    3    3    0    0 -0.33034237477E+01 -0.30939817004E+01  0.24049621370E+01  0.51253462674E+01  0.51100000000E-03 0. -1.
         12    1    3    3    0    0  0.10780807513E+02  0.81561726713E+01 -0.65246854551E+00  0.13534204021E+02  0.00000000000E+00 0. -1.
</event>
<event>
 7    1  0.5748623E-013  0.5052887E+02  0.7816164E-02  0.1300439E+00
        -11   -1    0    0    0    0  0.00000000000E+00  0.00000000000E+00  0.45593999997E+02  0.45594000000E+02  0.51100000000E-03 0.  1.
         11   -1    0    0    0    0 -0.00000000000E+00 -0.00000000000E+00 -0.45593999997E+02  0.45594000000E+02  0.51100000000E-03 0. -1.
    9900012    2    1    2    0    0  0.19536880053E+01 -0.13680516419E+02  0.38238609066E+02  0.50528872494E+02  0.30000038432E+02 0.  0.
         12    1    1    2    0    0 -0.19536880053E+01  0.13680516419E+02 -0.38238609066E+02  0.40659127506E+02  0.00000000000E+00 0. -1.
         11    1    3    3    0    0  0.14038799147E+02 -0.86254729153E+01  0.23410654702E+02  0.28627703686E+02  0.51100000000E-03 0. -1.
        -11    1    3    3    0    0 -0.84438871527E+01 -0.64005383970E+01  0.14563856347E+02  0.18010331313E+02  0.51100000000E-03 0.  1.
         12    1    3    3    0    0 -0.36412239891E+01  0.13454948934E+01  0.26409801577E+00  0.38908374946E+01  0.00000000000E+00 0. -1.
</event>
<event>
 7    1  0.5748623E-013  0.5052886E+02  0.7816164E-02  0.1300439E+00
        -11   -1    0    0    0    0  0.00000000000E+00  0.00000000000E+00  0.45593999997E+02  0.45594000000E+02  0.51100000000E-03 0.  1.
         11   -1    0    0    0    0 -0.00000000000E+00 -0.00000000000E+00 -0.45593999997E+02  0.45594000000E+02  0.51100000000E-03 0. -1.
    9900012    2    1    2    0    0 -0.36460646655E+01  0.30448223542E+02  0.26697901339E+02  0.50528855391E+02  0.29999986447E+02 0.  0.
         12    1    1    2    0    0  0.36460646655E+01 -0.30448223542E+02 -0.26697901339E+02  0.40659144609E+02  0.00000000000E+00 0. -1.
         11    1    3    3    0    0 -0.17804633147E+00  0.40028771225E+01 -0.65899164474E+01  0.77124396139E+01  0.51100000000E-03 0. -1.
        -11    1    3    3    0    0 -0.35653985276E+01  0.16015603362E+02  0.18610801754E+02  0.24810754924E+02  0.51100000000E-03 0.  1.
        -12    1    3    3    0    0  0.97380193632E-01  0.10429743058E+02  0.14677016032E+02  0.18005660853E+02  0.00000000000E+00 0.  1.
</event>
<event>
 7    1  0.5748623E-013  0.5052886E+02  0.7816164E-02  0.1300439E+00
        -11   -1    0    0    0    0  0.00000000000E+00  0.00000000000E+00  0.45593999997E+02  0.45594000000E+02  0.51100000000E-03 0.  1.
         11   -1    0    0    0    0 -0.00000000000E+00 -0.00000000000E+00 -0.45593999997E+02  0.45594000000E+02  0.51100000000E-03 0. -1.
    9900012    2    1    2    0    0 -0.25941553277E+02  0.15199469215E+02  0.27371111656E+02  0.50528858295E+02  0.29999995275E+02 0.  0.
         12    1    1    2    0    0  0.25941553277E+02 -0.15199469215E+02 -0.27371111656E+02  0.40659141705E+02  0.00000000000E+00 0. -1.
         11    1    3    3    0    0  0.32504229159E+00 -0.24018943766E+01  0.11751498153E+02  0.11998852370E+02  0.51100000000E-03 0. -1.
        -11    1    3    3    0    0 -0.24074046297E+02  0.84615136893E+01  0.91032665501E+01  0.27092921238E+02  0.51100000000E-03 0.  1.
         12    1    3    3    0    0 -0.21925492715E+01  0.91398499025E+01  0.65163469528E+01  0.11437084688E+02  0.00000000000E+00 0. -1.
</event>
<event>
 7    1  0.5748623E-013  0.5052886E+02  0.7816164E-02  0.1300439E+00
        -11   -1    0    0    0    0  0.00000000000E+00  0.00000000000E+00  0.45593999997E+02  0.45594000000E+02  0.51100000000E-03 0.  1.
         11   -1    0    0    0    0 -0.00000000000E+00 -0.00000000000E+00 -0.45593999997E+02  0.45594000000E+02  0.51100000000E-03 0. -1.
    9900012    2    1    2    0    0 -0.12697248020E+02  0.22989191174E+02  0.31039370823E+02  0.50528861307E+02  0.30000004430E+02 0.  0.
         12    1    1    2    0    0  0.12697248020E+02 -0.22989191174E+02 -0.31039370823E+02  0.40659138693E+02  0.00000000000E+00 0. -1.
         11    1    3    3    0    0 -0.91649170810E+01  0.88367267706E+00  0.13440556657E+01  0.93050023318E+01  0.51100000000E-03 0. -1.
        -11    1    3    3    0    0 -0.10299375926E+02  0.16937530805E+02  0.23193419528E+02  0.30510519561E+02  0.51100000000E-03 0.  1.
         12    1    3    3    0    0  0.67670449865E+01  0.51679876927E+01  0.65018956294E+01  0.10713339415E+02  0.00000000000E+00 0. -1.
</event>
<event>
 7    1  0.5748623E-013  0.5052886E+02  0.7816164E-02  0.1300439E+00
        -11   -1    0    0    0    0  0.00000000000E+00  0.00000000000E+00  0.45593999997E+02  0.45594000000E+02  0.51100000000E-03 0. -1.
         11   -1    0    0    0    0 -0.00000000000E+00 -0.00000000000E+00 -0.45593999997E+02  0.45594000000E+02  0.51100000000E-03 0.  1.
    9900012    2    1    2    0    0  0.18427516621E+02 -0.33175789187E+02  0.14593115025E+02  0.50528863719E+02  0.30000011760E+02 0.  0.
         12    1    1    2    0    0 -0.18427516621E+02  0.33175789187E+02 -0.14593115025E+02  0.40659136281E+02  0.00000000000E+00 0. -1.
         11    1    3    3    0    0 -0.33742708467E+01  0.15888856124E+01  0.17043993647E+00  0.37335387060E+01  0.51100000000E-03 0. -1.
        -11    1    3    3    0    0  0.12358013498E+02 -0.26265386617E+02  0.21119016826E+01  0.29104143360E+02  0.51100000000E-03 0.  1.
        -12    1    3    3    0    0  0.94437739700E+01 -0.84992881821E+01  0.12310773406E+02  0.17691181652E+02  0.00000000000E+00 0.  1.
</event>
<event>
 7    1  0.5748623E-013  0.5052874E+02  0.7816164E-02  0.1300439E+00
        -11   -1    0    0    0    0  0.00000000000E+00  0.00000000000E+00  0.45593999997E+02  0.45594000000E+02  0.51100000000E-03 0.  1.
         11   -1    0    0    0    0 -0.00000000000E+00 -0.00000000000E+00 -0.45593999997E+02  0.45594000000E+02  0.51100000000E-03 0. -1.
    9900012    2    1    2    0    0  0.32274754017E+02 -0.22782978695E+02 -0.96151570606E+01  0.50528743854E+02  0.29999647415E+02 0.  0.
         12    1    1    2    0    0 -0.32274754017E+02  0.22782978695E+02  0.96151570606E+01  0.40659256146E+02  0.00000000000E+00 0. -1.
         11    1    3    3    0    0  0.99144512672E+01 -0.51267015958E+01 -0.11060304281E+02  0.15713361965E+02  0.51100000000E-03 0. -1.
        -11    1    3    3    0    0  0.14704171445E+02 -0.69731102494E+01  0.10030328474E+02  0.19116600482E+02  0.51100000000E-03 0.  1.
        -12    1    3    3    0    0  0.76561313053E+01 -0.10683166849E+02 -0.85851812535E+01  0.15698781407E+02  0.00000000000E+00 0.  1.
</event>
<event>
 7    1  0.5748623E-013  0.5052886E+02  0.7816164E-02  0.1300439E+00
        -11   -1    0    0    0    0  0.00000000000E+00  0.00000000000E+00  0.45593999997E+02  0.45594000000E+02  0.51100000000E-03 0. -1.
         11   -1    0    0    0    0 -0.00000000000E+00 -0.00000000000E+00 -0.45593999997E+02  0.45594000000E+02  0.51100000000E-03 0.  1.
    9900012    2    1    2    0    0 -0.81067077511E+01  0.34376850632E+02 -0.20141473815E+02  0.50528861576E+02  0.30000005246E+02 0.  0.
         12    1    1    2    0    0  0.81067077511E+01 -0.34376850632E+02  0.20141473815E+02  0.40659138424E+02  0.00000000000E+00 0. -1.
         11    1    3    3    0    0  0.16624552638E+01  0.12631626517E+01  0.85469429608E+00  0.22560673725E+01  0.51100000000E-03 0. -1.
        -11    1    3    3    0    0 -0.19499402593E+01  0.34884831431E+02 -0.19820591029E+02  0.40169759272E+02  0.51100000000E-03 0.  1.
        -12    1    3    3    0    0 -0.78192227555E+01 -0.17711434506E+01 -0.11755770828E+01  0.81030349315E+01  0.00000000000E+00 0.  1.
</event>
<event>
 7    1  0.5748623E-013  0.5052885E+02  0.7816164E-02  0.1300439E+00
        -11   -1    0    0    0    0  0.00000000000E+00  0.00000000000E+00  0.45593999997E+02  0.45594000000E+02  0.51100000000E-03 0.  1.
         11   -1    0    0    0    0 -0.00000000000E+00 -0.00000000000E+00 -0.45593999997E+02  0.45594000000E+02  0.51100000000E-03 0. -1.
    9900012    2    1    2    0    0  0.17341294473E+02 -0.15122150599E+02  0.33522628045E+02  0.50528849446E+02  0.29999968375E+02 0.  0.
         12    1    1    2    0    0 -0.17341294473E+02  0.15122150599E+02 -0.33522628045E+02  0.40659150554E+02  0.00000000000E+00 0. -1.
         11    1    3    3    0    0  0.27056345904E+01  0.10569896470E+01 -0.12443298711E+01  0.31600700530E+01  0.51100000000E-03 0. -1.
        -11    1    3    3    0    0 -0.15898917752E+01 -0.15585351417E+02  0.20137791521E+02  0.25513948778E+02  0.51100000000E-03 0.  1.
        -12    1    3    3    0    0  0.16225551658E+02 -0.59378882911E+00  0.14629166396E+02  0.21854830615E+02  0.00000000000E+00 0.  1.
</event>
<event>
 7    1  0.5748623E-013  0.5052885E+02  0.7816164E-02  0.1300439E+00
        -11   -1    0    0    0    0  0.00000000000E+00  0.00000000000E+00  0.45593999997E+02  0.45594000000E+02  0.51100000000E-03 0.  1.
         11   -1    0    0    0    0 -0.00000000000E+00 -0.00000000000E+00 -0.45593999997E+02  0.45594000000E+02  0.51100000000E-03 0. -1.
    9900012    2    1    2    0    0  0.28627362209E+01  0.22500730897E+02  0.33744453100E+02  0.50528852633E+02  0.29999978063E+02 0.  0.
         12    1    1    2    0    0 -0.28627362209E+01 -0.22500730897E+02 -0.33744453100E+02  0.40659147367E+02  0.00000000000E+00 0. -1.
         11    1    3    3    0    0 -0.36776881604E+01  0.14691622015E+02  0.77758850596E+01  0.17024498123E+02  0.51100000000E-03 0. -1.
        -11    1    3    3    0    0  0.13006924185E+02  0.63419214050E+01  0.16525079828E+02  0.21965388853E+02  0.51100000000E-03 0.  1.
        -12    1    3    3    0    0 -0.64664998041E+01  0.14671874779E+01  0.94434882122E+01  0.11538965657E+02  0.00000000000E+00 0.  1.
</event>
<event>
 7    1  0.5748623E-013  0.5052885E+02  0.7816164E-02  0.1300439E+00
        -11   -1    0    0    0    0  0.00000000000E+00  0.00000000000E+00  0.45593999997E+02  0.45594000000E+02  0.51100000000E-03 0.  1.
         11   -1    0    0    0    0 -0.00000000000E+00 -0.00000000000E+00 -0.45593999997E+02  0.45594000000E+02  0.51100000000E-03 0. -1.
    9900012    2    1    2    0    0  0.19019629301E+01  0.22032226995E+02  0.34119352214E+02  0.50528847465E+02  0.29999962354E+02 0.  0.
         12    1    1    2    0    0 -0.19019629301E+01 -0.22032226995E+02 -0.34119352214E+02  0.40659152535E+02  0.00000000000E+00 0. -1.
         11    1    3    3    0    0 -0.28193572210E+01  0.23244012505E+01 -0.47002887490E+01  0.59535141638E+01  0.51100000000E-03 0. -1.
        -11    1    3    3    0    0  0.54027489577E+01  0.73780172869E+01  0.20898839171E+02  0.22811977432E+02  0.51100000000E-03 0.  1.
         12    1    3    3    0    0 -0.68142880663E+00  0.12329808458E+02  0.17920801792E+02  0.21763355869E+02  0.00000000000E+00 0. -1.
</event>
<event>
 7    1  0.5748623E-013  0.5052886E+02  0.7816164E-02  0.1300439E+00
        -11   -1    0    0    0    0  0.00000000000E+00  0.00000000000E+00  0.45593999997E+02  0.45594000000E+02  0.51100000000E-03 0. -1.
         11   -1    0    0    0    0 -0.00000000000E+00 -0.00000000000E+00 -0.45593999997E+02  0.45594000000E+02  0.51100000000E-03 0.  1.
    9900012    2    1    2    0    0  0.18714121727E+02  0.34526450987E+02 -0.10529551995E+02  0.50528860376E+02  0.30000001598E+02 0.  0.
         12    1    1    2    0    0 -0.18714121727E+02 -0.34526450987E+02  0.10529551995E+02  0.40659139624E+02  0.00000000000E+00 0. -1.
         11    1    3    3    0    0  0.49922082046E+01  0.92541381776E+01  0.45803959302E+01  0.11469143094E+02  0.51100000000E-03 0. -1.
        -11    1    3    3    0    0  0.14729987105E+02  0.54175503931E+01 -0.97233396127E+01  0.18462548737E+02  0.51100000000E-03 0.  1.
        -12    1    3    3    0    0 -0.10080735825E+01  0.19854762416E+02 -0.53866083124E+01  0.20597168545E+02  0.00000000000E+00 0.  1.
</event>
<event>
 7    1  0.5748623E-013  0.5052886E+02  0.7816164E-02  0.1300439E+00
        -11   -1    0    0    0    0  0.00000000000E+00  0.00000000000E+00  0.45593999997E+02  0.45594000000E+02  0.51100000000E-03 0.  1.
         11   -1    0    0    0    0 -0.00000000000E+00 -0.00000000000E+00 -0.45593999997E+02  0.45594000000E+02  0.51100000000E-03 0. -1.
    9900012    2    1    2    0    0 -0.21804297908E+02  0.28497289371E+02  0.19121789384E+02  0.50528859109E+02  0.29999997749E+02 0.  0.
         12    1    1    2    0    0  0.21804297908E+02 -0.28497289371E+02 -0.19121789384E+02  0.40659140891E+02  0.00000000000E+00 0. -1.
         11    1    3    3    0    0 -0.68094126189E+01 -0.25557494834E+00  0.44944578710E+01  0.81629388448E+01  0.51100000000E-03 0. -1.
        -11    1    3    3    0    0 -0.16774703771E+02  0.31894225434E+02  0.12335030786E+02  0.38089175462E+02  0.51100000000E-03 0.  1.
        -12    1    3    3    0    0  0.17798184820E+01 -0.31413611148E+01  0.22923007268E+01  0.42767448024E+01  0.00000000000E+00 0.  1.
</event>
<event>
 7    1  0.5748623E-013  0.5052886E+02  0.7816164E-02  0.1300439E+00
        -11   -1    0    0    0    0  0.00000000000E+00  0.00000000000E+00  0.45593999997E+02  0.45594000000E+02  0.51100000000E-03 0.  1.
         11   -1    0    0    0    0 -0.00000000000E+00 -0.00000000000E+00 -0.45593999997E+02  0.45594000000E+02  0.51100000000E-03 0. -1.
    9900012    2    1    2    0    0  0.28112813946E+02  0.81348406825E+01  0.28225160576E+02  0.50528860432E+02  0.30000001769E+02 0.  0.
         12    1    1    2    0    0 -0.28112813946E+02 -0.81348406825E+01 -0.28225160576E+02  0.40659139568E+02  0.00000000000E+00 0. -1.
         11    1    3    3    0    0 -0.41051797012E+01  0.84968119415E+01  0.77073797263E+01  0.12184088643E+02  0.51100000000E-03 0. -1.
        -11    1    3    3    0    0  0.19058359515E+02 -0.84481544074E+00  0.10321736900E+02  0.21690390347E+02  0.51100000000E-03 0.  1.
         12    1    3    3    0    0  0.13159634132E+02  0.48284418177E+00  0.10196043949E+02  0.16654381442E+02  0.00000000000E+00 0. -1.
</event>
<event>
 7    1  0.5748623E-013  0.5052879E+02  0.7816164E-02  0.1300439E+00
        -11   -1    0    0    0    0  0.00000000000E+00  0.00000000000E+00  0.45593999997E+02  0.45594000000E+02  0.51100000000E-03 0.  1.
         11   -1    0    0    0    0 -0.00000000000E+00 -0.00000000000E+00 -0.45593999997E+02  0.45594000000E+02  0.51100000000E-03 0. -1.
    9900012    2    1    2    0    0  0.15352642387E+02 -0.37649225227E+02 -0.62285775664E-01  0.50528786186E+02  0.29999776091E+02 0.  0.
         12    1    1    2    0    0 -0.15352642387E+02  0.37649225227E+02  0.62285775664E-01  0.40659213814E+02  0.00000000000E+00 0. -1.
         11    1    3    3    0    0  0.15026269608E+02 -0.13406664538E+02  0.61281589450E+01  0.21049507469E+02  0.51100000000E-03 0. -1.
        -11    1    3    3    0    0 -0.48964230326E+01 -0.89945740717E+01  0.33190764983E+01  0.10765388535E+02  0.51100000000E-03 0.  1.
         12    1    3    3    0    0  0.52227958117E+01 -0.15247986616E+02 -0.95095212189E+01  0.18713890182E+02  0.00000000000E+00 0. -1.
</event>
<event>
 7    1  0.5748623E-013  0.5052879E+02  0.7816164E-02  0.1300439E+00
        -11   -1    0    0    0    0  0.00000000000E+00  0.00000000000E+00  0.45593999997E+02  0.45594000000E+02  0.51100000000E-03 0. -1.
         11   -1    0    0    0    0 -0.00000000000E+00 -0.00000000000E+00 -0.45593999997E+02  0.45594000000E+02  0.51100000000E-03 0.  1.
    9900012    2    1    2    0    0  0.23001618686E+02  0.19937938318E+02 -0.26955068752E+02  0.50528787293E+02  0.29999779456E+02 0.  0.
         12    1    1    2    0    0 -0.23001618686E+02 -0.19937938318E+02  0.26955068752E+02  0.40659212707E+02  0.00000000000E+00 0. -1.
         11    1    3    3    0    0  0.85541309807E+01  0.12173993720E+02  0.20341350498E+01  0.15017222965E+02  0.51100000000E-03 0. -1.
        -11    1    3    3    0    0  0.27872712668E+01  0.19881008740E+00 -0.16780943248E+02  0.17012009379E+02  0.51100000000E-03 0.  1.
        -12    1    3    3    0    0  0.11660216439E+02  0.75651345100E+01 -0.12208260553E+02  0.18499554948E+02  0.00000000000E+00 0.  1.
</event>
<event>
 7    1  0.5748623E-013  0.5052886E+02  0.7816164E-02  0.1300439E+00
        -11   -1    0    0    0    0  0.00000000000E+00  0.00000000000E+00  0.45593999997E+02  0.45594000000E+02  0.51100000000E-03 0. -1.
         11   -1    0    0    0    0 -0.00000000000E+00 -0.00000000000E+00 -0.45593999997E+02  0.45594000000E+02  0.51100000000E-03 0.  1.
    9900012    2    1    2    0    0 -0.71654918174E+01 -0.31256144667E+02 -0.24997498312E+02  0.50528858663E+02  0.29999996391E+02 0.  0.
         12    1    1    2    0    0  0.71654918174E+01  0.31256144667E+02  0.24997498312E+02  0.40659141337E+02  0.00000000000E+00 0. -1.
         11    1    3    3    0    0 -0.11939647155E+02 -0.21871222682E+02 -0.78205542993E+01  0.26116405296E+02  0.51100000000E-03 0. -1.
        -11    1    3    3    0    0 -0.66418268925E+00 -0.81954231916E+01 -0.16952219135E+02  0.18841014670E+02  0.51100000000E-03 0.  1.
         12    1    3    3    0    0  0.54383380269E+01 -0.11894987932E+01 -0.22472487752E+00  0.55714386961E+01  0.00000000000E+00 0. -1.
</event>
<event>
 7    1  0.5748623E-013  0.5052886E+02  0.7816164E-02  0.1300439E+00
        -11   -1    0    0    0    0  0.00000000000E+00  0.00000000000E+00  0.45593999997E+02  0.45594000000E+02  0.51100000000E-03 0. -1.
         11   -1    0    0    0    0 -0.00000000000E+00 -0.00000000000E+00 -0.45593999997E+02  0.45594000000E+02  0.51100000000E-03 0.  1.
    9900012    2    1    2    0    0 -0.30678075846E+01 -0.37228392763E+02 -0.16056173281E+02  0.50528863615E+02  0.30000011445E+02 0.  0.
         12    1    1    2    0    0  0.30678075846E+01  0.37228392763E+02  0.16056173281E+02  0.40659136385E+02  0.00000000000E+00 0. -1.
         11    1    3    3    0    0 -0.12064397438E+02 -0.18018333714E+02 -0.12651602246E+02  0.25105239992E+02  0.51100000000E-03 0.  1.
        -11    1    3    3    0    0  0.92671210030E+01 -0.66157485681E+01  0.22649540284E+01  0.11609378873E+02  0.51100000000E-03 0. -1.
        -12    1    3    3    0    0 -0.27053114963E+00 -0.12594310481E+02 -0.56695250641E+01  0.13814244751E+02  0.00000000000E+00 0.  1.
</event>
<event>
 7    1  0.5748623E-013  0.5052893E+02  0.7816164E-02  0.1300439E+00
        -11   -1    0    0    0    0  0.00000000000E+00  0.00000000000E+00  0.45593999997E+02  0.45594000000E+02  0.51100000000E-03 0. -1.
         11   -1    0    0    0    0 -0.00000000000E+00 -0.00000000000E+00 -0.45593999997E+02  0.45594000000E+02  0.51100000000E-03 0.  1.
    9900012    2    1    2    0    0 -0.24362658185E+02  0.27232313988E+02 -0.17833168626E+02  0.50528930382E+02  0.30000214387E+02 0.  0.
         12    1    1    2    0    0  0.24362658185E+02 -0.27232313988E+02  0.17833168626E+02  0.40659069618E+02  0.00000000000E+00 0. -1.
         11    1    3    3    0    0 -0.24539479369E+02  0.15862319170E+02 -0.58321423407E+00  0.29225662632E+02  0.51100000000E-03 0. -1.
        -11    1    3    3    0    0  0.14732940339E+01  0.85916111190E+01 -0.15473157204E+02  0.17759644452E+02  0.51100000000E-03 0.  1.
         12    1    3    3    0    0 -0.12964728494E+01  0.27783836995E+01 -0.17767971881E+01  0.35436232980E+01  0.00000000000E+00 0. -1.
</event>
<event>
 7    1  0.5748623E-013  0.5052885E+02  0.7816164E-02  0.1300439E+00
        -11   -1    0    0    0    0  0.00000000000E+00  0.00000000000E+00  0.45593999997E+02  0.45594000000E+02  0.51100000000E-03 0. -1.
         11   -1    0    0    0    0 -0.00000000000E+00 -0.00000000000E+00 -0.45593999997E+02  0.45594000000E+02  0.51100000000E-03 0.  1.
    9900012    2    1    2    0    0 -0.19526895032E+02 -0.31226981809E+02 -0.17226222418E+02  0.50528846525E+02  0.29999959498E+02 0.  0.
         12    1    1    2    0    0  0.19526895032E+02  0.31226981809E+02  0.17226222418E+02  0.40659153475E+02  0.00000000000E+00 0. -1.
         11    1    3    3    0    0 -0.22847909659E+02 -0.30905715852E+02 -0.14318411656E+02  0.41014718831E+02  0.51100000000E-03 0. -1.
        -11    1    3    3    0    0  0.51903953942E+01 -0.17373645971E+01 -0.41419849761E+01  0.68640133955E+01  0.51100000000E-03 0.  1.
         12    1    3    3    0    0 -0.18693807666E+01  0.14160986405E+01  0.12341742134E+01  0.26501142993E+01  0.00000000000E+00 0. -1.
</event>
<event>
 7    1  0.5748623E-013  0.5052886E+02  0.7816164E-02  0.1300439E+00
        -11   -1    0    0    0    0  0.00000000000E+00  0.00000000000E+00  0.45593999997E+02  0.45594000000E+02  0.51100000000E-03 0.  1.
         11   -1    0    0    0    0 -0.00000000000E+00 -0.00000000000E+00 -0.45593999997E+02  0.45594000000E+02  0.51100000000E-03 0. -1.
    9900012    2    1    2    0    0  0.32159053404E+02 -0.24848160954E+02 -0.12368874965E+01  0.50528859462E+02  0.29999998820E+02 0.  0.
         12    1    1    2    0    0 -0.32159053404E+02  0.24848160954E+02  0.12368874965E+01  0.40659140538E+02  0.00000000000E+00 0. -1.
         11    1    3    3    0    0  0.24312766653E+02 -0.60890063969E+01 -0.13045799711E+00  0.25063990919E+02  0.51100000000E-03 0. -1.
        -11    1    3    3    0    0 -0.16281325710E+01 -0.56687038270E+01  0.54458929037E+01  0.80276253354E+01  0.51100000000E-03 0.  1.
        -12    1    3    3    0    0  0.94744193218E+01 -0.13090450730E+02 -0.65523224031E+01  0.17437243208E+02  0.00000000000E+00 0.  1.
</event>
<event>
 7    1  0.5748623E-013  0.5052892E+02  0.7816164E-02  0.1300439E+00
        -11   -1    0    0    0    0  0.00000000000E+00  0.00000000000E+00  0.45593999997E+02  0.45594000000E+02  0.51100000000E-03 0.  1.
         11   -1    0    0    0    0 -0.00000000000E+00 -0.00000000000E+00 -0.45593999997E+02  0.45594000000E+02  0.51100000000E-03 0. -1.
    9900012    2    1    2    0    0  0.15365531744E+02  0.31755381817E+02  0.20215257976E+02  0.50528923582E+02  0.30000193719E+02 0.  0.
         12    1    1    2    0    0 -0.15365531744E+02 -0.31755381817E+02 -0.20215257976E+02  0.40659076418E+02  0.00000000000E+00 0. -1.
         11    1    3    3    0    0 -0.85190729902E+01  0.70930853810E+01  0.31747378760E+01  0.11531063510E+02  0.51100000000E-03 0. -1.
        -11    1    3    3    0    0  0.11560000425E+02  0.15554223545E+02  0.12312945206E+02  0.22960315760E+02  0.51100000000E-03 0.  1.
         12    1    3    3    0    0  0.12324604309E+02  0.91080728919E+01  0.47275748940E+01  0.16037544312E+02  0.00000000000E+00 0. -1.
</event>
<event>
 7    1  0.5748623E-013  0.5052886E+02  0.7816164E-02  0.1300439E+00
        -11   -1    0    0    0    0  0.00000000000E+00  0.00000000000E+00  0.45593999997E+02  0.45594000000E+02  0.51100000000E-03 0.  1.
         11   -1    0    0    0    0 -0.00000000000E+00 -0.00000000000E+00 -0.45593999997E+02  0.45594000000E+02  0.51100000000E-03 0. -1.
    9900012    2    1    2    0    0  0.91248876802E+01 -0.39621077667E+02  0.26829994748E+00  0.50528863812E+02  0.30000012044E+02 0.  0.
         12    1    1    2    0    0 -0.91248876802E+01  0.39621077667E+02 -0.26829994748E+00  0.40659136188E+02  0.00000000000E+00 0. -1.
         11    1    3    3    0    0  0.12314674513E+02 -0.10989489605E+02 -0.95083484360E+01  0.19048065003E+02  0.51100000000E-03 0. -1.
        -11    1    3    3    0    0  0.15108672064E+01 -0.82745725339E+00  0.46156235164E+00  0.17833802979E+01  0.51100000000E-03 0.  1.
         12    1    3    3    0    0 -0.47006540391E+01 -0.27804130809E+02  0.93150860319E+01  0.29697418511E+02  0.00000000000E+00 0. -1.
</event>
<event>
 7    1  0.5748623E-013  0.5052886E+02  0.7816164E-02  0.1300439E+00
        -11   -1    0    0    0    0  0.00000000000E+00  0.00000000000E+00  0.45593999997E+02  0.45594000000E+02  0.51100000000E-03 0. -1.
         11   -1    0    0    0    0 -0.00000000000E+00 -0.00000000000E+00 -0.45593999997E+02  0.45594000000E+02  0.51100000000E-03 0.  1.
    9900012    2    1    2    0    0  0.16273375469E+02  0.30145411426E+02 -0.21899713492E+02  0.50528855515E+02  0.29999986823E+02 0.  0.
         12    1    1    2    0    0 -0.16273375469E+02 -0.30145411426E+02  0.21899713492E+02  0.40659144485E+02  0.00000000000E+00 0. -1.
         11    1    3    3    0    0 -0.34261226646E+01  0.59978777888E-01  0.32950136401E+00  0.34424533950E+01  0.51100000000E-03 0. -1.
        -11    1    3    3    0    0  0.15275060855E+02  0.28029889970E+02 -0.25796909723E+02  0.41042450796E+02  0.51100000000E-03 0.  1.
        -12    1    3    3    0    0  0.44244372787E+01  0.20555426786E+01  0.35676948672E+01  0.60439513236E+01  0.00000000000E+00 0.  1.
</event>
<event>
 7    1  0.5748623E-013  0.5052885E+02  0.7816164E-02  0.1300439E+00
        -11   -1    0    0    0    0  0.00000000000E+00  0.00000000000E+00  0.45593999997E+02  0.45594000000E+02  0.51100000000E-03 0. -1.
         11   -1    0    0    0    0 -0.00000000000E+00 -0.00000000000E+00 -0.45593999997E+02  0.45594000000E+02  0.51100000000E-03 0.  1.
    9900012    2    1    2    0    0 -0.29686228288E+02 -0.27623807571E+02 -0.29697617264E+01  0.50528851221E+02  0.29999973771E+02 0.  0.
         12    1    1    2    0    0  0.29686228288E+02  0.27623807571E+02  0.29697617264E+01  0.40659148779E+02  0.00000000000E+00 0. -1.
         11    1    3    3    0    0 -0.91777729191E+01 -0.34617734774E+00  0.85137562085E+01  0.12523394091E+02  0.51100000000E-03 0. -1.
        -11    1    3    3    0    0 -0.89376028623E+01 -0.44788815083E+01 -0.65920597355E+01  0.11974822600E+02  0.51100000000E-03 0.  1.
         12    1    3    3    0    0 -0.11570852507E+02 -0.22798748715E+02 -0.48914581994E+01  0.26030634530E+02  0.00000000000E+00 0. -1.
</event>
<event>
 7    1  0.5748623E-013  0.5052884E+02  0.7816164E-02  0.1300439E+00
        -11   -1    0    0    0    0  0.00000000000E+00  0.00000000000E+00  0.45593999997E+02  0.45594000000E+02  0.51100000000E-03 0. -1.
         11   -1    0    0    0    0 -0.00000000000E+00 -0.00000000000E+00 -0.45593999997E+02  0.45594000000E+02  0.51100000000E-03 0.  1.
    9900012    2    1    2    0    0  0.29495793449E+02  0.26731629262E+02 -0.82816344742E+01  0.50528839854E+02  0.29999939221E+02 0.  0.
         12    1    1    2    0    0 -0.29495793449E+02 -0.26731629262E+02  0.82816344742E+01  0.40659160146E+02  0.00000000000E+00 0. -1.
         11    1    3    3    0    0 -0.31724881892E+00  0.31430257389E+01  0.14434046560E+01  0.34731361722E+01  0.51100000000E-03 0. -1.
        -11    1    3    3    0    0  0.24709401160E+02  0.25204777722E+02 -0.16045854935E+02  0.38772474600E+02  0.51100000000E-03 0.  1.
        -12    1    3    3    0    0  0.51036411073E+01 -0.16161741984E+01  0.63208158051E+01  0.82832290825E+01  0.00000000000E+00 0.  1.
</event>
<event>
 7    1  0.5748623E-013  0.5052881E+02  0.7816164E-02  0.1300439E+00
        -11   -1    0    0    0    0  0.00000000000E+00  0.00000000000E+00  0.45593999997E+02  0.45594000000E+02  0.51100000000E-03 0.  1.
         11   -1    0    0    0    0 -0.00000000000E+00 -0.00000000000E+00 -0.45593999997E+02  0.45594000000E+02  0.51100000000E-03 0. -1.
    9900012    2    1    2    0    0 -0.27755990847E+01 -0.22843730328E+02  0.33520586127E+02  0.50528810880E+02  0.29999851151E+02 0.  0.
         12    1    1    2    0    0  0.27755990847E+01  0.22843730328E+02 -0.33520586127E+02  0.40659189120E+02  0.00000000000E+00 0. -1.
         11    1    3    3    0    0 -0.16062008167E+01 -0.12351333832E+01  0.12852239655E+02  0.13010976134E+02  0.51100000000E-03 0. -1.
        -11    1    3    3    0    0 -0.93421720059E+01 -0.15432303071E+02  0.48641678357E+01  0.18684011477E+02  0.51100000000E-03 0.  1.
        -12    1    3    3    0    0  0.81727737378E+01 -0.61762938734E+01  0.15804178636E+02  0.18833823270E+02  0.00000000000E+00 0.  1.
</event>
<event>
 7    1  0.5748623E-013  0.5052886E+02  0.7816164E-02  0.1300439E+00
        -11   -1    0    0    0    0  0.00000000000E+00  0.00000000000E+00  0.45593999997E+02  0.45594000000E+02  0.51100000000E-03 0.  1.
         11   -1    0    0    0    0 -0.00000000000E+00 -0.00000000000E+00 -0.45593999997E+02  0.45594000000E+02  0.51100000000E-03 0. -1.
    9900012    2    1    2    0    0  0.34376049741E+02  0.92419854092E+01  0.19647863477E+02  0.50528860446E+02  0.30000001811E+02 0.  0.
         12    1    1    2    0    0 -0.34376049741E+02 -0.92419854092E+01 -0.19647863477E+02  0.40659139554E+02  0.00000000000E+00 0. -1.
         11    1    3    3    0    0 -0.45073407907E+01  0.27809030669E+01  0.36758762440E+01  0.64468293985E+01  0.51100000000E-03 0. -1.
        -11    1    3    3    0    0  0.15257736904E+02  0.73148496917E+00  0.12052621401E+02  0.19457628031E+02  0.51100000000E-03 0.  1.
         12    1    3    3    0    0  0.23625653627E+02  0.57295973731E+01  0.39193658318E+01  0.24624403016E+02  0.00000000000E+00 0. -1.
</event>
<event>
 7    1  0.5748623E-013  0.5052886E+02  0.7816164E-02  0.1300439E+00
        -11   -1    0    0    0    0  0.00000000000E+00  0.00000000000E+00  0.45593999997E+02  0.45594000000E+02  0.51100000000E-03 0. -1.
         11   -1    0    0    0    0 -0.00000000000E+00 -0.00000000000E+00 -0.45593999997E+02  0.45594000000E+02  0.51100000000E-03 0.  1.
    9900012    2    1    2    0    0  0.33287466317E+02  0.22730472430E+02 -0.53325091779E+01  0.50528862714E+02  0.30000008706E+02 0.  0.
         12    1    1    2    0    0 -0.33287466317E+02 -0.22730472430E+02  0.53325091779E+01  0.40659137286E+02  0.00000000000E+00 0. -1.
         11    1    3    3    0    0  0.23535035889E+02  0.15960574766E+02 -0.14812261897E+02  0.32063077892E+02  0.51100000000E-03 0. -1.
        -11    1    3    3    0    0  0.41270179197E+01 -0.18669158886E+01  0.10188822562E+00  0.45307872734E+01  0.51100000000E-03 0.  1.
         12    1    3    3    0    0  0.56254125081E+01  0.86368135530E+01  0.93778644931E+01  0.13934997549E+02  0.00000000000E+00 0. -1.
</event>
<event>
 7    1  0.5748623E-013  0.5052887E+02  0.7816164E-02  0.1300439E+00
        -11   -1    0    0    0    0  0.00000000000E+00  0.00000000000E+00  0.45593999997E+02  0.45594000000E+02  0.51100000000E-03 0.  1.
         11   -1    0    0    0    0 -0.00000000000E+00 -0.00000000000E+00 -0.45593999997E+02  0.45594000000E+02  0.51100000000E-03 0. -1.
    9900012    2    1    2    0    0 -0.27075970580E+02 -0.61039357474E+01  0.29711928598E+02  0.50528869224E+02  0.30000028493E+02 0.  0.
         12    1    1    2    0    0  0.27075970580E+02  0.61039357474E+01 -0.29711928598E+02  0.40659130776E+02  0.00000000000E+00 0. -1.
         11    1    3    3    0    0 -0.25361286673E+01 -0.52331281259E+01  0.13415479329E+01  0.59680256130E+01  0.51100000000E-03 0. -1.
        -11    1    3    3    0    0 -0.80207947866E+01  0.63047309230E+01  0.23926098430E+02  0.26010401138E+02  0.51100000000E-03 0.  1.
        -12    1    3    3    0    0 -0.16519047126E+02 -0.71755385444E+01  0.44442822353E+01  0.18550442473E+02  0.00000000000E+00 0.  1.
</event>
<event>
 7    1  0.5748623E-013  0.5052887E+02  0.7816164E-02  0.1300439E+00
        -11   -1    0    0    0    0  0.00000000000E+00  0.00000000000E+00  0.45593999997E+02  0.45594000000E+02  0.51100000000E-03 0.  1.
         11   -1    0    0    0    0 -0.00000000000E+00 -0.00000000000E+00 -0.45593999997E+02  0.45594000000E+02  0.51100000000E-03 0. -1.
    9900012    2    1    2    0    0 -0.10916891750E+02 -0.37732921904E+02 -0.10498220080E+02  0.50528873771E+02  0.30000042313E+02 0.  0.
         12    1    1    2    0    0  0.10916891750E+02  0.37732921904E+02  0.10498220080E+02  0.40659126229E+02  0.00000000000E+00 0. -1.
         11    1    3    3    0    0  0.69546916149E+01 -0.13355855368E+02 -0.91064921249E+01  0.17597579582E+02  0.51100000000E-03 0. -1.
        -11    1    3    3    0    0 -0.17067564089E+01 -0.96299257946E+01  0.37157157095E+01  0.10462075881E+02  0.51100000000E-03 0.  1.
         12    1    3    3    0    0 -0.16164826956E+02 -0.14747140742E+02 -0.51074436644E+01  0.22469218307E+02  0.00000000000E+00 0. -1.
</event>
<event>
 7    1  0.5748623E-013  0.5052886E+02  0.7816164E-02  0.1300439E+00
        -11   -1    0    0    0    0  0.00000000000E+00  0.00000000000E+00  0.45593999997E+02  0.45594000000E+02  0.51100000000E-03 0. -1.
         11   -1    0    0    0    0 -0.00000000000E+00 -0.00000000000E+00 -0.45593999997E+02  0.45594000000E+02  0.51100000000E-03 0.  1.
    9900012    2    1    2    0    0  0.32190749522E+02 -0.21006808654E+01 -0.24748911688E+02  0.50528857798E+02  0.29999993763E+02 0.  0.
         12    1    1    2    0    0 -0.32190749522E+02  0.21006808654E+01  0.24748911688E+02  0.40659142202E+02  0.00000000000E+00 0. -1.
         11    1    3    3    0    0  0.17373871742E+02  0.11624139217E+02 -0.79066912786E+01  0.22349223680E+02  0.51100000000E-03 0. -1.
        -11    1    3    3    0    0  0.11840324595E+01 -0.23900431361E+01 -0.78690779404E+01  0.83088282538E+01  0.51100000000E-03 0.  1.
         12    1    3    3    0    0  0.13632845320E+02 -0.11334776946E+02 -0.89731424686E+01  0.19870805864E+02  0.00000000000E+00 0. -1.
</event>
<event>
 7    1  0.5748623E-013  0.5052886E+02  0.7816164E-02  0.1300439E+00
        -11   -1    0    0    0    0  0.00000000000E+00  0.00000000000E+00  0.45593999997E+02  0.45594000000E+02  0.51100000000E-03 0.  1.
         11   -1    0    0    0    0 -0.00000000000E+00 -0.00000000000E+00 -0.45593999997E+02  0.45594000000E+02  0.51100000000E-03 0. -1.
    9900012    2    1    2    0    0  0.33607780290E+02  0.11561202717E+02  0.19748966819E+02  0.50528855952E+02  0.29999988151E+02 0.  0.
         12    1    1    2    0    0 -0.33607780290E+02 -0.11561202717E+02 -0.19748966819E+02  0.40659144048E+02  0.00000000000E+00 0. -1.
         11    1    3    3    0    0  0.14669412138E+02  0.69628426499E+00  0.88897956377E+01  0.17166972098E+02  0.51100000000E-03 0. -1.
        -11    1    3    3    0    0  0.47421293273E+00  0.70046538236E+01  0.12594217148E+02  0.14418888963E+02  0.51100000000E-03 0.  1.
        -12    1    3    3    0    0  0.18464155219E+02  0.38602646284E+01 -0.17350459660E+01  0.18942994892E+02  0.00000000000E+00 0.  1.
</event>
<event>
 7    1  0.5748623E-013  0.5052886E+02  0.7816164E-02  0.1300439E+00
        -11   -1    0    0    0    0  0.00000000000E+00  0.00000000000E+00  0.45593999997E+02  0.45594000000E+02  0.51100000000E-03 0. -1.
         11   -1    0    0    0    0 -0.00000000000E+00 -0.00000000000E+00 -0.45593999997E+02  0.45594000000E+02  0.51100000000E-03 0.  1.
    9900012    2    1    2    0    0 -0.34816253465E+02  0.17340756618E+02 -0.11844516119E+02  0.50528857024E+02  0.29999991411E+02 0.  0.
         12    1    1    2    0    0  0.34816253465E+02 -0.17340756618E+02  0.11844516119E+02  0.40659142976E+02  0.00000000000E+00 0. -1.
         11    1    3    3    0    0  0.16416846516E+01 -0.16606190456E+01  0.11022881394E+01  0.25822129101E+01  0.51100000000E-03 0. -1.
        -11    1    3    3    0    0 -0.29776971506E+02  0.23240316589E+02 -0.79856915438E+01  0.38607662671E+02  0.51100000000E-03 0.  1.
        -12    1    3    3    0    0 -0.66809666103E+01 -0.42389409258E+01 -0.49611127150E+01  0.93389814429E+01  0.00000000000E+00 0.  1.
</event>
<event>
 7    1  0.5748623E-013  0.5052883E+02  0.7816164E-02  0.1300439E+00
        -11   -1    0    0    0    0  0.00000000000E+00  0.00000000000E+00  0.45593999997E+02  0.45594000000E+02  0.51100000000E-03 0. -1.
         11   -1    0    0    0    0 -0.00000000000E+00 -0.00000000000E+00 -0.45593999997E+02  0.45594000000E+02  0.51100000000E-03 0.  1.
    9900012    2    1    2    0    0  0.16153248750E+02 -0.35631559492E+01 -0.37142217560E+02  0.50528833127E+02  0.29999918774E+02 0.  0.
         12    1    1    2    0    0 -0.16153248750E+02  0.35631559492E+01  0.37142217560E+02  0.40659166873E+02  0.00000000000E+00 0. -1.
         11    1    3    3    0    0  0.16545188663E+01  0.21210190583E+01  0.11601053876E+01  0.29295049575E+01  0.51100000000E-03 0. -1.
        -11    1    3    3    0    0  0.15228318591E+02  0.46867362067E+01 -0.31124349397E+02  0.34965587497E+02  0.51100000000E-03 0.  1.
        -12    1    3    3    0    0 -0.72958870755E+00 -0.10370911214E+02 -0.71779735513E+01  0.12633740673E+02  0.00000000000E+00 0.  1.
</event>
<event>
 7    1  0.5748623E-013  0.5052878E+02  0.7816164E-02  0.1300439E+00
        -11   -1    0    0    0    0  0.00000000000E+00  0.00000000000E+00  0.45593999997E+02  0.45594000000E+02  0.51100000000E-03 0.  1.
         11   -1    0    0    0    0 -0.00000000000E+00 -0.00000000000E+00 -0.45593999997E+02  0.45594000000E+02  0.51100000000E-03 0. -1.
    9900012    2    1    2    0    0 -0.35879217855E+02  0.16883854185E+02  0.89882862357E+01  0.50528780929E+02  0.29999760109E+02 0.  0.
         12    1    1    2    0    0  0.35879217855E+02 -0.16883854185E+02 -0.89882862357E+01  0.40659219071E+02  0.00000000000E+00 0. -1.
         11    1    3    3    0    0 -0.20835520064E+02  0.45974361446E+01 -0.70564948982E+01  0.22473304963E+02  0.51100000000E-03 0. -1.
        -11    1    3    3    0    0 -0.17547608063E+01  0.83287234300E+01  0.93961413507E+01  0.12678102855E+02  0.51100000000E-03 0.  1.
         12    1    3    3    0    0 -0.13288936984E+02  0.39576946104E+01  0.66486397832E+01  0.15377373110E+02  0.00000000000E+00 0. -1.
</event>
<event>
 7    1  0.5748623E-013  0.5052884E+02  0.7816164E-02  0.1300439E+00
        -11   -1    0    0    0    0  0.00000000000E+00  0.00000000000E+00  0.45593999997E+02  0.45594000000E+02  0.51100000000E-03 0.  1.
         11   -1    0    0    0    0 -0.00000000000E+00 -0.00000000000E+00 -0.45593999997E+02  0.45594000000E+02  0.51100000000E-03 0. -1.
    9900012    2    1    2    0    0  0.14944793788E+02 -0.80825671867E+01  0.36939033014E+02  0.50528844651E+02  0.29999953801E+02 0.  0.
         12    1    1    2    0    0 -0.14944793788E+02  0.80825671867E+01 -0.36939033014E+02  0.40659155349E+02  0.00000000000E+00 0. -1.
         11    1    3    3    0    0  0.75072539723E+01 -0.13980195241E+02  0.44757786492E+01  0.16487489680E+02  0.51100000000E-03 0. -1.
        -11    1    3    3    0    0  0.12794860424E+01  0.33281984500E+01  0.11880215488E+02  0.12403769981E+02  0.51100000000E-03 0.  1.
         12    1    3    3    0    0  0.61580537734E+01  0.25694296040E+01  0.20583038877E+02  0.21637584990E+02  0.00000000000E+00 0. -1.
</event>
<event>
 7    1  0.5748623E-013  0.5052887E+02  0.7816164E-02  0.1300439E+00
        -11   -1    0    0    0    0  0.00000000000E+00  0.00000000000E+00  0.45593999997E+02  0.45594000000E+02  0.51100000000E-03 0.  1.
         11   -1    0    0    0    0 -0.00000000000E+00 -0.00000000000E+00 -0.45593999997E+02  0.45594000000E+02  0.51100000000E-03 0. -1.
    9900012    2    1    2    0    0  0.22611210967E+02 -0.28487903849E+02  0.18175181839E+02  0.50528871111E+02  0.30000034230E+02 0.  0.
         12    1    1    2    0    0 -0.22611210967E+02  0.28487903849E+02 -0.18175181839E+02  0.40659128889E+02  0.00000000000E+00 0. -1.
         11    1    3    3    0    0  0.26494766485E+01  0.32487617725E+01 -0.26144958291E+01  0.49406242791E+01  0.51100000000E-03 0. -1.
        -11    1    3    3    0    0  0.15757491171E+02 -0.30799094509E+02  0.22140208358E+02  0.41073976883E+02  0.51100000000E-03 0.  1.
         12    1    3    3    0    0  0.42042431475E+01 -0.93757111231E+00 -0.13505306895E+01  0.45142699496E+01  0.00000000000E+00 0. -1.
</event>
<event>
 7    1  0.5748623E-013  0.5052886E+02  0.7816164E-02  0.1300439E+00
        -11   -1    0    0    0    0  0.00000000000E+00  0.00000000000E+00  0.45593999997E+02  0.45594000000E+02  0.51100000000E-03 0.  1.
         11   -1    0    0    0    0 -0.00000000000E+00 -0.00000000000E+00 -0.45593999997E+02  0.45594000000E+02  0.51100000000E-03 0. -1.
    9900012    2    1    2    0    0 -0.34343051727E+02 -0.37947050916E+01  0.21431774110E+02  0.50528856746E+02  0.29999990564E+02 0.  0.
         12    1    1    2    0    0  0.34343051727E+02  0.37947050916E+01 -0.21431774110E+02  0.40659143254E+02  0.00000000000E+00 0. -1.
         11    1    3    3    0    0 -0.12752024966E+02 -0.12053693910E+02  0.17057465853E+02  0.24471673813E+02  0.51100000000E-03 0. -1.
        -11    1    3    3    0    0 -0.21135369385E+02  0.46662016526E+01  0.53713690258E+01  0.22300871785E+02  0.51100000000E-03 0.  1.
         12    1    3    3    0    0 -0.45565737703E+00  0.35927871657E+01 -0.99706076951E+00  0.37563111481E+01  0.00000000000E+00 0. -1.
</event>
<event>
 7    1  0.5748623E-013  0.5052885E+02  0.7816164E-02  0.1300439E+00
        -11   -1    0    0    0    0  0.00000000000E+00  0.00000000000E+00  0.45593999997E+02  0.45594000000E+02  0.51100000000E-03 0.  1.
         11   -1    0    0    0    0 -0.00000000000E+00 -0.00000000000E+00 -0.45593999997E+02  0.45594000000E+02  0.51100000000E-03 0. -1.
    9900012    2    1    2    0    0 -0.39959347917E+02  0.74578237123E+01 -0.89322684841E+00  0.50528850050E+02  0.29999970212E+02 0.  0.
         12    1    1    2    0    0  0.39959347917E+02 -0.74578237123E+01  0.89322684841E+00  0.40659149950E+02  0.00000000000E+00 0. -1.
         11    1    3    3    0    0 -0.21305402365E+02  0.42143616531E+01  0.12754878457E+02  0.25186661922E+02  0.51100000000E-03 0. -1.
        -11    1    3    3    0    0 -0.79942554809E+01  0.43593451717E+01 -0.11041632648E+02  0.14311871394E+02  0.51100000000E-03 0.  1.
         12    1    3    3    0    0 -0.10659690071E+02 -0.11158831124E+01 -0.26064726573E+01  0.11030316733E+02  0.00000000000E+00 0. -1.
</event>
<event>
 7    1  0.5748623E-013  0.5052886E+02  0.7816164E-02  0.1300439E+00
        -11   -1    0    0    0    0  0.00000000000E+00  0.00000000000E+00  0.45593999997E+02  0.45594000000E+02  0.51100000000E-03 0. -1.
         11   -1    0    0    0    0 -0.00000000000E+00 -0.00000000000E+00 -0.45593999997E+02  0.45594000000E+02  0.51100000000E-03 0.  1.
    9900012    2    1    2    0    0 -0.30556153940E+02 -0.26735500647E+02 -0.21680065324E+01  0.50528858460E+02  0.29999995776E+02 0.  0.
         12    1    1    2    0    0  0.30556153940E+02  0.26735500647E+02  0.21680065324E+01  0.40659141540E+02  0.00000000000E+00 0. -1.
         11    1    3    3    0    0 -0.14477621548E+02  0.10897480171E+01 -0.90357354873E+01  0.17100689825E+02  0.51100000000E-03 0. -1.
        -11    1    3    3    0    0 -0.12656824844E+02 -0.23037240531E+02  0.79144178974E+01  0.27450822890E+02  0.51100000000E-03 0.  1.
        -12    1    3    3    0    0 -0.34217075484E+01 -0.47880081329E+01 -0.10466889424E+01  0.59773457462E+01  0.00000000000E+00 0.  1.
</event>
<event>
 7    1  0.5748623E-013  0.5052886E+02  0.7816164E-02  0.1300439E+00
        -11   -1    0    0    0    0  0.00000000000E+00  0.00000000000E+00  0.45593999997E+02  0.45594000000E+02  0.51100000000E-03 0.  1.
         11   -1    0    0    0    0 -0.00000000000E+00 -0.00000000000E+00 -0.45593999997E+02  0.45594000000E+02  0.51100000000E-03 0. -1.
    9900012    2    1    2    0    0  0.15253353212E+02  0.24221018875E+02  0.28876344001E+02  0.50528858563E+02  0.29999996089E+02 0.  0.
         12    1    1    2    0    0 -0.15253353212E+02 -0.24221018875E+02 -0.28876344001E+02  0.40659141437E+02  0.00000000000E+00 0. -1.
         11    1    3    3    0    0 -0.12058935304E+01 -0.35339439104E+01 -0.16409506891E+01  0.40786833897E+01  0.51100000000E-03 0. -1.
        -11    1    3    3    0    0  0.18423641060E+02  0.25108366716E+02  0.29744101042E+02  0.43064744003E+02  0.51100000000E-03 0.  1.
        -12    1    3    3    0    0 -0.19643943178E+01  0.26465960695E+01  0.77319364826E+00  0.33854311703E+01  0.00000000000E+00 0.  1.
</event>
<event>
 7    1  0.5748623E-013  0.5052886E+02  0.7816164E-02  0.1300439E+00
        -11   -1    0    0    0    0  0.00000000000E+00  0.00000000000E+00  0.45593999997E+02  0.45594000000E+02  0.51100000000E-03 0. -1.
         11   -1    0    0    0    0 -0.00000000000E+00 -0.00000000000E+00 -0.45593999997E+02  0.45594000000E+02  0.51100000000E-03 0.  1.
    9900012    2    1    2    0    0 -0.14917264213E+02  0.23594879674E+02 -0.29562179661E+02  0.50528860994E+02  0.30000003478E+02 0.  0.
         12    1    1    2    0    0  0.14917264213E+02 -0.23594879674E+02  0.29562179661E+02  0.40659139006E+02  0.00000000000E+00 0. -1.
         11    1    3    3    0    0 -0.20558039869E+01 -0.45051995650E+01  0.25699658966E+01  0.55792363388E+01  0.51100000000E-03 0. -1.
        -11    1    3    3    0    0 -0.27562250405E+01  0.97922762345E+01 -0.13772705555E+02  0.17122291578E+02  0.51100000000E-03 0.  1.
         12    1    3    3    0    0 -0.10105235186E+02  0.18307803004E+02 -0.18359440003E+02  0.27827333077E+02  0.00000000000E+00 0. -1.
</event>
<event>
 7    1  0.5748623E-013  0.5052884E+02  0.7816164E-02  0.1300439E+00
        -11   -1    0    0    0    0  0.00000000000E+00  0.00000000000E+00  0.45593999997E+02  0.45594000000E+02  0.51100000000E-03 0. -1.
         11   -1    0    0    0    0 -0.00000000000E+00 -0.00000000000E+00 -0.45593999997E+02  0.45594000000E+02  0.51100000000E-03 0.  1.
    9900012    2    1    2    0    0 -0.27335035711E+02 -0.10910463251E+02 -0.28052179739E+02  0.50528841452E+02  0.29999944078E+02 0.  0.
         12    1    1    2    0    0  0.27335035711E+02  0.10910463251E+02  0.28052179739E+02  0.40659158548E+02  0.00000000000E+00 0. -1.
         11    1    3    3    0    0 -0.16251570585E+02 -0.27178236589E+01 -0.11968514013E+02  0.20365299896E+02  0.51100000000E-03 0. -1.
        -11    1    3    3    0    0  0.41473045075E+01 -0.15139938052E+01  0.26212110891E+01  0.51344970304E+01  0.51100000000E-03 0.  1.
        -12    1    3    3    0    0 -0.15230769634E+02 -0.66786457869E+01 -0.18704876815E+02  0.25029044525E+02  0.00000000000E+00 0.  1.
</event>
<event>
 7    1  0.5748623E-013  0.5052886E+02  0.7816164E-02  0.1300439E+00
        -11   -1    0    0    0    0  0.00000000000E+00  0.00000000000E+00  0.45593999997E+02  0.45594000000E+02  0.51100000000E-03 0.  1.
         11   -1    0    0    0    0 -0.00000000000E+00 -0.00000000000E+00 -0.45593999997E+02  0.45594000000E+02  0.51100000000E-03 0. -1.
    9900012    2    1    2    0    0 -0.20580693675E+02 -0.32835299846E+02  0.12306264385E+02  0.50528855749E+02  0.29999987535E+02 0.  0.
         12    1    1    2    0    0  0.20580693675E+02  0.32835299846E+02 -0.12306264385E+02  0.40659144251E+02  0.00000000000E+00 0. -1.
         11    1    3    3    0    0  0.53568058338E+01 -0.20850010129E+01  0.58533036450E+01  0.82038869925E+01  0.51100000000E-03 0. -1.
        -11    1    3    3    0    0 -0.15483966062E+02 -0.25738750017E+02  0.64982330415E+01  0.30732124730E+02  0.51100000000E-03 0.  1.
         12    1    3    3    0    0 -0.10453533447E+02 -0.50115488154E+01 -0.45272301769E-01  0.11592844027E+02  0.00000000000E+00 0. -1.
</event>
<event>
 7    1  0.5748623E-013  0.5052885E+02  0.7816164E-02  0.1300439E+00
        -11   -1    0    0    0    0  0.00000000000E+00  0.00000000000E+00  0.45593999997E+02  0.45594000000E+02  0.51100000000E-03 0.  1.
         11   -1    0    0    0    0 -0.00000000000E+00 -0.00000000000E+00 -0.45593999997E+02  0.45594000000E+02  0.51100000000E-03 0. -1.
    9900012    2    1    2    0    0  0.14226321826E+02  0.37418056445E+02  0.71180680985E+01  0.50528854974E+02  0.29999985178E+02 0.  0.
         12    1    1    2    0    0 -0.14226321826E+02 -0.37418056445E+02 -0.71180680985E+01  0.40659145026E+02  0.00000000000E+00 0. -1.
         11    1    3    3    0    0 -0.55816047276E+01  0.25689179562E+02  0.65094489828E+01  0.27082488516E+02  0.51100000000E-03 0. -1.
        -11    1    3    3    0    0  0.65857939982E+01  0.17220639871E+01  0.86838190733E+00  0.68623810999E+01  0.51100000000E-03 0.  1.
         12    1    3    3    0    0  0.13222132555E+02  0.10006812896E+02 -0.25976279162E+00  0.16583985358E+02  0.00000000000E+00 0. -1.
</event>
<event>
 7    1  0.5748623E-013  0.5052886E+02  0.7816164E-02  0.1300439E+00
        -11   -1    0    0    0    0  0.00000000000E+00  0.00000000000E+00  0.45593999997E+02  0.45594000000E+02  0.51100000000E-03 0.  1.
         11   -1    0    0    0    0 -0.00000000000E+00 -0.00000000000E+00 -0.45593999997E+02  0.45594000000E+02  0.51100000000E-03 0. -1.
    9900012    2    1    2    0    0 -0.35176942589E+02  0.17783337190E+02  0.99750244440E+01  0.50528862230E+02  0.30000007235E+02 0.  0.
         12    1    1    2    0    0  0.35176942589E+02 -0.17783337190E+02 -0.99750244440E+01  0.40659137770E+02  0.00000000000E+00 0. -1.
         11    1    3    3    0    0 -0.84202002526E+00  0.70471324625E+01 -0.56863199655E+01  0.90942459103E+01  0.51100000000E-03 0. -1.
        -11    1    3    3    0    0 -0.30287740546E+02  0.61163328144E+01  0.16825818436E+02  0.35183304574E+02  0.51100000000E-03 0.  1.
        -12    1    3    3    0    0 -0.40471820181E+01  0.46198719131E+01 -0.11644740264E+01  0.62513117455E+01  0.00000000000E+00 0.  1.
</event>
<event>
 7    1  0.5748623E-013  0.5052886E+02  0.7816164E-02  0.1300439E+00
        -11   -1    0    0    0    0  0.00000000000E+00  0.00000000000E+00  0.45593999997E+02  0.45594000000E+02  0.51100000000E-03 0. -1.
         11   -1    0    0    0    0 -0.00000000000E+00 -0.00000000000E+00 -0.45593999997E+02  0.45594000000E+02  0.51100000000E-03 0.  1.
    9900012    2    1    2    0    0 -0.34161257464E+02 -0.11626207296E+02 -0.18735135118E+02  0.50528862091E+02  0.30000006813E+02 0.  0.
         12    1    1    2    0    0  0.34161257464E+02  0.11626207296E+02  0.18735135118E+02  0.40659137909E+02  0.00000000000E+00 0. -1.
         11    1    3    3    0    0 -0.15308064382E+01 -0.49276077473E+01  0.25339924101E+01  0.57485480131E+01  0.51100000000E-03 0. -1.
        -11    1    3    3    0    0 -0.23044907161E+02  0.73782531704E-01 -0.23410420542E+02  0.32849976866E+02  0.51100000000E-03 0.  1.
        -12    1    3    3    0    0 -0.95855438649E+01 -0.67723820804E+01  0.21412930140E+01  0.11930337212E+02  0.00000000000E+00 0.  1.
</event>
<event>
 7    1  0.5748623E-013  0.5052886E+02  0.7816164E-02  0.1300439E+00
        -11   -1    0    0    0    0  0.00000000000E+00  0.00000000000E+00  0.45593999997E+02  0.45594000000E+02  0.51100000000E-03 0.  1.
         11   -1    0    0    0    0 -0.00000000000E+00 -0.00000000000E+00 -0.45593999997E+02  0.45594000000E+02  0.51100000000E-03 0. -1.
    9900012    2    1    2    0    0  0.22031003364E+02 -0.34171787296E+02  0.29887789849E+00  0.50528862229E+02  0.30000007233E+02 0.  0.
         12    1    1    2    0    0 -0.22031003364E+02  0.34171787296E+02 -0.29887789849E+00  0.40659137771E+02  0.00000000000E+00 0. -1.
         11    1    3    3    0    0  0.23747025940E+01 -0.31820353239E+01 -0.10502406921E+01  0.41070143639E+01  0.51100000000E-03 0.  1.
        -11    1    3    3    0    0  0.20528342804E+02 -0.81056232661E+01 -0.50557441422E+01  0.22642317370E+02  0.51100000000E-03 0. -1.
        -12    1    3    3    0    0 -0.87204203380E+00 -0.22884128706E+02  0.64048627328E+01  0.23779530495E+02  0.00000000000E+00 0.  1.
</event>
<event>
 7    1  0.5748623E-013  0.5052886E+02  0.7816164E-02  0.1300439E+00
        -11   -1    0    0    0    0  0.00000000000E+00  0.00000000000E+00  0.45593999997E+02  0.45594000000E+02  0.51100000000E-03 0.  1.
         11   -1    0    0    0    0 -0.00000000000E+00 -0.00000000000E+00 -0.45593999997E+02  0.45594000000E+02  0.51100000000E-03 0. -1.
    9900012    2    1    2    0    0  0.16883555882E+02 -0.35214022423E+02  0.11317412588E+02  0.50528860042E+02  0.30000000583E+02 0.  0.
         12    1    1    2    0    0 -0.16883555882E+02  0.35214022423E+02 -0.11317412588E+02  0.40659139958E+02  0.00000000000E+00 0. -1.
         11    1    3    3    0    0 -0.18831601548E-01  0.10070488485E+01  0.15421821949E+01  0.18419631364E+01  0.51100000000E-03 0. -1.
        -11    1    3    3    0    0  0.22932571773E+02 -0.32591646379E+02  0.11427709355E+02  0.41457337145E+02  0.51100000000E-03 0.  1.
        -12    1    3    3    0    0 -0.60301842888E+01 -0.36294248926E+01 -0.16524789618E+01  0.72295597602E+01  0.00000000000E+00 0.  1.
</event>
<event>
 7    1  0.5748623E-013  0.5052885E+02  0.7816164E-02  0.1300439E+00
        -11   -1    0    0    0    0  0.00000000000E+00  0.00000000000E+00  0.45593999997E+02  0.45594000000E+02  0.51100000000E-03 0.  1.
         11   -1    0    0    0    0 -0.00000000000E+00 -0.00000000000E+00 -0.45593999997E+02  0.45594000000E+02  0.51100000000E-03 0. -1.
    9900012    2    1    2    0    0  0.10801659766E+02  0.21427631996E+02  0.32822964395E+02  0.50528852710E+02  0.29999978297E+02 0.  0.
         12    1    1    2    0    0 -0.10801659766E+02 -0.21427631996E+02 -0.32822964395E+02  0.40659147290E+02  0.00000000000E+00 0. -1.
         11    1    3    3    0    0  0.14953772693E+02  0.12459384489E+02  0.20940055704E+02  0.28589115284E+02  0.51100000000E-03 0. -1.
        -11    1    3    3    0    0 -0.50742692541E+01  0.10021670501E+02  0.14872859381E+02  0.18638241186E+02  0.51100000000E-03 0.  1.
        -12    1    3    3    0    0  0.92215632682E+00 -0.10534229940E+01 -0.29899506893E+01  0.33014962396E+01  0.00000000000E+00 0.  1.
</event>
<event>
 7    1  0.5748623E-013  0.5052885E+02  0.7816164E-02  0.1300439E+00
        -11   -1    0    0    0    0  0.00000000000E+00  0.00000000000E+00  0.45593999997E+02  0.45594000000E+02  0.51100000000E-03 0.  1.
         11   -1    0    0    0    0 -0.00000000000E+00 -0.00000000000E+00 -0.45593999997E+02  0.45594000000E+02  0.51100000000E-03 0. -1.
    9900012    2    1    2    0    0 -0.12837733213E+02  0.38455111232E+02 -0.30924467131E+01  0.50528853420E+02  0.29999980457E+02 0.  0.
         12    1    1    2    0    0  0.12837733213E+02 -0.38455111232E+02  0.30924467131E+01  0.40659146580E+02  0.00000000000E+00 0. -1.
         11    1    3    3    0    0 -0.86105934295E+01 -0.11885397277E+01 -0.10268559771E+01  0.87526784102E+01  0.51100000000E-03 0. -1.
        -11    1    3    3    0    0  0.16805359361E+01  0.29430429162E+02  0.12992800910E+01  0.29506990540E+02  0.51100000000E-03 0.  1.
        -12    1    3    3    0    0 -0.59076757194E+01  0.10213221798E+02 -0.33648708270E+01  0.12269184471E+02  0.00000000000E+00 0.  1.
</event>
<event>
 7    1  0.5748623E-013  0.5052888E+02  0.7816164E-02  0.1300439E+00
        -11   -1    0    0    0    0  0.00000000000E+00  0.00000000000E+00  0.45593999997E+02  0.45594000000E+02  0.51100000000E-03 0. -1.
         11   -1    0    0    0    0 -0.00000000000E+00 -0.00000000000E+00 -0.45593999997E+02  0.45594000000E+02  0.51100000000E-03 0.  1.
    9900012    2    1    2    0    0  0.99558769567E+01 -0.41961463359E+01 -0.39197409209E+02  0.50528880251E+02  0.30000062011E+02 0.  0.
         12    1    1    2    0    0 -0.99558769567E+01  0.41961463359E+01  0.39197409209E+02  0.40659119749E+02  0.00000000000E+00 0. -1.
         11    1    3    3    0    0  0.19277446849E+01  0.10970185331E+02 -0.24709742984E+02  0.27104106043E+02  0.51100000000E-03 0. -1.
        -11    1    3    3    0    0  0.35632803868E+01 -0.73070129871E+01 -0.11128807706E+02  0.13781863703E+02  0.51100000000E-03 0.  1.
         12    1    3    3    0    0  0.44648518850E+01 -0.78593186797E+01 -0.33588585189E+01  0.96429105053E+01  0.00000000000E+00 0. -1.
</event>
<event>
 7    1  0.5748623E-013  0.5052886E+02  0.7816164E-02  0.1300439E+00
        -11   -1    0    0    0    0  0.00000000000E+00  0.00000000000E+00  0.45593999997E+02  0.45594000000E+02  0.51100000000E-03 0.  1.
         11   -1    0    0    0    0 -0.00000000000E+00 -0.00000000000E+00 -0.45593999997E+02  0.45594000000E+02  0.51100000000E-03 0. -1.
    9900012    2    1    2    0    0  0.31262374805E+02 -0.25812812029E+02  0.30867323355E+01  0.50528864990E+02  0.30000015623E+02 0.  0.
         12    1    1    2    0    0 -0.31262374805E+02  0.25812812029E+02 -0.30867323355E+01  0.40659135010E+02  0.00000000000E+00 0. -1.
         11    1    3    3    0    0  0.13749850245E+02  0.11642338418E+01 -0.52474639449E+01  0.14763119600E+02  0.51100000000E-03 0. -1.
        -11    1    3    3    0    0  0.44087527534E+01 -0.11368465263E+02  0.93424585498E+01  0.15361010231E+02  0.51100000000E-03 0.  1.
         12    1    3    3    0    0  0.13103771806E+02 -0.15608580607E+02 -0.10082622694E+01  0.20404735159E+02  0.00000000000E+00 0. -1.
</event>
<event>
 7    1  0.5748623E-013  0.5052887E+02  0.7816164E-02  0.1300439E+00
        -11   -1    0    0    0    0  0.00000000000E+00  0.00000000000E+00  0.45593999997E+02  0.45594000000E+02  0.51100000000E-03 0.  1.
         11   -1    0    0    0    0 -0.00000000000E+00 -0.00000000000E+00 -0.45593999997E+02  0.45594000000E+02  0.51100000000E-03 0. -1.
    9900012    2    1    2    0    0  0.14045825495E+02  0.24372912190E+02  0.29357129340E+02  0.50528866886E+02  0.30000021387E+02 0.  0.
         12    1    1    2    0    0 -0.14045825495E+02 -0.24372912190E+02 -0.29357129340E+02  0.40659133114E+02  0.00000000000E+00 0. -1.
         11    1    3    3    0    0 -0.45995598830E+01  0.18595262559E+02  0.21677663239E+02  0.28928546879E+02  0.51100000000E-03 0. -1.
        -11    1    3    3    0    0  0.14865648594E+02  0.57659168238E+01  0.79386936687E+01  0.17811686118E+02  0.51100000000E-03 0.  1.
         12    1    3    3    0    0  0.37797367844E+01  0.11732807494E-01 -0.25922756731E+00  0.37886338896E+01  0.00000000000E+00 0. -1.
</event>
<event>
 7    1  0.5748623E-013  0.5052886E+02  0.7816164E-02  0.1300439E+00
        -11   -1    0    0    0    0  0.00000000000E+00  0.00000000000E+00  0.45593999997E+02  0.45594000000E+02  0.51100000000E-03 0.  1.
         11   -1    0    0    0    0 -0.00000000000E+00 -0.00000000000E+00 -0.45593999997E+02  0.45594000000E+02  0.51100000000E-03 0. -1.
    9900012    2    1    2    0    0  0.31106933048E+02  0.15022729665E+02  0.21443920799E+02  0.50528862903E+02  0.30000009280E+02 0.  0.
         12    1    1    2    0    0 -0.31106933048E+02 -0.15022729665E+02 -0.21443920799E+02  0.40659137097E+02  0.00000000000E+00 0. -1.
         11    1    3    3    0    0  0.82486579376E+01  0.43457567748E+01 -0.54701211576E+01  0.10809633919E+02  0.51100000000E-03 0. -1.
        -11    1    3    3    0    0  0.51304402690E+01  0.15361514917E+01  0.16233151739E+02  0.17093753081E+02  0.51100000000E-03 0.  1.
        -12    1    3    3    0    0  0.17727834841E+02  0.91408213988E+01  0.10680890218E+02  0.22625475903E+02  0.00000000000E+00 0.  1.
</event>
<event>
 7    1  0.5748623E-013  0.5052887E+02  0.7816164E-02  0.1300439E+00
        -11   -1    0    0    0    0  0.00000000000E+00  0.00000000000E+00  0.45593999997E+02  0.45594000000E+02  0.51100000000E-03 0.  1.
         11   -1    0    0    0    0 -0.00000000000E+00 -0.00000000000E+00 -0.45593999997E+02  0.45594000000E+02  0.51100000000E-03 0. -1.
    9900012    2    1    2    0    0 -0.28955353005E+02 -0.24861837913E+02  0.14022897422E+02  0.50528866903E+02  0.30000021440E+02 0.  0.
         12    1    1    2    0    0  0.28955353005E+02  0.24861837913E+02 -0.14022897422E+02  0.40659133097E+02  0.00000000000E+00 0. -1.
         11    1    3    3    0    0 -0.47684617727E+01 -0.10012085541E+02  0.15255053561E+01  0.11194072155E+02  0.51100000000E-03 0. -1.
        -11    1    3    3    0    0 -0.30273932094E+01 -0.62104440223E+01  0.14830397997E+02  0.16360789394E+02  0.51100000000E-03 0.  1.
        -12    1    3    3    0    0 -0.21159498023E+02 -0.86393083500E+01 -0.23330059311E+01  0.22974005354E+02  0.00000000000E+00 0.  1.
</event>
<event>
 7    1  0.5748623E-013  0.5052885E+02  0.7816164E-02  0.1300439E+00
        -11   -1    0    0    0    0  0.00000000000E+00  0.00000000000E+00  0.45593999997E+02  0.45594000000E+02  0.51100000000E-03 0. -1.
         11   -1    0    0    0    0 -0.00000000000E+00 -0.00000000000E+00 -0.45593999997E+02  0.45594000000E+02  0.51100000000E-03 0.  1.
    9900012    2    1    2    0    0  0.34086476563E+02 -0.18893151916E+02  0.11589965990E+02  0.50528851147E+02  0.29999973546E+02 0.  0.
         12    1    1    2    0    0 -0.34086476563E+02  0.18893151916E+02 -0.11589965990E+02  0.40659148853E+02  0.00000000000E+00 0. -1.
         11    1    3    3    0    0  0.24871318873E+02 -0.97188040260E+01  0.12428674307E+02  0.29453515910E+02  0.51100000000E-03 0. -1.
        -11    1    3    3    0    0 -0.36459654258E+01  0.64219649591E+00  0.26136041777E+01  0.45317112976E+01  0.51100000000E-03 0.  1.
         12    1    3    3    0    0  0.12861123116E+02 -0.98165443856E+01 -0.34523124949E+01  0.16543623939E+02  0.00000000000E+00 0. -1.
</event>
<event>
 7    1  0.5748623E-013  0.5052889E+02  0.7816164E-02  0.1300439E+00
        -11   -1    0    0    0    0  0.00000000000E+00  0.00000000000E+00  0.45593999997E+02  0.45594000000E+02  0.51100000000E-03 0. -1.
         11   -1    0    0    0    0 -0.00000000000E+00 -0.00000000000E+00 -0.45593999997E+02  0.45594000000E+02  0.51100000000E-03 0.  1.
    9900012    2    1    2    0    0  0.36793475747E+02  0.17164077181E+02  0.21904409301E+01  0.50528887436E+02  0.30000083850E+02 0.  0.
         12    1    1    2    0    0 -0.36793475747E+02 -0.17164077181E+02 -0.21904409301E+01  0.40659112564E+02  0.00000000000E+00 0. -1.
         11    1    3    3    0    0  0.49714217230E+01  0.10787130784E+02  0.57081678394E+01  0.13178027350E+02  0.51100000000E-03 0. -1.
        -11    1    3    3    0    0  0.21337093214E+02 -0.19529600928E+00  0.55044598963E+01  0.22036532539E+02  0.51100000000E-03 0.  1.
        -12    1    3    3    0    0  0.10484960811E+02  0.65722424061E+01 -0.90221868057E+01  0.15314327546E+02  0.00000000000E+00 0.  1.
</event>
<event>
 7    1  0.5748623E-013  0.5052889E+02  0.7816164E-02  0.1300439E+00
        -11   -1    0    0    0    0  0.00000000000E+00  0.00000000000E+00  0.45593999997E+02  0.45594000000E+02  0.51100000000E-03 0.  1.
         11   -1    0    0    0    0 -0.00000000000E+00 -0.00000000000E+00 -0.45593999997E+02  0.45594000000E+02  0.51100000000E-03 0. -1.
    9900012    2    1    2    0    0 -0.29663259544E+02  0.24945546293E+02  0.12287133999E+02  0.50528893903E+02  0.30000103508E+02 0.  0.
         12    1    1    2    0    0  0.29663259544E+02 -0.24945546293E+02 -0.12287133999E+02  0.40659106097E+02  0.00000000000E+00 0. -1.
         11    1    3    3    0    0 -0.92861129748E+01  0.12868023508E+02  0.16909180134E+02  0.23189184899E+02  0.51100000000E-03 0.  1.
        -11    1    3    3    0    0 -0.17434554018E+02  0.11435453539E+02 -0.84254188638E+01  0.22488240366E+02  0.51100000000E-03 0. -1.
         12    1    3    3    0    0 -0.29425925511E+01  0.64206924648E+00  0.38033727287E+01  0.48514686387E+01  0.00000000000E+00 0. -1.
</event>
<event>
 7    1  0.5748623E-013  0.5052886E+02  0.7816164E-02  0.1300439E+00
        -11   -1    0    0    0    0  0.00000000000E+00  0.00000000000E+00  0.45593999997E+02  0.45594000000E+02  0.51100000000E-03 0. -1.
         11   -1    0    0    0    0 -0.00000000000E+00 -0.00000000000E+00 -0.45593999997E+02  0.45594000000E+02  0.51100000000E-03 0.  1.
    9900012    2    1    2    0    0  0.51308141966E+01  0.20544468382E+02 -0.34709723984E+02  0.50528863580E+02  0.30000011336E+02 0.  0.
         12    1    1    2    0    0 -0.51308141966E+01 -0.20544468382E+02  0.34709723984E+02  0.40659136420E+02  0.00000000000E+00 0. -1.
         11    1    3    3    0    0  0.82464984659E+00  0.11323490091E+02 -0.29297594362E+02  0.31420542816E+02  0.51100000000E-03 0.  1.
        -11    1    3    3    0    0 -0.17533902669E+01  0.58126543137E+01  0.41001833601E+01  0.73261744073E+01  0.51100000000E-03 0. -1.
        -12    1    3    3    0    0  0.60595546170E+01  0.34083239782E+01 -0.95123129821E+01  0.11782146356E+02  0.00000000000E+00 0.  1.
</event>
<event>
 7    1  0.5748623E-013  0.5052886E+02  0.7816164E-02  0.1300439E+00
        -11   -1    0    0    0    0  0.00000000000E+00  0.00000000000E+00  0.45593999997E+02  0.45594000000E+02  0.51100000000E-03 0.  1.
         11   -1    0    0    0    0 -0.00000000000E+00 -0.00000000000E+00 -0.45593999997E+02  0.45594000000E+02  0.51100000000E-03 0. -1.
    9900012    2    1    2    0    0 -0.74965384434E+01 -0.15574442444E+02  0.36802236594E+02  0.50528856325E+02  0.29999989284E+02 0.  0.
         12    1    1    2    0    0  0.74965384434E+01  0.15574442444E+02 -0.36802236594E+02  0.40659143675E+02  0.00000000000E+00 0. -1.
         11    1    3    3    0    0 -0.35379276471E+01 -0.66818977059E+01  0.61235744992E+01  0.97294837425E+01  0.51100000000E-03 0. -1.
        -11    1    3    3    0    0  0.31614111658E+01  0.69048291444E+01  0.17347142466E+02  0.18936592568E+02  0.51100000000E-03 0.  1.
        -12    1    3    3    0    0 -0.71200219622E+01 -0.15797373883E+02  0.13331519629E+02  0.21862780014E+02  0.00000000000E+00 0.  1.
</event>
<event>
 7    1  0.5748623E-013  0.5052886E+02  0.7816164E-02  0.1300439E+00
        -11   -1    0    0    0    0  0.00000000000E+00  0.00000000000E+00  0.45593999997E+02  0.45594000000E+02  0.51100000000E-03 0. -1.
         11   -1    0    0    0    0 -0.00000000000E+00 -0.00000000000E+00 -0.45593999997E+02  0.45594000000E+02  0.51100000000E-03 0.  1.
    9900012    2    1    2    0    0 -0.13391676751E+02  0.11843275134E+02 -0.36518014257E+02  0.50528861576E+02  0.30000005247E+02 0.  0.
         12    1    1    2    0    0  0.13391676751E+02 -0.11843275134E+02  0.36518014257E+02  0.40659138424E+02  0.00000000000E+00 0. -1.
         11    1    3    3    0    0  0.23715256697E+01 -0.45567571230E+00 -0.82665500046E+00  0.25524758780E+01  0.51100000000E-03 0. -1.
        -11    1    3    3    0    0 -0.10721492405E+02  0.48829172117E+01 -0.37075872924E+02  0.38902617305E+02  0.51100000000E-03 0.  1.
        -12    1    3    3    0    0 -0.50417100154E+01  0.74160336348E+01  0.13845136676E+01  0.90737683929E+01  0.00000000000E+00 0.  1.
</event>
<event>
 7    1  0.5748623E-013  0.5052886E+02  0.7816164E-02  0.1300439E+00
        -11   -1    0    0    0    0  0.00000000000E+00  0.00000000000E+00  0.45593999997E+02  0.45594000000E+02  0.51100000000E-03 0. -1.
         11   -1    0    0    0    0 -0.00000000000E+00 -0.00000000000E+00 -0.45593999997E+02  0.45594000000E+02  0.51100000000E-03 0.  1.
    9900012    2    1    2    0    0  0.18558236675E+02 -0.34435430536E+02 -0.11088678966E+02  0.50528858028E+02  0.29999994463E+02 0.  0.
         12    1    1    2    0    0 -0.18558236675E+02  0.34435430536E+02  0.11088678966E+02  0.40659141972E+02  0.00000000000E+00 0. -1.
         11    1    3    3    0    0 -0.24734168640E+01 -0.13124088483E+02  0.45340711349E+01  0.14103804126E+02  0.51100000000E-03 0. -1.
        -11    1    3    3    0    0  0.20540669659E+02 -0.21291763091E+02 -0.17575402230E+02  0.34411524949E+02  0.51100000000E-03 0.  1.
        -12    1    3    3    0    0  0.49098388053E+00 -0.19578962018E-01  0.19526521295E+01  0.20135289532E+01  0.00000000000E+00 0.  1.
</event>
<event>
 7    1  0.5748623E-013  0.5052886E+02  0.7816164E-02  0.1300439E+00
        -11   -1    0    0    0    0  0.00000000000E+00  0.00000000000E+00  0.45593999997E+02  0.45594000000E+02  0.51100000000E-03 0.  1.
         11   -1    0    0    0    0 -0.00000000000E+00 -0.00000000000E+00 -0.45593999997E+02  0.45594000000E+02  0.51100000000E-03 0. -1.
    9900012    2    1    2    0    0  0.12706576901E+02 -0.97143170771E+01  0.37381020871E+02  0.50528858664E+02  0.29999996396E+02 0.  0.
         12    1    1    2    0    0 -0.12706576901E+02  0.97143170771E+01 -0.37381020871E+02  0.40659141336E+02  0.00000000000E+00 0. -1.
         11    1    3    3    0    0  0.10425120250E+01  0.70422832066E+00 -0.12097664292E+01  0.17453664155E+01  0.51100000000E-03 0. -1.
        -11    1    3    3    0    0  0.16024261742E+01 -0.96449257910E+01  0.37359079746E+02  0.38617265606E+02  0.51100000000E-03 0.  1.
        -12    1    3    3    0    0  0.10061638702E+02 -0.77361960674E+00  0.12317075542E+01  0.10166226643E+02  0.00000000000E+00 0.  1.
</event>
<event>
 7    1  0.5748623E-013  0.5052886E+02  0.7816164E-02  0.1300439E+00
        -11   -1    0    0    0    0  0.00000000000E+00  0.00000000000E+00  0.45593999997E+02  0.45594000000E+02  0.51100000000E-03 0. -1.
         11   -1    0    0    0    0 -0.00000000000E+00 -0.00000000000E+00 -0.45593999997E+02  0.45594000000E+02  0.51100000000E-03 0.  1.
    9900012    2    1    2    0    0 -0.33238984554E+02 -0.71208353653E+01 -0.22307606601E+02  0.50528859543E+02  0.29999999065E+02 0.  0.
         12    1    1    2    0    0  0.33238984554E+02  0.71208353653E+01  0.22307606601E+02  0.40659140457E+02  0.00000000000E+00 0. -1.
         11    1    3    3    0    0 -0.62267941500E+00 -0.59826179397E+01 -0.13904187547E+02  0.15149451431E+02  0.51100000000E-03 0. -1.
        -11    1    3    3    0    0 -0.29196845187E+02 -0.37309739262E+01 -0.95373088187E+01  0.30940849941E+02  0.51100000000E-03 0.  1.
         12    1    3    3    0    0 -0.34194599516E+01  0.25927565006E+01  0.11338897643E+01  0.44385581701E+01  0.00000000000E+00 0. -1.
</event>
<event>
 7    1  0.5748623E-013  0.5052887E+02  0.7816164E-02  0.1300439E+00
        -11   -1    0    0    0    0  0.00000000000E+00  0.00000000000E+00  0.45593999997E+02  0.45594000000E+02  0.51100000000E-03 0.  1.
         11   -1    0    0    0    0 -0.00000000000E+00 -0.00000000000E+00 -0.45593999997E+02  0.45594000000E+02  0.51100000000E-03 0. -1.
    9900012    2    1    2    0    0  0.43111450077E+01 -0.15712185649E+02  0.37251932317E+02  0.50528865596E+02  0.30000017465E+02 0.  0.
         12    1    1    2    0    0 -0.43111450077E+01  0.15712185649E+02 -0.37251932317E+02  0.40659134404E+02  0.00000000000E+00 0. -1.
         11    1    3    3    0    0 -0.46990756135E+00 -0.11405273563E+02  0.11872027405E+02  0.16469551091E+02  0.51100000000E-03 0. -1.
        -11    1    3    3    0    0 -0.17824323343E+01  0.73850605386E+01  0.15950671508E+02  0.17667487258E+02  0.51100000000E-03 0.  1.
        -12    1    3    3    0    0  0.65634849033E+01 -0.11691972625E+02  0.94292334039E+01  0.16391827248E+02  0.00000000000E+00 0.  1.
</event>
<event>
 7    1  0.5748623E-013  0.5052886E+02  0.7816164E-02  0.1300439E+00
        -11   -1    0    0    0    0  0.00000000000E+00  0.00000000000E+00  0.45593999997E+02  0.45594000000E+02  0.51100000000E-03 0.  1.
         11   -1    0    0    0    0 -0.00000000000E+00 -0.00000000000E+00 -0.45593999997E+02  0.45594000000E+02  0.51100000000E-03 0. -1.
    9900012    2    1    2    0    0  0.11247932528E+02  0.85269199471E+01  0.38130583468E+02  0.50528859016E+02  0.29999997465E+02 0.  0.
         12    1    1    2    0    0 -0.11247932528E+02 -0.85269199471E+01 -0.38130583468E+02  0.40659140984E+02  0.00000000000E+00 0. -1.
         11    1    3    3    0    0 -0.15378044911E+01  0.49497002996E+01  0.28900704474E+01  0.59343814472E+01  0.51100000000E-03 0. -1.
        -11    1    3    3    0    0  0.69954224823E+01 -0.91114870699E+01  0.24264078504E+02  0.26845868178E+02  0.51100000000E-03 0.  1.
        -12    1    3    3    0    0  0.57903145372E+01  0.12688706717E+02  0.10976434516E+02  0.17748609390E+02  0.00000000000E+00 0.  1.
</event>
<event>
 7    1  0.5748623E-013  0.5052886E+02  0.7816164E-02  0.1300439E+00
        -11   -1    0    0    0    0  0.00000000000E+00  0.00000000000E+00  0.45593999997E+02  0.45594000000E+02  0.51100000000E-03 0.  1.
         11   -1    0    0    0    0 -0.00000000000E+00 -0.00000000000E+00 -0.45593999997E+02  0.45594000000E+02  0.51100000000E-03 0. -1.
    9900012    2    1    2    0    0 -0.87905277950E+01 -0.34631645427E+02 -0.19404668633E+02  0.50528863158E+02  0.30000010057E+02 0.  0.
         12    1    1    2    0    0  0.87905277950E+01  0.34631645427E+02  0.19404668633E+02  0.40659136842E+02  0.00000000000E+00 0. -1.
         11    1    3    3    0    0  0.79648641922E+00 -0.13091435277E+02 -0.20664361684E+02  0.24475210158E+02  0.51100000000E-03 0. -1.
        -11    1    3    3    0    0 -0.54622171909E+01 -0.20608919575E+02  0.29024471303E+01  0.21517146240E+02  0.51100000000E-03 0.  1.
         12    1    3    3    0    0 -0.41247970233E+01 -0.93129057511E+00 -0.16427540796E+01  0.45365067601E+01  0.00000000000E+00 0. -1.
</event>
<event>
 7    1  0.5748623E-013  0.5052886E+02  0.7816164E-02  0.1300439E+00
        -11   -1    0    0    0    0  0.00000000000E+00  0.00000000000E+00  0.45593999997E+02  0.45594000000E+02  0.51100000000E-03 0. -1.
         11   -1    0    0    0    0 -0.00000000000E+00 -0.00000000000E+00 -0.45593999997E+02  0.45594000000E+02  0.51100000000E-03 0.  1.
    9900012    2    1    2    0    0 -0.35386366630E+02 -0.15508040067E+00 -0.20023647497E+02  0.50528862622E+02  0.30000008427E+02 0.  0.
         12    1    1    2    0    0  0.35386366630E+02  0.15508040067E+00  0.20023647497E+02  0.40659137378E+02  0.00000000000E+00 0. -1.
         11    1    3    3    0    0 -0.13778416440E+02  0.12446694979E+02 -0.45427789172E+01  0.19115486288E+02  0.51100000000E-03 0. -1.
        -11    1    3    3    0    0 -0.13868887633E+02 -0.11053289254E+02 -0.52568763623E+01  0.18497459200E+02  0.51100000000E-03 0.  1.
        -12    1    3    3    0    0 -0.77390625568E+01 -0.15484861258E+01 -0.10223992218E+02  0.12915917134E+02  0.00000000000E+00 0.  1.
</event>
<event>
 7    1  0.5748623E-013  0.5052887E+02  0.7816164E-02  0.1300439E+00
        -11   -1    0    0    0    0  0.00000000000E+00  0.00000000000E+00  0.45593999997E+02  0.45594000000E+02  0.51100000000E-03 0. -1.
         11   -1    0    0    0    0 -0.00000000000E+00 -0.00000000000E+00 -0.45593999997E+02  0.45594000000E+02  0.51100000000E-03 0.  1.
    9900012    2    1    2    0    0 -0.93990641986E+01  0.64041629829E+01 -0.39035994286E+02  0.50528873580E+02  0.30000041735E+02 0.  0.
         12    1    1    2    0    0  0.93990641986E+01 -0.64041629829E+01  0.39035994286E+02  0.40659126420E+02  0.00000000000E+00 0. -1.
         11    1    3    3    0    0 -0.12012861531E+02 -0.19977029741E+01 -0.42492366721E+01  0.12897894088E+02  0.51100000000E-03 0. -1.
        -11    1    3    3    0    0 -0.16329769667E+01 -0.19239305833E+01 -0.11918335523E+02  0.12182563136E+02  0.51100000000E-03 0.  1.
         12    1    3    3    0    0  0.42467742995E+01  0.10325796540E+02 -0.22868422091E+02  0.25448416357E+02  0.00000000000E+00 0. -1.
</event>
<event>
 7    1  0.5748623E-013  0.5052885E+02  0.7816164E-02  0.1300439E+00
        -11   -1    0    0    0    0  0.00000000000E+00  0.00000000000E+00  0.45593999997E+02  0.45594000000E+02  0.51100000000E-03 0.  1.
         11   -1    0    0    0    0 -0.00000000000E+00 -0.00000000000E+00 -0.45593999997E+02  0.45594000000E+02  0.51100000000E-03 0. -1.
    9900012    2    1    2    0    0  0.25417163142E+02 -0.21304286681E+02  0.23521511887E+02  0.50528851772E+02  0.29999975446E+02 0.  0.
         12    1    1    2    0    0 -0.25417163142E+02  0.21304286681E+02 -0.23521511887E+02  0.40659148228E+02  0.00000000000E+00 0. -1.
         11    1    3    3    0    0  0.41087242724E+01 -0.86701922527E+01  0.15814362085E+01  0.97239287116E+01  0.51100000000E-03 0. -1.
        -11    1    3    3    0    0  0.95469510599E+01  0.39285281055E+01  0.17015950932E+02  0.19902768501E+02  0.51100000000E-03 0.  1.
        -12    1    3    3    0    0  0.11761487810E+02 -0.16562622534E+02  0.49241247465E+01  0.20902154559E+02  0.00000000000E+00 0.  1.
</event>
<event>
 7    1  0.5748623E-013  0.5052886E+02  0.7816164E-02  0.1300439E+00
        -11   -1    0    0    0    0  0.00000000000E+00  0.00000000000E+00  0.45593999997E+02  0.45594000000E+02  0.51100000000E-03 0.  1.
         11   -1    0    0    0    0 -0.00000000000E+00 -0.00000000000E+00 -0.45593999997E+02  0.45594000000E+02  0.51100000000E-03 0. -1.
    9900012    2    1    2    0    0 -0.66284891162E+01 -0.38717813060E+02 -0.10495685810E+02  0.50528864043E+02  0.30000012746E+02 0.  0.
         12    1    1    2    0    0  0.66284891162E+01  0.38717813060E+02  0.10495685810E+02  0.40659135957E+02  0.00000000000E+00 0. -1.
         11    1    3    3    0    0 -0.26754737375E+01 -0.44429416442E+01 -0.11191378590E+02  0.12334700855E+02  0.51100000000E-03 0. -1.
        -11    1    3    3    0    0 -0.36028551789E+01 -0.12882029387E+02  0.79998479716E+01  0.15586045502E+02  0.51100000000E-03 0.  1.
         12    1    3    3    0    0 -0.35016019979E+00 -0.21392842029E+02 -0.73041551919E+01  0.22608117686E+02  0.00000000000E+00 0. -1.
</event>
<event>
 7    1  0.5748623E-013  0.5052885E+02  0.7816164E-02  0.1300439E+00
        -11   -1    0    0    0    0  0.00000000000E+00  0.00000000000E+00  0.45593999997E+02  0.45594000000E+02  0.51100000000E-03 0. -1.
         11   -1    0    0    0    0 -0.00000000000E+00 -0.00000000000E+00 -0.45593999997E+02  0.45594000000E+02  0.51100000000E-03 0.  1.
    9900012    2    1    2    0    0 -0.10386216245E+02 -0.38017414176E+02 -0.99984556737E+01  0.50528851161E+02  0.29999973588E+02 0.  0.
         12    1    1    2    0    0  0.10386216245E+02  0.38017414176E+02  0.99984556737E+01  0.40659148839E+02  0.00000000000E+00 0. -1.
         11    1    3    3    0    0  0.68319596703E+01 -0.12344467559E+02 -0.43485306171E+01  0.14763850143E+02  0.51100000000E-03 0. -1.
        -11    1    3    3    0    0 -0.17106288418E+02 -0.23162816967E+02 -0.10215911615E+02  0.30553331139E+02  0.51100000000E-03 0.  1.
         12    1    3    3    0    0 -0.11188749763E+00 -0.25101296492E+01  0.45659865588E+01  0.52116698786E+01  0.00000000000E+00 0. -1.
</event>
<event>
 7    1  0.5748623E-013  0.5052886E+02  0.7816164E-02  0.1300439E+00
        -11   -1    0    0    0    0  0.00000000000E+00  0.00000000000E+00  0.45593999997E+02  0.45594000000E+02  0.51100000000E-03 0. -1.
         11   -1    0    0    0    0 -0.00000000000E+00 -0.00000000000E+00 -0.45593999997E+02  0.45594000000E+02  0.51100000000E-03 0.  1.
    9900012    2    1    2    0    0 -0.25696173568E+02  0.15930792082E+02 -0.27186064501E+02  0.50528861108E+02  0.30000003822E+02 0.  0.
         12    1    1    2    0    0  0.25696173568E+02 -0.15930792082E+02  0.27186064501E+02  0.40659138892E+02  0.00000000000E+00 0. -1.
         11    1    3    3    0    0 -0.52187590510E+01  0.14846546968E+02 -0.26521884899E+01  0.15958994547E+02  0.51100000000E-03 0. -1.
        -11    1    3    3    0    0 -0.42022702165E+01  0.44800767819E+00 -0.15244557314E+02  0.15819491579E+02  0.51100000000E-03 0.  1.
         12    1    3    3    0    0 -0.16275144301E+02  0.63623743572E+00 -0.92893186972E+01  0.18750374981E+02  0.00000000000E+00 0. -1.
</event>
<event>
 7    1  0.5748623E-013  0.5052886E+02  0.7816164E-02  0.1300439E+00
        -11   -1    0    0    0    0  0.00000000000E+00  0.00000000000E+00  0.45593999997E+02  0.45594000000E+02  0.51100000000E-03 0.  1.
         11   -1    0    0    0    0 -0.00000000000E+00 -0.00000000000E+00 -0.45593999997E+02  0.45594000000E+02  0.51100000000E-03 0. -1.
    9900012    2    1    2    0    0  0.34382802146E+02 -0.42974138023E+01  0.21272528104E+02  0.50528864486E+02  0.30000014092E+02 0.  0.
         12    1    1    2    0    0 -0.34382802146E+02  0.42974138023E+01 -0.21272528104E+02  0.40659135514E+02  0.00000000000E+00 0. -1.
         11    1    3    3    0    0  0.11882941136E+02 -0.13488291135E+01  0.16639556884E+01  0.12074451491E+02  0.51100000000E-03 0.  1.
        -11    1    3    3    0    0 -0.42654346779E+01 -0.11781724611E+01 -0.11083435954E+01  0.45618471178E+01  0.51100000000E-03 0. -1.
        -12    1    3    3    0    0  0.26765295688E+02 -0.17704122277E+01  0.20716916011E+02  0.33892565877E+02  0.00000000000E+00 0.  1.
</event>
<event>
 7    1  0.5748623E-013  0.5052886E+02  0.7816164E-02  0.1300439E+00
        -11   -1    0    0    0    0  0.00000000000E+00  0.00000000000E+00  0.45593999997E+02  0.45594000000E+02  0.51100000000E-03 0.  1.
         11   -1    0    0    0    0 -0.00000000000E+00 -0.00000000000E+00 -0.45593999997E+02  0.45594000000E+02  0.51100000000E-03 0. -1.
    9900012    2    1    2    0    0 -0.15740186112E+02 -0.49796129862E+01  0.37156633518E+02  0.50528863035E+02  0.30000009682E+02 0.  0.
         12    1    1    2    0    0  0.15740186112E+02  0.49796129862E+01 -0.37156633518E+02  0.40659136965E+02  0.00000000000E+00 0. -1.
         11    1    3    3    0    0  0.47640961274E+01 -0.70803154187E+01  0.29054462699E+01  0.90149374167E+01  0.51100000000E-03 0. -1.
        -11    1    3    3    0    0 -0.12538333500E+02 -0.41495386982E+01  0.21486845271E+02  0.25221280664E+02  0.51100000000E-03 0.  1.
         12    1    3    3    0    0 -0.79659487385E+01  0.62502411307E+01  0.12764341977E+02  0.16292644954E+02  0.00000000000E+00 0. -1.
</event>
<event>
 7    1  0.5748623E-013  0.5052887E+02  0.7816164E-02  0.1300439E+00
        -11   -1    0    0    0    0  0.00000000000E+00  0.00000000000E+00  0.45593999997E+02  0.45594000000E+02  0.51100000000E-03 0. -1.
         11   -1    0    0    0    0 -0.00000000000E+00 -0.00000000000E+00 -0.45593999997E+02  0.45594000000E+02  0.51100000000E-03 0.  1.
    9900012    2    1    2    0    0 -0.96340051760E+01 -0.20968345353E+02 -0.33476550216E+02  0.50528868468E+02  0.30000026195E+02 0.  0.
         12    1    1    2    0    0  0.96340051760E+01  0.20968345353E+02  0.33476550216E+02  0.40659131532E+02  0.00000000000E+00 0. -1.
         11    1    3    3    0    0 -0.25866413467E+01 -0.15646402001E+02 -0.41792733569E+01  0.16400211434E+02  0.51100000000E-03 0. -1.
        -11    1    3    3    0    0 -0.35866920274E+01  0.49024740262E+01 -0.15234023705E+02  0.16400429561E+02  0.51100000000E-03 0.  1.
         12    1    3    3    0    0 -0.34606718019E+01 -0.10224417379E+02 -0.14063253154E+02  0.17728227473E+02  0.00000000000E+00 0. -1.
</event>
<event>
 7    1  0.5748623E-013  0.5052886E+02  0.7816164E-02  0.1300439E+00
        -11   -1    0    0    0    0  0.00000000000E+00  0.00000000000E+00  0.45593999997E+02  0.45594000000E+02  0.51100000000E-03 0.  1.
         11   -1    0    0    0    0 -0.00000000000E+00 -0.00000000000E+00 -0.45593999997E+02  0.45594000000E+02  0.51100000000E-03 0. -1.
    9900012    2    1    2    0    0  0.36534938844E+02  0.13641415456E+02  0.11501113707E+02  0.50528860948E+02  0.30000003338E+02 0.  0.
         12    1    1    2    0    0 -0.36534938844E+02 -0.13641415456E+02 -0.11501113707E+02  0.40659139052E+02  0.00000000000E+00 0. -1.
         11    1    3    3    0    0  0.15049769609E+02  0.20260604244E+01  0.14356804812E+02  0.20897806842E+02  0.51100000000E-03 0. -1.
        -11    1    3    3    0    0  0.21157840005E+02  0.74745739745E+01 -0.72527373001E+01  0.23582316434E+02  0.51100000000E-03 0.  1.
        -12    1    3    3    0    0  0.32732922930E+00  0.41407810573E+01  0.43970461949E+01  0.60487376723E+01  0.00000000000E+00 0.  1.
</event>
<event>
 7    1  0.5748623E-013  0.5052898E+02  0.7816164E-02  0.1300438E+00
        -11   -1    0    0    0    0  0.00000000000E+00  0.00000000000E+00  0.45593999997E+02  0.45594000000E+02  0.51100000000E-03 0.  1.
         11   -1    0    0    0    0 -0.00000000000E+00 -0.00000000000E+00 -0.45593999997E+02  0.45594000000E+02  0.51100000000E-03 0. -1.
    9900012    2    1    2    0    0  0.28463689467E+02  0.17596130799E+02  0.23094376800E+02  0.50528982833E+02  0.30000373817E+02 0.  0.
         12    1    1    2    0    0 -0.28463689467E+02 -0.17596130799E+02 -0.23094376800E+02  0.40659017167E+02  0.00000000000E+00 0. -1.
         11    1    3    3    0    0  0.45547792736E+01  0.80998368292E+01 -0.43693077095E+01  0.10268603654E+02  0.51100000000E-03 0. -1.
        -11    1    3    3    0    0  0.16991728774E+02  0.12779449278E+02  0.16621768859E+02  0.26987337231E+02  0.51100000000E-03 0.  1.
         12    1    3    3    0    0  0.69171814197E+01 -0.32831553075E+01  0.10841915650E+02  0.13273041947E+02  0.00000000000E+00 0. -1.
</event>
<event>
 7    1  0.5748623E-013  0.5052884E+02  0.7816164E-02  0.1300439E+00
        -11   -1    0    0    0    0  0.00000000000E+00  0.00000000000E+00  0.45593999997E+02  0.45594000000E+02  0.51100000000E-03 0. -1.
         11   -1    0    0    0    0 -0.00000000000E+00 -0.00000000000E+00 -0.45593999997E+02  0.45594000000E+02  0.51100000000E-03 0.  1.
    9900012    2    1    2    0    0  0.75411456786E+01  0.37509903735E+02 -0.13758828799E+02  0.50528842036E+02  0.29999945854E+02 0.  0.
         12    1    1    2    0    0 -0.75411456786E+01 -0.37509903735E+02  0.13758828799E+02  0.40659157964E+02  0.00000000000E+00 0. -1.
         11    1    3    3    0    0 -0.32015332674E+01  0.26161902055E+01 -0.11017715758E+00  0.41359890861E+01  0.51100000000E-03 0. -1.
        -11    1    3    3    0    0  0.43427973233E+01  0.27804460124E+02 -0.20347506407E+02  0.34727063058E+02  0.51100000000E-03 0.  1.
        -12    1    3    3    0    0  0.63998816227E+01  0.70892534062E+01  0.66988547660E+01  0.11665789893E+02  0.00000000000E+00 0.  1.
</event>
<event>
 7    1  0.5748623E-013  0.5052886E+02  0.7816164E-02  0.1300439E+00
        -11   -1    0    0    0    0  0.00000000000E+00  0.00000000000E+00  0.45593999997E+02  0.45594000000E+02  0.51100000000E-03 0.  1.
         11   -1    0    0    0    0 -0.00000000000E+00 -0.00000000000E+00 -0.45593999997E+02  0.45594000000E+02  0.51100000000E-03 0. -1.
    9900012    2    1    2    0    0 -0.80447747741E+00 -0.40045402061E+02  0.69917120473E+01  0.50528862680E+02  0.30000008603E+02 0.  0.
         12    1    1    2    0    0  0.80447747741E+00  0.40045402061E+02 -0.69917120473E+01  0.40659137320E+02  0.00000000000E+00 0. -1.
         11    1    3    3    0    0 -0.32094102996E+01 -0.12297226378E+02  0.88845430605E+01  0.15506682324E+02  0.51100000000E-03 0. -1.
        -11    1    3    3    0    0  0.11280620870E+02 -0.14985252497E+02 -0.44251555782E+01  0.19271538646E+02  0.51100000000E-03 0.  1.
        -12    1    3    3    0    0 -0.88756880481E+01 -0.12762923186E+02  0.25323245651E+01  0.15750641710E+02  0.00000000000E+00 0.  1.
</event>
<event>
 7    1  0.5748623E-013  0.5052886E+02  0.7816164E-02  0.1300439E+00
        -11   -1    0    0    0    0  0.00000000000E+00  0.00000000000E+00  0.45593999997E+02  0.45594000000E+02  0.51100000000E-03 0.  1.
         11   -1    0    0    0    0 -0.00000000000E+00 -0.00000000000E+00 -0.45593999997E+02  0.45594000000E+02  0.51100000000E-03 0. -1.
    9900012    2    1    2    0    0  0.18831299172E+02  0.33642791582E+02 -0.12911644916E+02  0.50528857997E+02  0.29999994369E+02 0.  0.
         12    1    1    2    0    0 -0.18831299172E+02 -0.33642791582E+02  0.12911644916E+02  0.40659142003E+02  0.00000000000E+00 0. -1.
         11    1    3    3    0    0 -0.54310677469E+01  0.16869864951E+02 -0.93830677910E+01  0.20053199290E+02  0.51100000000E-03 0. -1.
        -11    1    3    3    0    0  0.71066096884E+01  0.76681487226E+01  0.10913250660E+01  0.10511679065E+02  0.51100000000E-03 0.  1.
         12    1    3    3    0    0  0.17155757231E+02  0.91047779084E+01 -0.46199021910E+01  0.19963979643E+02  0.00000000000E+00 0. -1.
</event>
<event>
 7    1  0.5748623E-013  0.5052886E+02  0.7816164E-02  0.1300439E+00
        -11   -1    0    0    0    0  0.00000000000E+00  0.00000000000E+00  0.45593999997E+02  0.45594000000E+02  0.51100000000E-03 0.  1.
         11   -1    0    0    0    0 -0.00000000000E+00 -0.00000000000E+00 -0.45593999997E+02  0.45594000000E+02  0.51100000000E-03 0. -1.
    9900012    2    1    2    0    0 -0.58251449196E+01 -0.29230361014E+02  0.27655364673E+02  0.50528861870E+02  0.30000006139E+02 0.  0.
         12    1    1    2    0    0  0.58251449196E+01  0.29230361014E+02 -0.27655364673E+02  0.40659138130E+02  0.00000000000E+00 0. -1.
         11    1    3    3    0    0  0.82635554422E+01 -0.13961970587E+01  0.28125348729E+01  0.88400264392E+01  0.51100000000E-03 0. -1.
        -11    1    3    3    0    0 -0.28011965688E+01 -0.10029202294E+02  0.15397957556E+02  0.18588402246E+02  0.51100000000E-03 0.  1.
         12    1    3    3    0    0 -0.11287503793E+02 -0.17804961661E+02  0.94448722435E+01  0.23100433185E+02  0.00000000000E+00 0. -1.
</event>
<event>
 7    1  0.5748623E-013  0.5052885E+02  0.7816164E-02  0.1300439E+00
        -11   -1    0    0    0    0  0.00000000000E+00  0.00000000000E+00  0.45593999997E+02  0.45594000000E+02  0.51100000000E-03 0.  1.
         11   -1    0    0    0    0 -0.00000000000E+00 -0.00000000000E+00 -0.45593999997E+02  0.45594000000E+02  0.51100000000E-03 0. -1.
    9900012    2    1    2    0    0 -0.27924109187E+02 -0.48637903046E+01  0.29150542456E+02  0.50528850286E+02  0.29999970928E+02 0.  0.
         12    1    1    2    0    0  0.27924109187E+02  0.48637903046E+01 -0.29150542456E+02  0.40659149714E+02  0.00000000000E+00 0. -1.
         11    1    3    3    0    0 -0.73636523764E+00 -0.12249588596E+02  0.91080415698E+01  0.15282377958E+02  0.51100000000E-03 0. -1.
        -11    1    3    3    0    0 -0.90637753212E+01  0.33947939234E+01  0.32250242175E+01  0.10201834655E+02  0.51100000000E-03 0.  1.
         12    1    3    3    0    0 -0.18123968628E+02  0.39910043682E+01  0.16817476669E+02  0.25044637674E+02  0.00000000000E+00 0. -1.
</event>
<event>
 7    1  0.5748623E-013  0.5052886E+02  0.7816164E-02  0.1300439E+00
        -11   -1    0    0    0    0  0.00000000000E+00  0.00000000000E+00  0.45593999997E+02  0.45594000000E+02  0.51100000000E-03 0. -1.
         11   -1    0    0    0    0 -0.00000000000E+00 -0.00000000000E+00 -0.45593999997E+02  0.45594000000E+02  0.51100000000E-03 0.  1.
    9900012    2    1    2    0    0  0.14338977230E+02  0.17147507403E+02 -0.33963543217E+02  0.50528861470E+02  0.30000004925E+02 0.  0.
         12    1    1    2    0    0 -0.14338977230E+02 -0.17147507403E+02  0.33963543217E+02  0.40659138530E+02  0.00000000000E+00 0. -1.
         11    1    3    3    0    0  0.11020912872E+01  0.50782816620E+01  0.51684685126E+01  0.73291620852E+01  0.51100000000E-03 0. -1.
        -11    1    3    3    0    0  0.85817042349E+01  0.55041397555E+01 -0.20161844703E+02  0.22592945450E+02  0.51100000000E-03 0.  1.
         12    1    3    3    0    0  0.46551817077E+01  0.65650859851E+01 -0.18970167027E+02  0.20606753935E+02  0.00000000000E+00 0. -1.
</event>
<event>
 7    1  0.5748623E-013  0.5052886E+02  0.7816164E-02  0.1300439E+00
        -11   -1    0    0    0    0  0.00000000000E+00  0.00000000000E+00  0.45593999997E+02  0.45594000000E+02  0.51100000000E-03 0. -1.
         11   -1    0    0    0    0 -0.00000000000E+00 -0.00000000000E+00 -0.45593999997E+02  0.45594000000E+02  0.51100000000E-03 0.  1.
    9900012    2    1    2    0    0  0.27386150288E+02  0.20732639944E+02 -0.21755967471E+02  0.50528859487E+02  0.29999998898E+02 0.  0.
         12    1    1    2    0    0 -0.27386150288E+02 -0.20732639944E+02  0.21755967471E+02  0.40659140513E+02  0.00000000000E+00 0. -1.
         11    1    3    3    0    0  0.97590881429E+01 -0.41574907522E+01 -0.39115074026E+01  0.11305946274E+02  0.51100000000E-03 0. -1.
        -11    1    3    3    0    0  0.12009740244E+02  0.16381999578E+02 -0.20319811421E+02  0.28731489822E+02  0.51100000000E-03 0.  1.
        -12    1    3    3    0    0  0.56173219009E+01  0.85081311177E+01  0.24753513531E+01  0.10491423391E+02  0.00000000000E+00 0.  1.
</event>
<event>
 7    1  0.5748623E-013  0.5052886E+02  0.7816164E-02  0.1300439E+00
        -11   -1    0    0    0    0  0.00000000000E+00  0.00000000000E+00  0.45593999997E+02  0.45594000000E+02  0.51100000000E-03 0.  1.
         11   -1    0    0    0    0 -0.00000000000E+00 -0.00000000000E+00 -0.45593999997E+02  0.45594000000E+02  0.51100000000E-03 0. -1.
    9900012    2    1    2    0    0  0.31629530762E+02 -0.67078199161E+01  0.24652455504E+02  0.50528860478E+02  0.30000001909E+02 0.  0.
         12    1    1    2    0    0 -0.31629530762E+02  0.67078199161E+01 -0.24652455504E+02  0.40659139522E+02  0.00000000000E+00 0. -1.
         11    1    3    3    0    0  0.19052148018E+01  0.64939377707E+01  0.55822544410E+01  0.87728351242E+01  0.51100000000E-03 0. -1.
        -11    1    3    3    0    0  0.16864187898E+02 -0.65507131734E+01  0.35627592672E+00  0.18095292463E+02  0.51100000000E-03 0.  1.
        -12    1    3    3    0    0  0.12860128063E+02 -0.66510445135E+01  0.18713925136E+02  0.23660732891E+02  0.00000000000E+00 0.  1.
</event>
<event>
 7    1  0.5748623E-013  0.5052890E+02  0.7816164E-02  0.1300439E+00
        -11   -1    0    0    0    0  0.00000000000E+00  0.00000000000E+00  0.45593999997E+02  0.45594000000E+02  0.51100000000E-03 0. -1.
         11   -1    0    0    0    0 -0.00000000000E+00 -0.00000000000E+00 -0.45593999997E+02  0.45594000000E+02  0.51100000000E-03 0.  1.
    9900012    2    1    2    0    0  0.61279001092E+01 -0.36793408533E+02 -0.16181964912E+02  0.50528904343E+02  0.30000135241E+02 0.  0.
         12    1    1    2    0    0 -0.61279001092E+01  0.36793408533E+02  0.16181964912E+02  0.40659095657E+02  0.00000000000E+00 0. -1.
         11    1    3    3    0    0 -0.52894427254E+01 -0.21696876562E+02 -0.17014046524E+02  0.28075085686E+02  0.51100000000E-03 0. -1.
        -11    1    3    3    0    0  0.12420361652E+02 -0.11626522167E+02 -0.29018690592E+01  0.17258686090E+02  0.51100000000E-03 0.  1.
        -12    1    3    3    0    0 -0.10030188170E+01 -0.34700098036E+01  0.37339506704E+01  0.51951325675E+01  0.00000000000E+00 0.  1.
</event>
<event>
 7    1  0.5748623E-013  0.5052886E+02  0.7816164E-02  0.1300439E+00
        -11   -1    0    0    0    0  0.00000000000E+00  0.00000000000E+00  0.45593999997E+02  0.45594000000E+02  0.51100000000E-03 0.  1.
         11   -1    0    0    0    0 -0.00000000000E+00 -0.00000000000E+00 -0.45593999997E+02  0.45594000000E+02  0.51100000000E-03 0. -1.
    9900012    2    1    2    0    0  0.29522680321E+02 -0.25161923884E+02  0.12184201424E+02  0.50528857963E+02  0.29999994263E+02 0.  0.
         12    1    1    2    0    0 -0.29522680321E+02  0.25161923884E+02 -0.12184201424E+02  0.40659142037E+02  0.00000000000E+00 0. -1.
         11    1    3    3    0    0 -0.27489710685E+01 -0.59915264820E+01 -0.56724629815E+01  0.86966699408E+01  0.51100000000E-03 0. -1.
        -11    1    3    3    0    0  0.24529557641E+02 -0.12387537902E+02  0.13996112940E+02  0.30838960278E+02  0.51100000000E-03 0.  1.
         12    1    3    3    0    0  0.77420937491E+01 -0.67828595002E+01  0.38605514649E+01  0.10993227744E+02  0.00000000000E+00 0. -1.
</event>
<event>
 7    1  0.5748623E-013  0.5052885E+02  0.7816164E-02  0.1300439E+00
        -11   -1    0    0    0    0  0.00000000000E+00  0.00000000000E+00  0.45593999997E+02  0.45594000000E+02  0.51100000000E-03 0.  1.
         11   -1    0    0    0    0 -0.00000000000E+00 -0.00000000000E+00 -0.45593999997E+02  0.45594000000E+02  0.51100000000E-03 0. -1.
    9900012    2    1    2    0    0  0.95474743534E+01 -0.35795929099E+02  0.16753026177E+02  0.50528847369E+02  0.29999962062E+02 0.  0.
         12    1    1    2    0    0 -0.95474743534E+01  0.35795929099E+02 -0.16753026177E+02  0.40659152631E+02  0.00000000000E+00 0. -1.
         11    1    3    3    0    0 -0.58012834467E+01 -0.30371850577E+02  0.10934261797E+02  0.32797290717E+02  0.51100000000E-03 0. -1.
        -11    1    3    3    0    0  0.15343967251E+02 -0.52451607558E+01  0.61599319029E+01  0.17346290776E+02  0.51100000000E-03 0.  1.
        -12    1    3    3    0    0  0.47905486625E-02 -0.17891776629E+00 -0.34116752269E+00  0.38526587571E+00  0.00000000000E+00 0.  1.
</event>
<event>
 7    1  0.5748623E-013  0.5052886E+02  0.7816164E-02  0.1300439E+00
        -11   -1    0    0    0    0  0.00000000000E+00  0.00000000000E+00  0.45593999997E+02  0.45594000000E+02  0.51100000000E-03 0. -1.
         11   -1    0    0    0    0 -0.00000000000E+00 -0.00000000000E+00 -0.45593999997E+02  0.45594000000E+02  0.51100000000E-03 0.  1.
    9900012    2    1    2    0    0  0.76895754795E+01 -0.33961464049E+02 -0.20991783276E+02  0.50528861095E+02  0.30000003784E+02 0.  0.
         12    1    1    2    0    0 -0.76895754795E+01  0.33961464049E+02  0.20991783276E+02  0.40659138905E+02  0.00000000000E+00 0. -1.
         11    1    3    3    0    0  0.46067582590E+01 -0.73063818400E+01  0.29606992559E+01  0.91307818720E+01  0.51100000000E-03 0. -1.
        -11    1    3    3    0    0  0.57619393287E+01 -0.23283375743E+02 -0.27005301346E+02  0.36119272305E+02  0.51100000000E-03 0.  1.
        -12    1    3    3    0    0 -0.26791221082E+01 -0.33717064661E+01  0.30528188141E+01  0.52788069178E+01  0.00000000000E+00 0.  1.
</event>
<event>
 7    1  0.5748623E-013  0.5052884E+02  0.7816164E-02  0.1300439E+00
        -11   -1    0    0    0    0  0.00000000000E+00  0.00000000000E+00  0.45593999997E+02  0.45594000000E+02  0.51100000000E-03 0.  1.
         11   -1    0    0    0    0 -0.00000000000E+00 -0.00000000000E+00 -0.45593999997E+02  0.45594000000E+02  0.51100000000E-03 0. -1.
    9900012    2    1    2    0    0  0.79249625243E+01  0.70735544674E+01  0.39246995935E+02  0.50528844896E+02  0.29999954547E+02 0.  0.
         12    1    1    2    0    0 -0.79249625243E+01 -0.70735544674E+01 -0.39246995935E+02  0.40659155104E+02  0.00000000000E+00 0. -1.
         11    1    3    3    0    0  0.51886188908E+01 -0.39154890170E+01  0.14885957596E+02  0.16243292586E+02  0.51100000000E-03 0. -1.
        -11    1    3    3    0    0 -0.73553732263E+01  0.40211421712E+01  0.17508552113E+01  0.85636787592E+01  0.51100000000E-03 0.  1.
        -12    1    3    3    0    0  0.10091716860E+02  0.69679013131E+01  0.22610183128E+02  0.25721873551E+02  0.00000000000E+00 0.  1.
</event>
<event>
 7    1  0.5748623E-013  0.5052887E+02  0.7816164E-02  0.1300439E+00
        -11   -1    0    0    0    0  0.00000000000E+00  0.00000000000E+00  0.45593999997E+02  0.45594000000E+02  0.51100000000E-03 0.  1.
         11   -1    0    0    0    0 -0.00000000000E+00 -0.00000000000E+00 -0.45593999997E+02  0.45594000000E+02  0.51100000000E-03 0. -1.
    9900012    2    1    2    0    0 -0.10663992649E+02 -0.39223191334E+02 -0.99284514544E+00  0.50528865490E+02  0.30000017144E+02 0.  0.
         12    1    1    2    0    0  0.10663992649E+02  0.39223191334E+02  0.99284514544E+00  0.40659134510E+02  0.00000000000E+00 0. -1.
         11    1    3    3    0    0  0.12705784857E+00 -0.18864846845E+02 -0.13028562152E+02  0.22926884267E+02  0.51100000000E-03 0. -1.
        -11    1    3    3    0    0 -0.77038529444E+01 -0.74789749720E+01  0.18529673613E+01  0.10895774645E+02  0.51100000000E-03 0.  1.
         12    1    3    3    0    0 -0.30871975528E+01 -0.12879369516E+02  0.10182749645E+02  0.16706206577E+02  0.00000000000E+00 0. -1.
</event>
<event>
 7    1  0.5748623E-013  0.5052886E+02  0.7816164E-02  0.1300439E+00
        -11   -1    0    0    0    0  0.00000000000E+00  0.00000000000E+00  0.45593999997E+02  0.45594000000E+02  0.51100000000E-03 0.  1.
         11   -1    0    0    0    0 -0.00000000000E+00 -0.00000000000E+00 -0.45593999997E+02  0.45594000000E+02  0.51100000000E-03 0. -1.
    9900012    2    1    2    0    0  0.65015173291E+01 -0.19306688617E+02  0.35187323269E+02  0.50528859924E+02  0.30000000225E+02 0.  0.
         12    1    1    2    0    0 -0.65015173291E+01  0.19306688617E+02 -0.35187323269E+02  0.40659140076E+02  0.00000000000E+00 0. -1.
         11    1    3    3    0    0  0.53654503429E+01 -0.16044815403E+02  0.90901388563E+01  0.19205592503E+02  0.51100000000E-03 0. -1.
        -11    1    3    3    0    0 -0.57691684202E+01 -0.44624044548E+01  0.22060886214E+02  0.23235297687E+02  0.51100000000E-03 0.  1.
        -12    1    3    3    0    0  0.69052354064E+01  0.12005312411E+01  0.40362981985E+01  0.80879697345E+01  0.00000000000E+00 0.  1.
</event>
<event>
 7    1  0.5748623E-013  0.5052886E+02  0.7816164E-02  0.1300439E+00
        -11   -1    0    0    0    0  0.00000000000E+00  0.00000000000E+00  0.45593999997E+02  0.45594000000E+02  0.51100000000E-03 0.  1.
         11   -1    0    0    0    0 -0.00000000000E+00 -0.00000000000E+00 -0.45593999997E+02  0.45594000000E+02  0.51100000000E-03 0. -1.
    9900012    2    1    2    0    0 -0.29086770465E+02  0.23199970470E+02  0.16397774953E+02  0.50528857494E+02  0.29999992839E+02 0.  0.
         12    1    1    2    0    0  0.29086770465E+02 -0.23199970470E+02 -0.16397774953E+02  0.40659142506E+02  0.00000000000E+00 0. -1.
         11    1    3    3    0    0 -0.12289624602E+02 -0.47709290539E+01  0.59139095175E+01  0.14448908711E+02  0.51100000000E-03 0.  1.
        -11    1    3    3    0    0 -0.15721569689E+02  0.27782455414E+02  0.73447621861E+01  0.32756344640E+02  0.51100000000E-03 0. -1.
         12    1    3    3    0    0 -0.10755761740E+01  0.18844410922E+00  0.31391032497E+01  0.33236041432E+01  0.00000000000E+00 0. -1.
</event>
<event>
 7    1  0.5748623E-013  0.5052890E+02  0.7816164E-02  0.1300439E+00
        -11   -1    0    0    0    0  0.00000000000E+00  0.00000000000E+00  0.45593999997E+02  0.45594000000E+02  0.51100000000E-03 0. -1.
         11   -1    0    0    0    0 -0.00000000000E+00 -0.00000000000E+00 -0.45593999997E+02  0.45594000000E+02  0.51100000000E-03 0.  1.
    9900012    2    1    2    0    0  0.19803941842E+02  0.30111753714E+02  0.18821487728E+02  0.50528902316E+02  0.30000129079E+02 0.  0.
         12    1    1    2    0    0 -0.19803941842E+02 -0.30111753714E+02 -0.18821487728E+02  0.40659097684E+02  0.00000000000E+00 0. -1.
         11    1    3    3    0    0  0.16948951184E+01  0.12790286006E+02  0.19398710870E+02  0.23297512083E+02  0.51100000000E-03 0. -1.
        -11    1    3    3    0    0  0.18061694124E+01  0.74527360753E+01 -0.25285151063E+01  0.80745843149E+01  0.51100000000E-03 0.  1.
         12    1    3    3    0    0  0.16302877311E+02  0.98687316323E+01  0.19512919644E+01  0.19156805918E+02  0.00000000000E+00 0. -1.
</event>
<event>
 7    1  0.5748623E-013  0.5052886E+02  0.7816164E-02  0.1300439E+00
        -11   -1    0    0    0    0  0.00000000000E+00  0.00000000000E+00  0.45593999997E+02  0.45594000000E+02  0.51100000000E-03 0.  1.
         11   -1    0    0    0    0 -0.00000000000E+00 -0.00000000000E+00 -0.45593999997E+02  0.45594000000E+02  0.51100000000E-03 0. -1.
    9900012    2    1    2    0    0 -0.19385392122E+02 -0.30210336897E+02  0.19097328288E+02  0.50528857967E+02  0.29999994276E+02 0.  0.
         12    1    1    2    0    0  0.19385392122E+02  0.30210336897E+02 -0.19097328288E+02  0.40659142033E+02  0.00000000000E+00 0. -1.
         11    1    3    3    0    0 -0.11062837903E+02 -0.13548949306E+01  0.23924360581E+01  0.11399380391E+02  0.51100000000E-03 0. -1.
        -11    1    3    3    0    0 -0.33909439457E+01 -0.22847172858E+02  0.20127097949E+02  0.30636446930E+02  0.51100000000E-03 0.  1.
        -12    1    3    3    0    0 -0.49316102728E+01 -0.60082691087E+01 -0.34222057185E+01  0.84930306455E+01  0.00000000000E+00 0.  1.
</event>
<event>
 7    1  0.5748623E-013  0.5052886E+02  0.7816164E-02  0.1300439E+00
        -11   -1    0    0    0    0  0.00000000000E+00  0.00000000000E+00  0.45593999997E+02  0.45594000000E+02  0.51100000000E-03 0.  1.
         11   -1    0    0    0    0 -0.00000000000E+00 -0.00000000000E+00 -0.45593999997E+02  0.45594000000E+02  0.51100000000E-03 0. -1.
    9900012    2    1    2    0    0 -0.34365945179E+02  0.87659705269E+00  0.21711268770E+02  0.50528858321E+02  0.29999995353E+02 0.  0.
         12    1    1    2    0    0  0.34365945179E+02 -0.87659705269E+00 -0.21711268770E+02  0.40659141679E+02  0.00000000000E+00 0. -1.
         11    1    3    3    0    0 -0.19690386349E+02 -0.19713300664E+01  0.26374551670E+02  0.32972934854E+02  0.51100000000E-03 0. -1.
        -11    1    3    3    0    0 -0.10623744212E+02  0.21367884707E+01  0.62676717049E+00  0.10854613922E+02  0.51100000000E-03 0.  1.
         12    1    3    3    0    0 -0.40518146182E+01  0.71113864842E+00 -0.52900500705E+01  0.67013095455E+01  0.00000000000E+00 0. -1.
</event>
<event>
 7    1  0.5748623E-013  0.5052890E+02  0.7816164E-02  0.1300439E+00
        -11   -1    0    0    0    0  0.00000000000E+00  0.00000000000E+00  0.45593999997E+02  0.45594000000E+02  0.51100000000E-03 0. -1.
         11   -1    0    0    0    0 -0.00000000000E+00 -0.00000000000E+00 -0.45593999997E+02  0.45594000000E+02  0.51100000000E-03 0.  1.
    9900012    2    1    2    0    0  0.24730048316E+02  0.26552419267E+02 -0.18345467891E+02  0.50528899533E+02  0.30000120620E+02 0.  0.
         12    1    1    2    0    0 -0.24730048316E+02 -0.26552419267E+02  0.18345467891E+02  0.40659100467E+02  0.00000000000E+00 0. -1.
         11    1    3    3    0    0 -0.23542469400E+01  0.76494835002E-01 -0.30112485509E+01  0.38230809841E+01  0.51100000000E-03 0. -1.
        -11    1    3    3    0    0  0.27386308916E+02  0.27762157481E+02 -0.87185177548E+01  0.39959477676E+02  0.51100000000E-03 0.  1.
        -12    1    3    3    0    0 -0.30201365947E+00 -0.12862330491E+01 -0.66157015853E+01  0.67463408728E+01  0.00000000000E+00 0.  1.
</event>
<event>
 7    1  0.5748623E-013  0.5052886E+02  0.7816164E-02  0.1300439E+00
        -11   -1    0    0    0    0  0.00000000000E+00  0.00000000000E+00  0.45593999997E+02  0.45594000000E+02  0.51100000000E-03 0.  1.
         11   -1    0    0    0    0 -0.00000000000E+00 -0.00000000000E+00 -0.45593999997E+02  0.45594000000E+02  0.51100000000E-03 0. -1.
    9900012    2    1    2    0    0 -0.33972836109E+02 -0.60135541050E+01  0.21513936586E+02  0.50528857194E+02  0.29999991927E+02 0.  0.
         12    1    1    2    0    0  0.33972836109E+02  0.60135541050E+01 -0.21513936586E+02  0.40659142806E+02  0.00000000000E+00 0. -1.
         11    1    3    3    0    0 -0.12824161094E+02 -0.13133809396E+02  0.95620883382E+01  0.20697574511E+02  0.51100000000E-03 0. -1.
        -11    1    3    3    0    0 -0.77272718671E+01  0.69128276760E+01  0.12691191797E+02  0.16387930513E+02  0.51100000000E-03 0.  1.
        -12    1    3    3    0    0 -0.13421403148E+02  0.20742761504E+00 -0.73934354959E+00  0.13443352170E+02  0.00000000000E+00 0.  1.
</event>
<event>
 7    1  0.5748623E-013  0.5052888E+02  0.7816164E-02  0.1300439E+00
        -11   -1    0    0    0    0  0.00000000000E+00  0.00000000000E+00  0.45593999997E+02  0.45594000000E+02  0.51100000000E-03 0. -1.
         11   -1    0    0    0    0 -0.00000000000E+00 -0.00000000000E+00 -0.45593999997E+02  0.45594000000E+02  0.51100000000E-03 0.  1.
    9900012    2    1    2    0    0  0.10048040804E+02 -0.33913780529E+02 -0.20051349823E+02  0.50528877241E+02  0.30000052863E+02 0.  0.
         12    1    1    2    0    0 -0.10048040804E+02  0.33913780529E+02  0.20051349823E+02  0.40659122759E+02  0.00000000000E+00 0. -1.
         11    1    3    3    0    0  0.53096412679E+00 -0.17149752027E+02 -0.22577807428E+02  0.28357596972E+02  0.51100000000E-03 0. -1.
        -11    1    3    3    0    0  0.14458812685E+01 -0.13070496768E+02  0.15791815263E+01  0.13244707356E+02  0.51100000000E-03 0.  1.
        -12    1    3    3    0    0  0.80711954091E+01 -0.36935317345E+01  0.94727607900E+00  0.89265729132E+01  0.00000000000E+00 0.  1.
</event>
<event>
 7    1  0.5748623E-013  0.5052885E+02  0.7816164E-02  0.1300439E+00
        -11   -1    0    0    0    0  0.00000000000E+00  0.00000000000E+00  0.45593999997E+02  0.45594000000E+02  0.51100000000E-03 0.  1.
         11   -1    0    0    0    0 -0.00000000000E+00 -0.00000000000E+00 -0.45593999997E+02  0.45594000000E+02  0.51100000000E-03 0. -1.
    9900012    2    1    2    0    0  0.12103004008E+02 -0.38532665196E+02  0.46816469580E+01  0.50528845909E+02  0.29999957625E+02 0.  0.
         12    1    1    2    0    0 -0.12103004008E+02  0.38532665196E+02 -0.46816469580E+01  0.40659154091E+02  0.00000000000E+00 0. -1.
         11    1    3    3    0    0  0.11983679911E+02 -0.21316262075E+02  0.64987931101E+01  0.25302686127E+02  0.51100000000E-03 0.  1.
        -11    1    3    3    0    0  0.49922332160E+01 -0.61233095159E+01 -0.83214675482E+01  0.11474499306E+02  0.51100000000E-03 0. -1.
        -12    1    3    3    0    0 -0.48729091199E+01 -0.11093093606E+02  0.65043213962E+01  0.13751660476E+02  0.00000000000E+00 0.  1.
</event>
<event>
 7    1  0.5748623E-013  0.5052886E+02  0.7816164E-02  0.1300439E+00
        -11   -1    0    0    0    0  0.00000000000E+00  0.00000000000E+00  0.45593999997E+02  0.45594000000E+02  0.51100000000E-03 0. -1.
         11   -1    0    0    0    0 -0.00000000000E+00 -0.00000000000E+00 -0.45593999997E+02  0.45594000000E+02  0.51100000000E-03 0.  1.
    9900012    2    1    2    0    0 -0.15163603715E+02  0.19460091443E+02 -0.32319275668E+02  0.50528860606E+02  0.30000002297E+02 0.  0.
         12    1    1    2    0    0  0.15163603715E+02 -0.19460091443E+02  0.32319275668E+02  0.40659139394E+02  0.00000000000E+00 0. -1.
         11    1    3    3    0    0 -0.69898647378E+01  0.22998747958E+02 -0.11854856360E+02  0.26801832704E+02  0.51100000000E-03 0.  1.
        -11    1    3    3    0    0 -0.54135979532E+01 -0.29121755384E+01 -0.47736503547E+01  0.77830294317E+01  0.51100000000E-03 0. -1.
         12    1    3    3    0    0 -0.27601410237E+01 -0.62648097657E+00 -0.15690768953E+02  0.15943998470E+02  0.00000000000E+00 0. -1.
</event>
<event>
 7    1  0.5748623E-013  0.5052886E+02  0.7816164E-02  0.1300439E+00
        -11   -1    0    0    0    0  0.00000000000E+00  0.00000000000E+00  0.45593999997E+02  0.45594000000E+02  0.51100000000E-03 0. -1.
         11   -1    0    0    0    0 -0.00000000000E+00 -0.00000000000E+00 -0.45593999997E+02  0.45594000000E+02  0.51100000000E-03 0.  1.
    9900012    2    1    2    0    0  0.20040455176E+02 -0.35284552699E+02 -0.25585723807E+01  0.50528858402E+02  0.29999995600E+02 0.  0.
         12    1    1    2    0    0 -0.20040455176E+02  0.35284552699E+02  0.25585723807E+01  0.40659141598E+02  0.00000000000E+00 0. -1.
         11    1    3    3    0    0 -0.55944043845E+01 -0.13480010351E+02 -0.74143990983E+01  0.16370136033E+02  0.51100000000E-03 0. -1.
        -11    1    3    3    0    0  0.21647419759E+02 -0.19263219721E+02  0.32213867462E+01  0.29155784145E+02  0.51100000000E-03 0.  1.
         12    1    3    3    0    0  0.39874398011E+01 -0.25413226270E+01  0.16344399715E+01  0.50029382249E+01  0.00000000000E+00 0. -1.
</event>
<event>
 7    1  0.5748623E-013  0.5052885E+02  0.7816164E-02  0.1300439E+00
        -11   -1    0    0    0    0  0.00000000000E+00  0.00000000000E+00  0.45593999997E+02  0.45594000000E+02  0.51100000000E-03 0.  1.
         11   -1    0    0    0    0 -0.00000000000E+00 -0.00000000000E+00 -0.45593999997E+02  0.45594000000E+02  0.51100000000E-03 0. -1.
    9900012    2    1    2    0    0  0.28155278674E+02  0.19030838710E+02  0.22322045979E+02  0.50528852494E+02  0.29999977641E+02 0.  0.
         12    1    1    2    0    0 -0.28155278674E+02 -0.19030838710E+02 -0.22322045979E+02  0.40659147506E+02  0.00000000000E+00 0. -1.
         11    1    3    3    0    0 -0.22077998188E+01 -0.17709649212E+01  0.97895729992E+01  0.10190507179E+02  0.51100000000E-03 0. -1.
        -11    1    3    3    0    0  0.64953183204E+00  0.35553285109E+01  0.29657002340E+01  0.46752144935E+01  0.51100000000E-03 0.  1.
         12    1    3    3    0    0  0.29713546661E+02  0.17246475120E+02  0.95667727457E+01  0.35663130822E+02  0.00000000000E+00 0. -1.
</event>
<event>
 7    1  0.5748623E-013  0.5052888E+02  0.7816164E-02  0.1300439E+00
        -11   -1    0    0    0    0  0.00000000000E+00  0.00000000000E+00  0.45593999997E+02  0.45594000000E+02  0.51100000000E-03 0.  1.
         11   -1    0    0    0    0 -0.00000000000E+00 -0.00000000000E+00 -0.45593999997E+02  0.45594000000E+02  0.51100000000E-03 0. -1.
    9900012    2    1    2    0    0  0.11812767914E+02 -0.16402517341E+02  0.35278609124E+02  0.50528876514E+02  0.30000050652E+02 0.  0.
         12    1    1    2    0    0 -0.11812767914E+02  0.16402517341E+02 -0.35278609124E+02  0.40659123486E+02  0.00000000000E+00 0. -1.
         11    1    3    3    0    0  0.45695912699E+01 -0.24170017687E+02  0.24069023512E+02  0.34414950420E+02  0.51100000000E-03 0. -1.
        -11    1    3    3    0    0  0.76562684769E+01  0.61697947126E+01  0.10255415385E+02  0.14207686609E+02  0.51100000000E-03 0.  1.
         12    1    3    3    0    0 -0.41309183247E+00  0.15977056332E+01  0.95417022693E+00  0.19062394851E+01  0.00000000000E+00 0. -1.
</event>
<event>
 7    1  0.5748623E-013  0.5052887E+02  0.7816164E-02  0.1300439E+00
        -11   -1    0    0    0    0  0.00000000000E+00  0.00000000000E+00  0.45593999997E+02  0.45594000000E+02  0.51100000000E-03 0. -1.
         11   -1    0    0    0    0 -0.00000000000E+00 -0.00000000000E+00 -0.45593999997E+02  0.45594000000E+02  0.51100000000E-03 0.  1.
    9900012    2    1    2    0    0  0.36179555992E+02  0.70766945560E+01 -0.17150080314E+02  0.50528866556E+02  0.30000020384E+02 0.  0.
         12    1    1    2    0    0 -0.36179555992E+02 -0.70766945560E+01  0.17150080314E+02  0.40659133444E+02  0.00000000000E+00 0. -1.
         11    1    3    3    0    0  0.20017357534E+02  0.16949537252E+02 -0.42883413381E+01  0.26577646386E+02  0.51100000000E-03 0. -1.
        -11    1    3    3    0    0  0.13224857267E+02 -0.71000498560E+01 -0.63712962068E+01  0.16306470289E+02  0.51100000000E-03 0.  1.
         12    1    3    3    0    0  0.29373411908E+01 -0.27727928398E+01 -0.64904427695E+01  0.76447498813E+01  0.00000000000E+00 0. -1.
</event>
<event>
 7    1  0.5748623E-013  0.5052889E+02  0.7816164E-02  0.1300439E+00
        -11   -1    0    0    0    0  0.00000000000E+00  0.00000000000E+00  0.45593999997E+02  0.45594000000E+02  0.51100000000E-03 0. -1.
         11   -1    0    0    0    0 -0.00000000000E+00 -0.00000000000E+00 -0.45593999997E+02  0.45594000000E+02  0.51100000000E-03 0.  1.
    9900012    2    1    2    0    0  0.20862827948E+02  0.20767480927E+02 -0.28046697216E+02  0.50528891810E+02  0.30000097146E+02 0.  0.
         12    1    1    2    0    0 -0.20862827948E+02 -0.20767480927E+02  0.28046697216E+02  0.40659108190E+02  0.00000000000E+00 0. -1.
         11    1    3    3    0    0  0.93440860729E+01 -0.98623724473E+00 -0.54867739216E+01  0.10880684573E+02  0.51100000000E-03 0. -1.
        -11    1    3    3    0    0  0.43000908073E+01  0.24494064162E+02 -0.17707257750E+02  0.30528624886E+02  0.51100000000E-03 0.  1.
        -12    1    3    3    0    0  0.72186510680E+01 -0.27403459902E+01 -0.48526655440E+01  0.91195823517E+01  0.00000000000E+00 0.  1.
</event>
<event>
 7    1  0.5748623E-013  0.5052886E+02  0.7816164E-02  0.1300439E+00
        -11   -1    0    0    0    0  0.00000000000E+00  0.00000000000E+00  0.45593999997E+02  0.45594000000E+02  0.51100000000E-03 0. -1.
         11   -1    0    0    0    0 -0.00000000000E+00 -0.00000000000E+00 -0.45593999997E+02  0.45594000000E+02  0.51100000000E-03 0.  1.
    9900012    2    1    2    0    0  0.35503019656E+02 -0.84940029716E+01 -0.17904007089E+02  0.50528856366E+02  0.29999989411E+02 0.  0.
         12    1    1    2    0    0 -0.35503019656E+02  0.84940029716E+01  0.17904007089E+02  0.40659143634E+02  0.00000000000E+00 0. -1.
         11    1    3    3    0    0  0.10839839027E+02 -0.47345587694E+01 -0.10548620090E+01  0.11875642761E+02  0.51100000000E-03 0.  1.
        -11    1    3    3    0    0  0.24241627930E+01  0.87790331486E+01 -0.28847086662E+01  0.95535089167E+01  0.51100000000E-03 0. -1.
        -12    1    3    3    0    0  0.22239017836E+02 -0.12538477351E+02 -0.13964436414E+02  0.29099704688E+02  0.00000000000E+00 0.  1.
</event>
<event>
 7    1  0.5748623E-013  0.5052885E+02  0.7816164E-02  0.1300439E+00
        -11   -1    0    0    0    0  0.00000000000E+00  0.00000000000E+00  0.45593999997E+02  0.45594000000E+02  0.51100000000E-03 0. -1.
         11   -1    0    0    0    0 -0.00000000000E+00 -0.00000000000E+00 -0.45593999997E+02  0.45594000000E+02  0.51100000000E-03 0.  1.
    9900012    2    1    2    0    0  0.25520261342E+02  0.30483656884E+02 -0.85222960653E+01  0.50528848433E+02  0.29999965296E+02 0.  0.
         12    1    1    2    0    0 -0.25520261342E+02 -0.30483656884E+02  0.85222960653E+01  0.40659151567E+02  0.00000000000E+00 0. -1.
         11    1    3    3    0    0  0.11727516187E+02 -0.61340833145E+00 -0.59131239164E+01  0.13148229554E+02  0.51100000000E-03 0. -1.
        -11    1    3    3    0    0  0.15694495445E+02  0.26094844911E+02 -0.60121680605E+01  0.31038754538E+02  0.51100000000E-03 0.  1.
         12    1    3    3    0    0 -0.19017502906E+01  0.50022203045E+01  0.34029959115E+01  0.63418643408E+01  0.00000000000E+00 0. -1.
</event>
<event>
 7    1  0.5748623E-013  0.5052886E+02  0.7816164E-02  0.1300439E+00
        -11   -1    0    0    0    0  0.00000000000E+00  0.00000000000E+00  0.45593999997E+02  0.45594000000E+02  0.51100000000E-03 0.  1.
         11   -1    0    0    0    0 -0.00000000000E+00 -0.00000000000E+00 -0.45593999997E+02  0.45594000000E+02  0.51100000000E-03 0. -1.
    9900012    2    1    2    0    0 -0.29780879423E+02 -0.11317402850E+02 -0.25262251882E+02  0.50528858879E+02  0.29999997050E+02 0.  0.
         12    1    1    2    0    0  0.29780879423E+02  0.11317402850E+02  0.25262251882E+02  0.40659141121E+02  0.00000000000E+00 0. -1.
         11    1    3    3    0    0 -0.21399008662E+02  0.12855376121E+01 -0.21636275217E+02  0.30458144792E+02  0.51100000000E-03 0. -1.
        -11    1    3    3    0    0 -0.40710589118E+01 -0.14212162310E+02 -0.43552079879E+01  0.15411908223E+02  0.51100000000E-03 0.  1.
        -12    1    3    3    0    0 -0.43108118500E+01  0.16092218477E+01  0.72923132251E+00  0.46588058645E+01  0.00000000000E+00 0.  1.
</event>
<event>
 7    1  0.5748623E-013  0.5052887E+02  0.7816164E-02  0.1300439E+00
        -11   -1    0    0    0    0  0.00000000000E+00  0.00000000000E+00  0.45593999997E+02  0.45594000000E+02  0.51100000000E-03 0.  1.
         11   -1    0    0    0    0 -0.00000000000E+00 -0.00000000000E+00 -0.45593999997E+02  0.45594000000E+02  0.51100000000E-03 0. -1.
    9900012    2    1    2    0    0 -0.15190056406E+02  0.26904159120E+02  0.26430917360E+02  0.50528868380E+02  0.30000025929E+02 0.  0.
         12    1    1    2    0    0  0.15190056406E+02 -0.26904159120E+02 -0.26430917360E+02  0.40659131620E+02  0.00000000000E+00 0. -1.
         11    1    3    3    0    0  0.15941208036E+01  0.13684633182E+02  0.13048785386E+01  0.13838826349E+02  0.51100000000E-03 0. -1.
        -11    1    3    3    0    0 -0.12221425914E+01  0.21701863977E+01  0.14764461321E+02  0.14973064478E+02  0.51100000000E-03 0.  1.
        -12    1    3    3    0    0 -0.15562034618E+02  0.11049339541E+02  0.10361577501E+02  0.21716977553E+02  0.00000000000E+00 0.  1.
</event>
<event>
 7    1  0.5748623E-013  0.5052886E+02  0.7816164E-02  0.1300439E+00
        -11   -1    0    0    0    0  0.00000000000E+00  0.00000000000E+00  0.45593999997E+02  0.45594000000E+02  0.51100000000E-03 0.  1.
         11   -1    0    0    0    0 -0.00000000000E+00 -0.00000000000E+00 -0.45593999997E+02  0.45594000000E+02  0.51100000000E-03 0. -1.
    9900012    2    1    2    0    0 -0.26057707760E+02 -0.23297577339E+02  0.20769798255E+02  0.50528858800E+02  0.29999996810E+02 0.  0.
         12    1    1    2    0    0  0.26057707760E+02  0.23297577339E+02 -0.20769798255E+02  0.40659141200E+02  0.00000000000E+00 0. -1.
         11    1    3    3    0    0  0.45050257258E+01 -0.24675202466E+01  0.41419728840E+01  0.65984735046E+01  0.51100000000E-03 0.  1.
        -11    1    3    3    0    0 -0.21380149639E+02 -0.56539035785E+01  0.48569799804E+01  0.22642165954E+02  0.51100000000E-03 0. -1.
        -12    1    3    3    0    0 -0.91825838461E+01 -0.15176153514E+02  0.11770845390E+02  0.21288219342E+02  0.00000000000E+00 0.  1.
</event>
<event>
 7    1  0.5748623E-013  0.5052887E+02  0.7816164E-02  0.1300439E+00
        -11   -1    0    0    0    0  0.00000000000E+00  0.00000000000E+00  0.45593999997E+02  0.45594000000E+02  0.51100000000E-03 0. -1.
         11   -1    0    0    0    0 -0.00000000000E+00 -0.00000000000E+00 -0.45593999997E+02  0.45594000000E+02  0.51100000000E-03 0.  1.
    9900012    2    1    2    0    0 -0.28729844358E+02  0.21161918667E+02  0.19491900174E+02  0.50528869034E+02  0.30000027916E+02 0.  0.
         12    1    1    2    0    0  0.28729844358E+02 -0.21161918667E+02 -0.19491900174E+02  0.40659130966E+02  0.00000000000E+00 0. -1.
         11    1    3    3    0    0 -0.30104925483E+01  0.87783201288E+01 -0.40940091130E+01  0.10143119863E+02  0.51100000000E-03 0. -1.
        -11    1    3    3    0    0 -0.94928369468E+01  0.12566985776E+02  0.16074517789E+02  0.22504070903E+02  0.51100000000E-03 0.  1.
         12    1    3    3    0    0 -0.16226514863E+02 -0.18338723773E+00  0.75113914980E+01  0.17881678269E+02  0.00000000000E+00 0. -1.
</event>
<event>
 7    1  0.5748623E-013  0.5052886E+02  0.7816164E-02  0.1300439E+00
        -11   -1    0    0    0    0  0.00000000000E+00  0.00000000000E+00  0.45593999997E+02  0.45594000000E+02  0.51100000000E-03 0.  1.
         11   -1    0    0    0    0 -0.00000000000E+00 -0.00000000000E+00 -0.45593999997E+02  0.45594000000E+02  0.51100000000E-03 0. -1.
    9900012    2    1    2    0    0 -0.17287725039E+02 -0.36567944054E+02  0.41335202437E+01  0.50528856392E+02  0.29999989488E+02 0.  0.
         12    1    1    2    0    0  0.17287725039E+02  0.36567944054E+02 -0.41335202437E+01  0.40659143608E+02  0.00000000000E+00 0. -1.
         11    1    3    3    0    0 -0.13956979732E+02 -0.95873422889E+01 -0.10091317285E+02  0.19711648845E+02  0.51100000000E-03 0. -1.
        -11    1    3    3    0    0 -0.37691754916E+01 -0.21665646736E+02  0.11831011751E+02  0.24971579279E+02  0.51100000000E-03 0.  1.
         12    1    3    3    0    0  0.43843018372E+00 -0.53149550288E+01  0.23938257776E+01  0.58456282671E+01  0.00000000000E+00 0. -1.
</event>
<event>
 7    1  0.5748623E-013  0.5052891E+02  0.7816164E-02  0.1300439E+00
        -11   -1    0    0    0    0  0.00000000000E+00  0.00000000000E+00  0.45593999997E+02  0.45594000000E+02  0.51100000000E-03 0.  1.
         11   -1    0    0    0    0 -0.00000000000E+00 -0.00000000000E+00 -0.45593999997E+02  0.45594000000E+02  0.51100000000E-03 0. -1.
    9900012    2    1    2    0    0  0.31705810781E+01 -0.10674706527E+02  0.39104467135E+02  0.50528913762E+02  0.30000163871E+02 0.  0.
         12    1    1    2    0    0 -0.31705810781E+01  0.10674706527E+02 -0.39104467135E+02  0.40659086238E+02  0.00000000000E+00 0. -1.
         11    1    3    3    0    0 -0.15858366149E+01 -0.63605388259E+01 -0.38202079113E-01  0.65553635738E+01  0.51100000000E-03 0. -1.
        -11    1    3    3    0    0  0.95683930603E+01  0.31513123977E+01  0.13557571905E+02  0.16890608982E+02  0.51100000000E-03 0.  1.
        -12    1    3    3    0    0 -0.48119753674E+01 -0.74654800988E+01  0.25585097309E+02  0.27082941206E+02  0.00000000000E+00 0.  1.
</event>
<event>
 7    1  0.5748623E-013  0.5052889E+02  0.7816164E-02  0.1300439E+00
        -11   -1    0    0    0    0  0.00000000000E+00  0.00000000000E+00  0.45593999997E+02  0.45594000000E+02  0.51100000000E-03 0. -1.
         11   -1    0    0    0    0 -0.00000000000E+00 -0.00000000000E+00 -0.45593999997E+02  0.45594000000E+02  0.51100000000E-03 0.  1.
    9900012    2    1    2    0    0 -0.18782496336E+02 -0.12172574281E+02 -0.33944217348E+02  0.50528885098E+02  0.30000076743E+02 0.  0.
         12    1    1    2    0    0  0.18782496336E+02  0.12172574281E+02  0.33944217348E+02  0.40659114902E+02  0.00000000000E+00 0. -1.
         11    1    3    3    0    0 -0.26537296526E+00 -0.16284142749E+01 -0.25354351188E+00  0.16692634408E+01  0.51100000000E-03 0. -1.
        -11    1    3    3    0    0 -0.15689319473E+02 -0.17119734512E+02 -0.12247654174E+02  0.26253477643E+02  0.51100000000E-03 0.  1.
        -12    1    3    3    0    0 -0.28278038976E+01  0.65755745060E+01 -0.21443019662E+02  0.22606144014E+02  0.00000000000E+00 0.  1.
</event>
<event>
 7    1  0.5748623E-013  0.5052887E+02  0.7816164E-02  0.1300439E+00
        -11   -1    0    0    0    0  0.00000000000E+00  0.00000000000E+00  0.45593999997E+02  0.45594000000E+02  0.51100000000E-03 0.  1.
         11   -1    0    0    0    0 -0.00000000000E+00 -0.00000000000E+00 -0.45593999997E+02  0.45594000000E+02  0.51100000000E-03 0. -1.
    9900012    2    1    2    0    0 -0.20707718209E+02  0.34605876825E+02 -0.51757684208E+01  0.50528869623E+02  0.30000029706E+02 0.  0.
         12    1    1    2    0    0  0.20707718209E+02 -0.34605876825E+02  0.51757684208E+01  0.40659130377E+02  0.00000000000E+00 0. -1.
         11    1    3    3    0    0  0.22928577059E+01  0.10482584768E+02  0.54715022228E+01  0.12044879274E+02  0.51100000000E-03 0. -1.
        -11    1    3    3    0    0 -0.15594368025E+02  0.16979161694E+02 -0.14791014514E+02  0.27390698358E+02  0.51100000000E-03 0.  1.
         12    1    3    3    0    0 -0.74062078901E+01  0.71441303629E+01  0.41437438699E+01  0.11093291992E+02  0.00000000000E+00 0. -1.
</event>
<event>
 7    1  0.5748623E-013  0.5052878E+02  0.7816164E-02  0.1300439E+00
        -11   -1    0    0    0    0  0.00000000000E+00  0.00000000000E+00  0.45593999997E+02  0.45594000000E+02  0.51100000000E-03 0.  1.
         11   -1    0    0    0    0 -0.00000000000E+00 -0.00000000000E+00 -0.45593999997E+02  0.45594000000E+02  0.51100000000E-03 0. -1.
    9900012    2    1    2    0    0 -0.16084444374E+02  0.34306375388E+02 -0.14749095384E+02  0.50528775244E+02  0.29999742831E+02 0.  0.
         12    1    1    2    0    0  0.16084444374E+02 -0.34306375388E+02  0.14749095384E+02  0.40659224756E+02  0.00000000000E+00 0. -1.
         11    1    3    3    0    0  0.43216277953E+01  0.12619917277E+02 -0.70144686392E+01  0.15071215924E+02  0.51100000000E-03 0. -1.
        -11    1    3    3    0    0 -0.10875742432E+02  0.10145044011E+02  0.51179847526E+01  0.15728873438E+02  0.51100000000E-03 0.  1.
        -12    1    3    3    0    0 -0.95303297365E+01  0.11541414100E+02 -0.12852611498E+02  0.19728685882E+02  0.00000000000E+00 0.  1.
</event>
<event>
 7    1  0.5748623E-013  0.5052885E+02  0.7816164E-02  0.1300439E+00
        -11   -1    0    0    0    0  0.00000000000E+00  0.00000000000E+00  0.45593999997E+02  0.45594000000E+02  0.51100000000E-03 0.  1.
         11   -1    0    0    0    0 -0.00000000000E+00 -0.00000000000E+00 -0.45593999997E+02  0.45594000000E+02  0.51100000000E-03 0. -1.
    9900012    2    1    2    0    0  0.15727495964E+02 -0.37043834473E+02 -0.57936762213E+01  0.50528849912E+02  0.29999969793E+02 0.  0.
         12    1    1    2    0    0 -0.15727495964E+02  0.37043834473E+02  0.57936762213E+01  0.40659150088E+02  0.00000000000E+00 0. -1.
         11    1    3    3    0    0  0.50522163168E+01  0.35905351108E+01  0.11585635748E+01  0.63054818937E+01  0.51100000000E-03 0. -1.
        -11    1    3    3    0    0  0.32013785806E+01 -0.30029197750E+02 -0.78971453488E+01  0.31214843380E+02  0.51100000000E-03 0.  1.
        -12    1    3    3    0    0  0.74739010663E+01 -0.10605171834E+02  0.94490555268E+00  0.13008524639E+02  0.00000000000E+00 0.  1.
</event>
<event>
 7    1  0.5748623E-013  0.5052885E+02  0.7816164E-02  0.1300439E+00
        -11   -1    0    0    0    0  0.00000000000E+00  0.00000000000E+00  0.45593999997E+02  0.45594000000E+02  0.51100000000E-03 0.  1.
         11   -1    0    0    0    0 -0.00000000000E+00 -0.00000000000E+00 -0.45593999997E+02  0.45594000000E+02  0.51100000000E-03 0. -1.
    9900012    2    1    2    0    0 -0.37999180662E+02 -0.43591428842E+01  0.13792273487E+02  0.50528847702E+02  0.29999963074E+02 0.  0.
         12    1    1    2    0    0  0.37999180662E+02  0.43591428842E+01 -0.13792273487E+02  0.40659152298E+02  0.00000000000E+00 0. -1.
         11    1    3    3    0    0 -0.19186625185E+02  0.32260715892E+00 -0.76333413553E+01  0.20651841610E+02  0.51100000000E-03 0. -1.
        -11    1    3    3    0    0 -0.61027438198E+01  0.16889346832E+01  0.89423249704E+01  0.10957242291E+02  0.51100000000E-03 0.  1.
         12    1    3    3    0    0 -0.12709811657E+02 -0.63706847262E+01  0.12483289872E+02  0.18919763801E+02  0.00000000000E+00 0. -1.
</event>
<event>
 7    1  0.5748623E-013  0.5052886E+02  0.7816164E-02  0.1300439E+00
        -11   -1    0    0    0    0  0.00000000000E+00  0.00000000000E+00  0.45593999997E+02  0.45594000000E+02  0.51100000000E-03 0.  1.
         11   -1    0    0    0    0 -0.00000000000E+00 -0.00000000000E+00 -0.45593999997E+02  0.45594000000E+02  0.51100000000E-03 0. -1.
    9900012    2    1    2    0    0 -0.15891741573E+02  0.28358129645E+02  0.24422015259E+02  0.50528858389E+02  0.29999995560E+02 0.  0.
         12    1    1    2    0    0  0.15891741573E+02 -0.28358129645E+02 -0.24422015259E+02  0.40659141611E+02  0.00000000000E+00 0. -1.
         11    1    3    3    0    0 -0.94364635338E+01  0.25552009714E+01  0.65180951734E+01  0.11749955786E+02  0.51100000000E-03 0. -1.
        -11    1    3    3    0    0  0.78970444263E+01  0.11694981735E+02  0.92432152283E+01  0.16869289744E+02  0.51100000000E-03 0.  1.
        -12    1    3    3    0    0 -0.14352322465E+02  0.14107946939E+02  0.86607048575E+01  0.21909612859E+02  0.00000000000E+00 0.  1.
</event>
<event>
 7    1  0.5748623E-013  0.5052886E+02  0.7816164E-02  0.1300439E+00
        -11   -1    0    0    0    0  0.00000000000E+00  0.00000000000E+00  0.45593999997E+02  0.45594000000E+02  0.51100000000E-03 0.  1.
         11   -1    0    0    0    0 -0.00000000000E+00 -0.00000000000E+00 -0.45593999997E+02  0.45594000000E+02  0.51100000000E-03 0. -1.
    9900012    2    1    2    0    0  0.70860295023E+00  0.38259719001E+02  0.13742538274E+02  0.50528861121E+02  0.30000003863E+02 0.  0.
         12    1    1    2    0    0 -0.70860295023E+00 -0.38259719001E+02 -0.13742538274E+02  0.40659138879E+02  0.00000000000E+00 0. -1.
         11    1    3    3    0    0  0.37340699346E+01  0.71410574435E+01  0.12979734555E+02  0.15277810349E+02  0.51100000000E-03 0.  1.
        -11    1    3    3    0    0 -0.48425935871E+00  0.25702212346E+02 -0.58181688976E+01  0.26356959540E+02  0.51100000000E-03 0. -1.
         12    1    3    3    0    0 -0.25412076256E+01  0.54164492119E+01  0.65809726162E+01  0.88940912317E+01  0.00000000000E+00 0. -1.
</event>
<event>
 7    1  0.5748623E-013  0.5052886E+02  0.7816164E-02  0.1300439E+00
        -11   -1    0    0    0    0  0.00000000000E+00  0.00000000000E+00  0.45593999997E+02  0.45594000000E+02  0.51100000000E-03 0. -1.
         11   -1    0    0    0    0 -0.00000000000E+00 -0.00000000000E+00 -0.45593999997E+02  0.45594000000E+02  0.51100000000E-03 0.  1.
    9900012    2    1    2    0    0 -0.17869488222E+02 -0.16145706873E+02 -0.32759175499E+02  0.50528855406E+02  0.29999986492E+02 0.  0.
         12    1    1    2    0    0  0.17869488222E+02  0.16145706873E+02  0.32759175499E+02  0.40659144594E+02  0.00000000000E+00 0. -1.
         11    1    3    3    0    0  0.30920411607E+01  0.37608607926E+01 -0.39630811424E+01  0.62778025489E+01  0.51100000000E-03 0. -1.
        -11    1    3    3    0    0 -0.11324978610E+02 -0.16041475655E+02 -0.27495153111E+02  0.33787091124E+02  0.51100000000E-03 0.  1.
         12    1    3    3    0    0 -0.96365507722E+01 -0.38650920105E+01 -0.13009412454E+01  0.10463961733E+02  0.00000000000E+00 0. -1.
</event>
<event>
 7    1  0.5748623E-013  0.5052889E+02  0.7816164E-02  0.1300439E+00
        -11   -1    0    0    0    0  0.00000000000E+00  0.00000000000E+00  0.45593999997E+02  0.45594000000E+02  0.51100000000E-03 0. -1.
         11   -1    0    0    0    0 -0.00000000000E+00 -0.00000000000E+00 -0.45593999997E+02  0.45594000000E+02  0.51100000000E-03 0.  1.
    9900012    2    1    2    0    0 -0.12636118393E+02 -0.12207471008E+02 -0.36667011146E+02  0.50528886104E+02  0.30000079801E+02 0.  0.
         12    1    1    2    0    0  0.12636118393E+02  0.12207471008E+02  0.36667011146E+02  0.40659113896E+02  0.00000000000E+00 0. -1.
         11    1    3    3    0    0 -0.11438007118E+02 -0.12421101749E+02 -0.61350741319E+01  0.17965269560E+02  0.51100000000E-03 0. -1.
        -11    1    3    3    0    0 -0.25544092108E+00  0.55351308462E+01 -0.19608913789E+02  0.20376761858E+02  0.51100000000E-03 0.  1.
         12    1    3    3    0    0 -0.94267035325E+00 -0.53215001055E+01 -0.10923023225E+02  0.12186854686E+02  0.00000000000E+00 0. -1.
</event>
<event>
 7    1  0.5748623E-013  0.5052886E+02  0.7816164E-02  0.1300439E+00
        -11   -1    0    0    0    0  0.00000000000E+00  0.00000000000E+00  0.45593999997E+02  0.45594000000E+02  0.51100000000E-03 0.  1.
         11   -1    0    0    0    0 -0.00000000000E+00 -0.00000000000E+00 -0.45593999997E+02  0.45594000000E+02  0.51100000000E-03 0. -1.
    9900012    2    1    2    0    0 -0.16095770230E+02  0.36522465693E+02  0.77589666319E+01  0.50528857328E+02  0.29999992335E+02 0.  0.
         12    1    1    2    0    0  0.16095770230E+02 -0.36522465693E+02 -0.77589666319E+01  0.40659142672E+02  0.00000000000E+00 0. -1.
         11    1    3    3    0    0 -0.35908037542E+01  0.13495197379E+02  0.13215222791E+02  0.19226448907E+02  0.51100000000E-03 0. -1.
        -11    1    3    3    0    0 -0.19561134238E+01  0.18889244911E+02 -0.61186139127E+01  0.19951626237E+02  0.51100000000E-03 0.  1.
         12    1    3    3    0    0 -0.10548853052E+02  0.41380234023E+01  0.66235775380E+00  0.11350782184E+02  0.00000000000E+00 0. -1.
</event>
<event>
 7    1  0.5748623E-013  0.5052887E+02  0.7816164E-02  0.1300439E+00
        -11   -1    0    0    0    0  0.00000000000E+00  0.00000000000E+00  0.45593999997E+02  0.45594000000E+02  0.51100000000E-03 0. -1.
         11   -1    0    0    0    0 -0.00000000000E+00 -0.00000000000E+00 -0.45593999997E+02  0.45594000000E+02  0.51100000000E-03 0.  1.
    9900012    2    1    2    0    0  0.52155418969E+01  0.20029225181E+02 -0.34997048801E+02  0.50528866174E+02  0.30000019224E+02 0.  0.
         12    1    1    2    0    0 -0.52155418969E+01 -0.20029225181E+02  0.34997048801E+02  0.40659133826E+02  0.00000000000E+00 0. -1.
         11    1    3    3    0    0  0.34180691956E+01  0.17376535543E+01 -0.16836147663E+02  0.17267266873E+02  0.51100000000E-03 0. -1.
        -11    1    3    3    0    0 -0.54321701298E+01  0.17986837391E+02 -0.71872182632E+01  0.20116930637E+02  0.51100000000E-03 0.  1.
        -12    1    3    3    0    0  0.72296428311E+01  0.30473423613E+00 -0.10973682876E+02  0.13144668663E+02  0.00000000000E+00 0.  1.
</event>
<event>
 7    1  0.5748623E-013  0.5052885E+02  0.7816164E-02  0.1300439E+00
        -11   -1    0    0    0    0  0.00000000000E+00  0.00000000000E+00  0.45593999997E+02  0.45594000000E+02  0.51100000000E-03 0.  1.
         11   -1    0    0    0    0 -0.00000000000E+00 -0.00000000000E+00 -0.45593999997E+02  0.45594000000E+02  0.51100000000E-03 0. -1.
    9900012    2    1    2    0    0 -0.12977821170E+02 -0.19616885671E+02  0.33165049461E+02  0.50528849105E+02  0.29999967338E+02 0.  0.
         12    1    1    2    0    0  0.12977821170E+02  0.19616885671E+02 -0.33165049461E+02  0.40659150895E+02  0.00000000000E+00 0. -1.
         11    1    3    3    0    0 -0.71862949466E+01  0.62453201206E+00  0.84099441195E+01  0.11079712796E+02  0.51100000000E-03 0. -1.
        -11    1    3    3    0    0  0.72976234094E+01 -0.14080624357E+02  0.98048166557E+01  0.18645474508E+02  0.51100000000E-03 0.  1.
        -12    1    3    3    0    0 -0.13089149633E+02 -0.61607933264E+01  0.14950288686E+02  0.20803661801E+02  0.00000000000E+00 0.  1.
</event>
<event>
 7    1  0.5748623E-013  0.5052885E+02  0.7816164E-02  0.1300439E+00
        -11   -1    0    0    0    0  0.00000000000E+00  0.00000000000E+00  0.45593999997E+02  0.45594000000E+02  0.51100000000E-03 0. -1.
         11   -1    0    0    0    0 -0.00000000000E+00 -0.00000000000E+00 -0.45593999997E+02  0.45594000000E+02  0.51100000000E-03 0.  1.
    9900012    2    1    2    0    0 -0.21689833458E+02  0.25629664243E+02  0.22931157472E+02  0.50528849152E+02  0.29999967483E+02 0.  0.
         12    1    1    2    0    0  0.21689833458E+02 -0.25629664243E+02 -0.22931157472E+02  0.40659150848E+02  0.00000000000E+00 0. -1.
         11    1    3    3    0    0 -0.88549814760E+01 -0.14146694399E+01  0.62035176618E+01  0.10903926733E+02  0.51100000000E-03 0. -1.
        -11    1    3    3    0    0  0.17654582853E+01  0.92070355034E+01 -0.23937260816E+01  0.96755501411E+01  0.51100000000E-03 0.  1.
        -12    1    3    3    0    0 -0.14600310268E+02  0.17837298179E+02  0.19121365892E+02  0.29949372278E+02  0.00000000000E+00 0.  1.
</event>
<event>
 7    1  0.5748623E-013  0.5052886E+02  0.7816164E-02  0.1300439E+00
        -11   -1    0    0    0    0  0.00000000000E+00  0.00000000000E+00  0.45593999997E+02  0.45594000000E+02  0.51100000000E-03 0.  1.
         11   -1    0    0    0    0 -0.00000000000E+00 -0.00000000000E+00 -0.45593999997E+02  0.45594000000E+02  0.51100000000E-03 0. -1.
    9900012    2    1    2    0    0 -0.14727509167E+02 -0.36998163029E+02  0.82098784455E+01  0.50528859603E+02  0.29999999248E+02 0.  0.
         12    1    1    2    0    0  0.14727509167E+02  0.36998163029E+02 -0.82098784455E+01  0.40659140397E+02  0.00000000000E+00 0. -1.
         11    1    3    3    0    0 -0.38427638939E+01 -0.24480163533E+01 -0.43680540213E+01  0.63118550843E+01  0.51100000000E-03 0. -1.
        -11    1    3    3    0    0  0.66013356926E+01 -0.13389061449E+02  0.49211771503E+01  0.15718224589E+02  0.51100000000E-03 0.  1.
        -12    1    3    3    0    0 -0.17486080966E+02 -0.21161085226E+02  0.76567553165E+01  0.28498779929E+02  0.00000000000E+00 0.  1.
</event>
<event>
 7    1  0.5748623E-013  0.5052877E+02  0.7816164E-02  0.1300439E+00
        -11   -1    0    0    0    0  0.00000000000E+00  0.00000000000E+00  0.45593999997E+02  0.45594000000E+02  0.51100000000E-03 0. -1.
         11   -1    0    0    0    0 -0.00000000000E+00 -0.00000000000E+00 -0.45593999997E+02  0.45594000000E+02  0.51100000000E-03 0.  1.
    9900012    2    1    2    0    0 -0.24020829886E+02  0.10405794882E+02  0.31110962369E+02  0.50528772080E+02  0.29999733212E+02 0.  0.
         12    1    1    2    0    0  0.24020829886E+02 -0.10405794882E+02 -0.31110962369E+02  0.40659227920E+02  0.00000000000E+00 0. -1.
         11    1    3    3    0    0 -0.98142517876E+00 -0.63276418078E+01  0.42849495519E+01  0.77047413424E+01  0.51100000000E-03 0. -1.
        -11    1    3    3    0    0 -0.24197332083E+02  0.13495941890E+02  0.27801334393E+02  0.39250038493E+02  0.51100000000E-03 0.  1.
         12    1    3    3    0    0  0.11579273752E+01  0.32374947997E+01 -0.97532157571E+00  0.35739922441E+01  0.00000000000E+00 0. -1.
</event>
<event>
 7    1  0.5748623E-013  0.5052887E+02  0.7816164E-02  0.1300439E+00
        -11   -1    0    0    0    0  0.00000000000E+00  0.00000000000E+00  0.45593999997E+02  0.45594000000E+02  0.51100000000E-03 0.  1.
         11   -1    0    0    0    0 -0.00000000000E+00 -0.00000000000E+00 -0.45593999997E+02  0.45594000000E+02  0.51100000000E-03 0. -1.
    9900012    2    1    2    0    0  0.84435489718E+01 -0.55786829042E+01  0.39379559344E+02  0.50528869214E+02  0.30000028463E+02 0.  0.
         12    1    1    2    0    0 -0.84435489718E+01  0.55786829042E+01 -0.39379559344E+02  0.40659130786E+02  0.00000000000E+00 0. -1.
         11    1    3    3    0    0  0.12333240624E+02 -0.92315191965E+01  0.65074775779E+01  0.16723547341E+02  0.51100000000E-03 0. -1.
        -11    1    3    3    0    0 -0.52541678269E-01  0.40209050368E+01  0.17727118583E+02  0.18177490791E+02  0.51100000000E-03 0.  1.
         12    1    3    3    0    0 -0.38371499742E+01 -0.36806874456E+00  0.15144963183E+02  0.15627831082E+02  0.00000000000E+00 0. -1.
</event>
<event>
 7    1  0.5748623E-013  0.5052886E+02  0.7816164E-02  0.1300439E+00
        -11   -1    0    0    0    0  0.00000000000E+00  0.00000000000E+00  0.45593999997E+02  0.45594000000E+02  0.51100000000E-03 0.  1.
         11   -1    0    0    0    0 -0.00000000000E+00 -0.00000000000E+00 -0.45593999997E+02  0.45594000000E+02  0.51100000000E-03 0. -1.
    9900012    2    1    2    0    0 -0.39226179940E+02  0.11358601667E+01 -0.10638706221E+02  0.50528862761E+02  0.30000008847E+02 0.  0.
         12    1    1    2    0    0  0.39226179940E+02 -0.11358601667E+01  0.10638706221E+02  0.40659137239E+02  0.00000000000E+00 0. -1.
         11    1    3    3    0    0 -0.35835202013E+02 -0.68043640349E+01 -0.35923785982E+01  0.36651961169E+02  0.51100000000E-03 0. -1.
        -11    1    3    3    0    0  0.64098653113E+00  0.41651192852E+01  0.79204345213E+00  0.42879383722E+01  0.51100000000E-03 0.  1.
         12    1    3    3    0    0 -0.40319644578E+01  0.37751049164E+01 -0.78383710752E+01  0.95889632199E+01  0.00000000000E+00 0. -1.
</event>
<event>
 7    1  0.5748623E-013  0.5052885E+02  0.7816164E-02  0.1300439E+00
        -11   -1    0    0    0    0  0.00000000000E+00  0.00000000000E+00  0.45593999997E+02  0.45594000000E+02  0.51100000000E-03 0.  1.
         11   -1    0    0    0    0 -0.00000000000E+00 -0.00000000000E+00 -0.45593999997E+02  0.45594000000E+02  0.51100000000E-03 0. -1.
    9900012    2    1    2    0    0  0.16698054620E+01 -0.20527320068E+02  0.35057206173E+02  0.50528845753E+02  0.29999957150E+02 0.  0.
         12    1    1    2    0    0 -0.16698054620E+01  0.20527320068E+02 -0.35057206173E+02  0.40659154247E+02  0.00000000000E+00 0. -1.
         11    1    3    3    0    0 -0.41803989986E+01  0.32226086875E+01  0.23972831123E+01  0.57972328849E+01  0.51100000000E-03 0. -1.
        -11    1    3    3    0    0 -0.42663097807E+01 -0.18240770690E+02  0.17041714997E+02  0.25324832967E+02  0.51100000000E-03 0.  1.
        -12    1    3    3    0    0  0.10116514241E+02 -0.55091580649E+01  0.15618208064E+02  0.19406779900E+02  0.00000000000E+00 0.  1.
</event>
<event>
 7    1  0.5748623E-013  0.5052886E+02  0.7816164E-02  0.1300439E+00
        -11   -1    0    0    0    0  0.00000000000E+00  0.00000000000E+00  0.45593999997E+02  0.45594000000E+02  0.51100000000E-03 0. -1.
         11   -1    0    0    0    0 -0.00000000000E+00 -0.00000000000E+00 -0.45593999997E+02  0.45594000000E+02  0.51100000000E-03 0.  1.
    9900012    2    1    2    0    0  0.11823980201E+02  0.40361355613E+01 -0.38691971161E+02  0.50528861662E+02  0.30000005509E+02 0.  0.
         12    1    1    2    0    0 -0.11823980201E+02 -0.40361355613E+01  0.38691971161E+02  0.40659138338E+02  0.00000000000E+00 0. -1.
         11    1    3    3    0    0 -0.64219777846E+00  0.47950255480E+01 -0.58464397130E+01  0.75885140555E+01  0.51100000000E-03 0. -1.
        -11    1    3    3    0    0  0.13257768588E+02 -0.38709337018E+01 -0.46656437635E+01  0.14578092730E+02  0.51100000000E-03 0.  1.
        -12    1    3    3    0    0 -0.79159060949E+00  0.31120437151E+01 -0.28179887684E+02  0.28362254876E+02  0.00000000000E+00 0.  1.
</event>
<event>
 7    1  0.5752330E-013  0.5052887E+02  0.7816164E-02  0.1300439E+00
        -11   -1    0    0    0    0  0.00000000000E+00  0.00000000000E+00  0.45593999997E+02  0.45594000000E+02  0.51100000000E-03 0. -1.
         11   -1    0    0    0    0 -0.00000000000E+00 -0.00000000000E+00 -0.45593999997E+02  0.45594000000E+02  0.51100000000E-03 0.  1.
    9900012    2    1    2    0    0  0.23893528467E+02 -0.17724760173E+02 -0.27714560576E+02  0.50528871951E+02  0.30000036783E+02 0.  0.
         12    1    1    2    0    0 -0.23893528467E+02  0.17724760173E+02  0.27714560576E+02  0.40659128049E+02  0.00000000000E+00 0. -1.
         11    1    3    3    0    0 -0.49788294110E+01 -0.43316829048E+00 -0.17327068061E+01  0.52894848718E+01  0.51100000000E-03 0. -1.
        -11    1    3    3    0    0  0.13774286394E+02 -0.16765965519E+02 -0.17757976365E+02  0.28038799730E+02  0.51100000000E-03 0.  1.
        -12    1    3    3    0    0  0.15098071484E+02 -0.52562636355E+00 -0.82238774047E+01  0.17200587349E+02  0.00000000000E+00 0.  1.
</event>
<event>
 7    1  0.5748623E-013  0.5052887E+02  0.7816164E-02  0.1300439E+00
        -11   -1    0    0    0    0  0.00000000000E+00  0.00000000000E+00  0.45593999997E+02  0.45594000000E+02  0.51100000000E-03 0.  1.
         11   -1    0    0    0    0 -0.00000000000E+00 -0.00000000000E+00 -0.45593999997E+02  0.45594000000E+02  0.51100000000E-03 0. -1.
    9900012    2    1    2    0    0 -0.25209021059E+02 -0.90680306520E+01  0.30584982273E+02  0.50528867406E+02  0.30000022967E+02 0.  0.
         12    1    1    2    0    0  0.25209021059E+02  0.90680306520E+01 -0.30584982273E+02  0.40659132594E+02  0.00000000000E+00 0. -1.
         11    1    3    3    0    0  0.54174382605E+01 -0.94730472763E+00  0.33107184596E+01  0.64192585657E+01  0.51100000000E-03 0. -1.
        -11    1    3    3    0    0 -0.26893789133E+02 -0.82251542032E+01  0.16273589134E+02  0.32492441570E+02  0.51100000000E-03 0.  1.
         12    1    3    3    0    0 -0.37326701863E+01  0.10442827884E+00  0.11000674680E+02  0.11617167270E+02  0.00000000000E+00 0. -1.
</event>
<event>
 7    1  0.5748623E-013  0.5052886E+02  0.7816164E-02  0.1300439E+00
        -11   -1    0    0    0    0  0.00000000000E+00  0.00000000000E+00  0.45593999997E+02  0.45594000000E+02  0.51100000000E-03 0.  1.
         11   -1    0    0    0    0 -0.00000000000E+00 -0.00000000000E+00 -0.45593999997E+02  0.45594000000E+02  0.51100000000E-03 0. -1.
    9900012    2    1    2    0    0 -0.25378712990E+02  0.30218210052E+02  0.97952161074E+01  0.50528861416E+02  0.30000004760E+02 0.  0.
         12    1    1    2    0    0  0.25378712990E+02 -0.30218210052E+02 -0.97952161074E+01  0.40659138584E+02  0.00000000000E+00 0. -1.
         11    1    3    3    0    0 -0.53717894919E+01  0.71862654969E+01  0.14196956039E+02  0.16794406663E+02  0.51100000000E-03 0. -1.
        -11    1    3    3    0    0 -0.37366470194E+01  0.11132204273E+02 -0.65784672346E+01  0.13459744958E+02  0.51100000000E-03 0.  1.
         12    1    3    3    0    0 -0.16270276479E+02  0.11899740283E+02  0.21767273029E+01  0.20274709794E+02  0.00000000000E+00 0. -1.
</event>
<event>
 7    1  0.5748623E-013  0.5052886E+02  0.7816164E-02  0.1300439E+00
        -11   -1    0    0    0    0  0.00000000000E+00  0.00000000000E+00  0.45593999997E+02  0.45594000000E+02  0.51100000000E-03 0.  1.
         11   -1    0    0    0    0 -0.00000000000E+00 -0.00000000000E+00 -0.45593999997E+02  0.45594000000E+02  0.51100000000E-03 0. -1.
    9900012    2    1    2    0    0 -0.23300010586E+02 -0.53612413313E+01  0.32886654870E+02  0.50528862399E+02  0.30000007749E+02 0.  0.
         12    1    1    2    0    0  0.23300010586E+02  0.53612413313E+01 -0.32886654870E+02  0.40659137601E+02  0.00000000000E+00 0. -1.
         11    1    3    3    0    0 -0.20705641823E+01  0.53947939162E+01  0.11851729863E+02  0.13185391100E+02  0.51100000000E-03 0. -1.
        -11    1    3    3    0    0 -0.20112922065E+02 -0.12630109643E+02  0.23932405223E+02  0.33716603085E+02  0.51100000000E-03 0.  1.
         12    1    3    3    0    0 -0.11165243386E+01  0.18740743953E+01 -0.28974802168E+01  0.36268682144E+01  0.00000000000E+00 0. -1.
</event>
<event>
 7    1  0.5748623E-013  0.5052887E+02  0.7816164E-02  0.1300439E+00
        -11   -1    0    0    0    0  0.00000000000E+00  0.00000000000E+00  0.45593999997E+02  0.45594000000E+02  0.51100000000E-03 0.  1.
         11   -1    0    0    0    0 -0.00000000000E+00 -0.00000000000E+00 -0.45593999997E+02  0.45594000000E+02  0.51100000000E-03 0. -1.
    9900012    2    1    2    0    0  0.22425260341E+02  0.13328101393E+02  0.31187090789E+02  0.50528865479E+02  0.30000017108E+02 0.  0.
         12    1    1    2    0    0 -0.22425260341E+02 -0.13328101393E+02 -0.31187090789E+02  0.40659134521E+02  0.00000000000E+00 0. -1.
         11    1    3    3    0    0 -0.15640435535E+01 -0.46565966359E+01  0.16310223376E+01  0.51759403584E+01  0.51100000000E-03 0. -1.
        -11    1    3    3    0    0  0.19045279275E+02  0.95419319090E+01  0.10099245571E+02  0.23574687455E+02  0.51100000000E-03 0.  1.
         12    1    3    3    0    0  0.49440246200E+01  0.84427661203E+01  0.19456822881E+02  0.21778237665E+02  0.00000000000E+00 0. -1.
</event>
<event>
 7    1  0.5748623E-013  0.5052885E+02  0.7816164E-02  0.1300439E+00
        -11   -1    0    0    0    0  0.00000000000E+00  0.00000000000E+00  0.45593999997E+02  0.45594000000E+02  0.51100000000E-03 0. -1.
         11   -1    0    0    0    0 -0.00000000000E+00 -0.00000000000E+00 -0.45593999997E+02  0.45594000000E+02  0.51100000000E-03 0.  1.
    9900012    2    1    2    0    0 -0.24156387803E+02 -0.31604005735E+02 -0.84156173142E+01  0.50528845250E+02  0.29999955622E+02 0.  0.
         12    1    1    2    0    0  0.24156387803E+02  0.31604005735E+02  0.84156173142E+01  0.40659154750E+02  0.00000000000E+00 0. -1.
         11    1    3    3    0    0 -0.13076307393E+02 -0.63681354150E+01  0.59570601971E+00  0.14556710810E+02  0.51100000000E-03 0. -1.
        -11    1    3    3    0    0  0.63623696100E+01 -0.49192357670E+01 -0.23611748239E+01  0.83817524656E+01  0.51100000000E-03 0.  1.
        -12    1    3    3    0    0 -0.17442450020E+02 -0.20316634553E+02 -0.66501485101E+01  0.27590381974E+02  0.00000000000E+00 0.  1.
</event>
<event>
 7    1  0.5748623E-013  0.5052887E+02  0.7816164E-02  0.1300439E+00
        -11   -1    0    0    0    0  0.00000000000E+00  0.00000000000E+00  0.45593999997E+02  0.45594000000E+02  0.51100000000E-03 0.  1.
         11   -1    0    0    0    0 -0.00000000000E+00 -0.00000000000E+00 -0.45593999997E+02  0.45594000000E+02  0.51100000000E-03 0. -1.
    9900012    2    1    2    0    0  0.33032280288E+02 -0.21129037853E+02 -0.10751600847E+02  0.50528871844E+02  0.30000036457E+02 0.  0.
         12    1    1    2    0    0 -0.33032280288E+02  0.21129037853E+02  0.10751600847E+02  0.40659128156E+02  0.00000000000E+00 0. -1.
         11    1    3    3    0    0  0.24675653560E+01  0.55190608985E+01 -0.14167213043E+01  0.62093487181E+01  0.51100000000E-03 0. -1.
        -11    1    3    3    0    0  0.14899614098E+02 -0.18702869760E+02 -0.11656320251E+02  0.26601985632E+02  0.51100000000E-03 0.  1.
         12    1    3    3    0    0  0.15665100834E+02 -0.79452289922E+01  0.23214407083E+01  0.17717537494E+02  0.00000000000E+00 0. -1.
</event>
<event>
 7    1  0.5748623E-013  0.5052887E+02  0.7816164E-02  0.1300439E+00
        -11   -1    0    0    0    0  0.00000000000E+00  0.00000000000E+00  0.45593999997E+02  0.45594000000E+02  0.51100000000E-03 0.  1.
         11   -1    0    0    0    0 -0.00000000000E+00 -0.00000000000E+00 -0.45593999997E+02  0.45594000000E+02  0.51100000000E-03 0. -1.
    9900012    2    1    2    0    0 -0.25178221680E+02  0.28073506957E+02  0.15201985991E+02  0.50528867965E+02  0.30000024665E+02 0.  0.
         12    1    1    2    0    0  0.25178221680E+02 -0.28073506957E+02 -0.15201985991E+02  0.40659132035E+02  0.00000000000E+00 0. -1.
         11    1    3    3    0    0  0.32510007815E+01 -0.10592766917E+01 -0.15362616520E+00  0.34226706606E+01  0.51100000000E-03 0. -1.
        -11    1    3    3    0    0 -0.30700581963E+02  0.26268733869E+02  0.15879450547E+02  0.43413466365E+02  0.51100000000E-03 0.  1.
        -12    1    3    3    0    0  0.22713595016E+01  0.28640497797E+01 -0.52383839048E+00  0.36927309387E+01  0.00000000000E+00 0.  1.
</event>
<event>
 7    1  0.5748623E-013  0.5052886E+02  0.7816164E-02  0.1300439E+00
        -11   -1    0    0    0    0  0.00000000000E+00  0.00000000000E+00  0.45593999997E+02  0.45594000000E+02  0.51100000000E-03 0. -1.
         11   -1    0    0    0    0 -0.00000000000E+00 -0.00000000000E+00 -0.45593999997E+02  0.45594000000E+02  0.51100000000E-03 0.  1.
    9900012    2    1    2    0    0 -0.15119693791E+02  0.18869455330E+02 -0.32687980702E+02  0.50528861210E+02  0.30000004134E+02 0.  0.
         12    1    1    2    0    0  0.15119693791E+02 -0.18869455330E+02  0.32687980702E+02  0.40659138790E+02  0.00000000000E+00 0. -1.
         11    1    3    3    0    0 -0.18954704942E+02  0.18385487262E+01 -0.16917034861E+02  0.25472478670E+02  0.51100000000E-03 0. -1.
        -11    1    3    3    0    0  0.61057557860E+00  0.10736470509E+02 -0.43024029815E+01  0.11582541742E+02  0.51100000000E-03 0.  1.
         12    1    3    3    0    0  0.32244355730E+01  0.62944360945E+01 -0.11468542860E+02  0.13473840798E+02  0.00000000000E+00 0. -1.
</event>
<event>
 7    1  0.5748623E-013  0.5052885E+02  0.7816164E-02  0.1300439E+00
        -11   -1    0    0    0    0  0.00000000000E+00  0.00000000000E+00  0.45593999997E+02  0.45594000000E+02  0.51100000000E-03 0.  1.
         11   -1    0    0    0    0 -0.00000000000E+00 -0.00000000000E+00 -0.45593999997E+02  0.45594000000E+02  0.51100000000E-03 0. -1.
    9900012    2    1    2    0    0  0.39983357139E+02 -0.20023075065E+01  0.71055069313E+01  0.50528852048E+02  0.29999976284E+02 0.  0.
         12    1    1    2    0    0 -0.39983357139E+02  0.20023075065E+01 -0.71055069313E+01  0.40659147952E+02  0.00000000000E+00 0. -1.
         11    1    3    3    0    0  0.35306377573E+02 -0.56312098570E+01 -0.12131510681E+01  0.35773210054E+02  0.51100000000E-03 0. -1.
        -11    1    3    3    0    0  0.22829919031E+01  0.73091655512E+01  0.41894249168E+01  0.87285299151E+01  0.51100000000E-03 0.  1.
         12    1    3    3    0    0  0.23939876629E+01 -0.36802632007E+01  0.41292330826E+01  0.60271120785E+01  0.00000000000E+00 0. -1.
</event>
<event>
 7    1  0.5748623E-013  0.5052886E+02  0.7816164E-02  0.1300439E+00
        -11   -1    0    0    0    0  0.00000000000E+00  0.00000000000E+00  0.45593999997E+02  0.45594000000E+02  0.51100000000E-03 0.  1.
         11   -1    0    0    0    0 -0.00000000000E+00 -0.00000000000E+00 -0.45593999997E+02  0.45594000000E+02  0.51100000000E-03 0. -1.
    9900012    2    1    2    0    0  0.38544045681E-01  0.17544696626E+02  0.36678980766E+02  0.50528862092E+02  0.30000006816E+02 0.  0.
         12    1    1    2    0    0 -0.38544045681E-01 -0.17544696626E+02 -0.36678980766E+02  0.40659137908E+02  0.00000000000E+00 0. -1.
         11    1    3    3    0    0  0.24718091113E+01  0.47418865865E+00 -0.18266928336E+01  0.31099038789E+01  0.51100000000E-03 0. -1.
        -11    1    3    3    0    0 -0.23210933129E+01  0.18419504392E+02  0.40760320861E+02  0.44789165801E+02  0.51100000000E-03 0.  1.
        -12    1    3    3    0    0 -0.11217175272E+00 -0.13489964249E+01 -0.22546472614E+01  0.26297924120E+01  0.00000000000E+00 0.  1.
</event>
<event>
 7    1  0.5748623E-013  0.5052885E+02  0.7816164E-02  0.1300439E+00
        -11   -1    0    0    0    0  0.00000000000E+00  0.00000000000E+00  0.45593999997E+02  0.45594000000E+02  0.51100000000E-03 0.  1.
         11   -1    0    0    0    0 -0.00000000000E+00 -0.00000000000E+00 -0.45593999997E+02  0.45594000000E+02  0.51100000000E-03 0. -1.
    9900012    2    1    2    0    0 -0.16127922648E+02 -0.30094010559E+02  0.22077293035E+02  0.50528853080E+02  0.29999979423E+02 0.  0.
         12    1    1    2    0    0  0.16127922648E+02  0.30094010559E+02 -0.22077293035E+02  0.40659146920E+02  0.00000000000E+00 0. -1.
         11    1    3    3    0    0 -0.64820302836E+01 -0.19273245843E+01  0.19210555008E+01  0.70300605367E+01  0.51100000000E-03 0. -1.
        -11    1    3    3    0    0  0.65708891307E+01 -0.14072027647E+02  0.25879218881E+01  0.15744709779E+02  0.51100000000E-03 0.  1.
        -12    1    3    3    0    0 -0.16216781495E+02 -0.14094658327E+02  0.17568315646E+02  0.27754082764E+02  0.00000000000E+00 0.  1.
</event>
<event>
 7    1  0.5748623E-013  0.5052886E+02  0.7816164E-02  0.1300439E+00
        -11   -1    0    0    0    0  0.00000000000E+00  0.00000000000E+00  0.45593999997E+02  0.45594000000E+02  0.51100000000E-03 0.  1.
         11   -1    0    0    0    0 -0.00000000000E+00 -0.00000000000E+00 -0.45593999997E+02  0.45594000000E+02  0.51100000000E-03 0. -1.
    9900012    2    1    2    0    0 -0.90740697087E+00 -0.26521997295E+02  0.30804635920E+02  0.50528864224E+02  0.30000013294E+02 0.  0.
         12    1    1    2    0    0  0.90740697087E+00  0.26521997295E+02 -0.30804635920E+02  0.40659135776E+02  0.00000000000E+00 0. -1.
         11    1    3    3    0    0 -0.68843997998E+01  0.17046344083E+01  0.14544520829E+00  0.70937926132E+01  0.51100000000E-03 0. -1.
        -11    1    3    3    0    0  0.23808624250E+01 -0.13957356616E+02  0.75708735071E+01  0.16055978186E+02  0.51100000000E-03 0.  1.
         12    1    3    3    0    0  0.35961304039E+01 -0.14269275088E+02  0.23088317205E+02  0.27379093424E+02  0.00000000000E+00 0. -1.
</event>
<event>
 7    1  0.5748623E-013  0.5052886E+02  0.7816164E-02  0.1300439E+00
        -11   -1    0    0    0    0  0.00000000000E+00  0.00000000000E+00  0.45593999997E+02  0.45594000000E+02  0.51100000000E-03 0.  1.
         11   -1    0    0    0    0 -0.00000000000E+00 -0.00000000000E+00 -0.45593999997E+02  0.45594000000E+02  0.51100000000E-03 0. -1.
    9900012    2    1    2    0    0  0.31238491941E+02 -0.96907563364E+01  0.24153914733E+02  0.50528859157E+02  0.29999997895E+02 0.  0.
         12    1    1    2    0    0 -0.31238491941E+02  0.96907563364E+01 -0.24153914733E+02  0.40659140843E+02  0.00000000000E+00 0. -1.
         11    1    3    3    0    0  0.29552386681E+02  0.25555129577E+01  0.14093034629E+02  0.32840338463E+02  0.51100000000E-03 0. -1.
        -11    1    3    3    0    0 -0.22993630226E+01 -0.83732391834E+01  0.43203090430E+01  0.96986223362E+01  0.51100000000E-03 0.  1.
         12    1    3    3    0    0  0.39854682823E+01 -0.38730301108E+01  0.57405710610E+01  0.79898983582E+01  0.00000000000E+00 0. -1.
</event>
<event>
 7    1  0.6623954E-013  0.5052885E+02  0.7816164E-02  0.1300439E+00
        -11   -1    0    0    0    0  0.00000000000E+00  0.00000000000E+00  0.45593999997E+02  0.45594000000E+02  0.51100000000E-03 0. -1.
         11   -1    0    0    0    0 -0.00000000000E+00 -0.00000000000E+00 -0.45593999997E+02  0.45594000000E+02  0.51100000000E-03 0.  1.
    9900012    2    1    2    0    0  0.16373766256E+02  0.16942096002E+01 -0.37177896398E+02  0.50528849146E+02  0.29999967465E+02 0.  0.
         12    1    1    2    0    0 -0.16373766256E+02 -0.16942096002E+01  0.37177896398E+02  0.40659150854E+02  0.00000000000E+00 0. -1.
         11    1    3    3    0    0 -0.42353461093E+01  0.15449761715E+01 -0.28241328708E+01  0.53198528898E+01  0.51100000000E-03 0. -1.
        -11    1    3    3    0    0  0.20454193040E+02  0.73536344802E+01 -0.22128971833E+02  0.31018403370E+02  0.51100000000E-03 0.  1.
        -12    1    3    3    0    0  0.15491932564E+00 -0.72044010515E+01 -0.12224791695E+02  0.14190592887E+02  0.00000000000E+00 0.  1.
</event>
<event>
 7    1  0.5748623E-013  0.5052890E+02  0.7816164E-02  0.1300439E+00
        -11   -1    0    0    0    0  0.00000000000E+00  0.00000000000E+00  0.45593999997E+02  0.45594000000E+02  0.51100000000E-03 0. -1.
         11   -1    0    0    0    0 -0.00000000000E+00 -0.00000000000E+00 -0.45593999997E+02  0.45594000000E+02  0.51100000000E-03 0.  1.
    9900012    2    1    2    0    0  0.27869727690E+02 -0.26330164423E+02  0.13533773500E+02  0.50528901323E+02  0.30000126061E+02 0.  0.
         12    1    1    2    0    0 -0.27869727690E+02  0.26330164423E+02 -0.13533773500E+02  0.40659098677E+02  0.00000000000E+00 0. -1.
         11    1    3    3    0    0  0.26194244386E+02 -0.78715546717E+01  0.88577496382E+01  0.28749948536E+02  0.51100000000E-03 0. -1.
        -11    1    3    3    0    0  0.60779783696E+01 -0.11930596809E+02  0.26619459365E+01  0.13651626925E+02  0.51100000000E-03 0.  1.
         12    1    3    3    0    0 -0.44024950650E+01 -0.65280129425E+01  0.20140779257E+01  0.81273258619E+01  0.00000000000E+00 0. -1.
</event>
<event>
 7    1  0.5748623E-013  0.5052886E+02  0.7816164E-02  0.1300439E+00
        -11   -1    0    0    0    0  0.00000000000E+00  0.00000000000E+00  0.45593999997E+02  0.45594000000E+02  0.51100000000E-03 0.  1.
         11   -1    0    0    0    0 -0.00000000000E+00 -0.00000000000E+00 -0.45593999997E+02  0.45594000000E+02  0.51100000000E-03 0. -1.
    9900012    2    1    2    0    0 -0.32699784061E+02  0.24163616996E+02  0.95581117006E-01  0.50528863269E+02  0.30000010392E+02 0.  0.
         12    1    1    2    0    0  0.32699784061E+02 -0.24163616996E+02 -0.95581117006E-01  0.40659136731E+02  0.00000000000E+00 0. -1.
         11    1    3    3    0    0 -0.41441726087E+01 -0.56874748152E+01 -0.20305671670E+01  0.73242569360E+01  0.51100000000E-03 0. -1.
        -11    1    3    3    0    0 -0.19181759512E+02  0.17742105761E+02 -0.45098467039E+01  0.26515296196E+02  0.51100000000E-03 0.  1.
        -12    1    3    3    0    0 -0.93738519400E+01  0.12108986051E+02  0.66359949879E+01  0.16689310137E+02  0.00000000000E+00 0.  1.
</event>
<event>
 7    1  0.5748623E-013  0.5052886E+02  0.7816164E-02  0.1300439E+00
        -11   -1    0    0    0    0  0.00000000000E+00  0.00000000000E+00  0.45593999997E+02  0.45594000000E+02  0.51100000000E-03 0. -1.
         11   -1    0    0    0    0 -0.00000000000E+00 -0.00000000000E+00 -0.45593999997E+02  0.45594000000E+02  0.51100000000E-03 0.  1.
    9900012    2    1    2    0    0  0.38312812282E+02 -0.13590854471E+02 -0.76337201883E+00  0.50528860228E+02  0.30000001148E+02 0.  0.
         12    1    1    2    0    0 -0.38312812282E+02  0.13590854471E+02  0.76337201883E+00  0.40659139772E+02  0.00000000000E+00 0. -1.
         11    1    3    3    0    0  0.12612737822E+02  0.13289718585E+01 -0.12045251536E+02  0.17491009302E+02  0.51100000000E-03 0. -1.
        -11    1    3    3    0    0  0.24396744474E+02 -0.11249621300E+02  0.82548910507E+01  0.28105130259E+02  0.51100000000E-03 0.  1.
         12    1    3    3    0    0  0.13033299857E+01 -0.36702050293E+01  0.30269884664E+01  0.49327206676E+01  0.00000000000E+00 0. -1.
</event>
<event>
 7    1  0.5748623E-013  0.5052886E+02  0.7816164E-02  0.1300439E+00
        -11   -1    0    0    0    0  0.00000000000E+00  0.00000000000E+00  0.45593999997E+02  0.45594000000E+02  0.51100000000E-03 0.  1.
         11   -1    0    0    0    0 -0.00000000000E+00 -0.00000000000E+00 -0.45593999997E+02  0.45594000000E+02  0.51100000000E-03 0. -1.
    9900012    2    1    2    0    0 -0.18222433699E+01  0.39262931234E+01  0.40428078251E+02  0.50528857613E+02  0.29999993200E+02 0.  0.
         12    1    1    2    0    0  0.18222433699E+01 -0.39262931234E+01 -0.40428078251E+02  0.40659142387E+02  0.00000000000E+00 0. -1.
         11    1    3    3    0    0  0.15570648283E+01 -0.69446707617E+01 -0.12525177752E+01  0.72264586006E+01  0.51100000000E-03 0. -1.
        -11    1    3    3    0    0 -0.85433275710E+00  0.66775636682E+01  0.21109933562E+02  0.22157369796E+02  0.51100000000E-03 0.  1.
         12    1    3    3    0    0 -0.25249754411E+01  0.41934002170E+01  0.20570662464E+02  0.21145029217E+02  0.00000000000E+00 0. -1.
</event>
<event>
 7    1  0.5748623E-013  0.5052887E+02  0.7816164E-02  0.1300439E+00
        -11   -1    0    0    0    0  0.00000000000E+00  0.00000000000E+00  0.45593999997E+02  0.45594000000E+02  0.51100000000E-03 0. -1.
         11   -1    0    0    0    0 -0.00000000000E+00 -0.00000000000E+00 -0.45593999997E+02  0.45594000000E+02  0.51100000000E-03 0.  1.
    9900012    2    1    2    0    0  0.20628859969E+01  0.31902634149E+02 -0.25122330893E+02  0.50528867277E+02  0.30000022576E+02 0.  0.
         12    1    1    2    0    0 -0.20628859969E+01 -0.31902634149E+02  0.25122330893E+02  0.40659132723E+02  0.00000000000E+00 0. -1.
         11    1    3    3    0    0  0.14503002013E+01 -0.88260468379E+00 -0.10545583659E+01  0.19986133468E+01  0.51100000000E-03 0. -1.
        -11    1    3    3    0    0  0.69378657919E+01  0.24198568381E+02 -0.35718326579E+01  0.25425630419E+02  0.51100000000E-03 0.  1.
        -12    1    3    3    0    0 -0.63252799962E+01  0.85866704515E+01 -0.20495939869E+02  0.23104623511E+02  0.00000000000E+00 0.  1.
</event>
<event>
 7    1  0.5748623E-013  0.5052888E+02  0.7816164E-02  0.1300439E+00
        -11   -1    0    0    0    0  0.00000000000E+00  0.00000000000E+00  0.45593999997E+02  0.45594000000E+02  0.51100000000E-03 0.  1.
         11   -1    0    0    0    0 -0.00000000000E+00 -0.00000000000E+00 -0.45593999997E+02  0.45594000000E+02  0.51100000000E-03 0. -1.
    9900012    2    1    2    0    0  0.23063672382E+02  0.23634659674E+02 -0.23719912403E+02  0.50528875980E+02  0.30000049030E+02 0.  0.
         12    1    1    2    0    0 -0.23063672382E+02 -0.23634659674E+02  0.23719912403E+02  0.40659124020E+02  0.00000000000E+00 0. -1.
         11    1    3    3    0    0  0.53304856946E+01 -0.27286209014E+00 -0.46660207653E+01  0.70894486036E+01  0.51100000000E-03 0. -1.
        -11    1    3    3    0    0 -0.31855009038E+01  0.15495985703E+02 -0.11863489417E+02  0.19774108585E+02  0.51100000000E-03 0.  1.
        -12    1    3    3    0    0  0.20918687591E+02  0.84115360617E+01 -0.71904022202E+01  0.23665318792E+02  0.00000000000E+00 0.  1.
</event>
<event>
 7    1  0.5748623E-013  0.5052885E+02  0.7816164E-02  0.1300439E+00
        -11   -1    0    0    0    0  0.00000000000E+00  0.00000000000E+00  0.45593999997E+02  0.45594000000E+02  0.51100000000E-03 0.  1.
         11   -1    0    0    0    0 -0.00000000000E+00 -0.00000000000E+00 -0.45593999997E+02  0.45594000000E+02  0.51100000000E-03 0. -1.
    9900012    2    1    2    0    0  0.40226684285E+02  0.33191722736E+01 -0.48952748910E+01  0.50528846672E+02  0.29999959943E+02 0.  0.
         12    1    1    2    0    0 -0.40226684285E+02 -0.33191722736E+01  0.48952748910E+01  0.40659153328E+02  0.00000000000E+00 0. -1.
         11    1    3    3    0    0  0.36514298838E+02  0.61533393230E+01 -0.10573990513E+02  0.38509309006E+02  0.51100000000E-03 0. -1.
        -11    1    3    3    0    0  0.63037477279E+01 -0.35285138287E+01  0.59005598526E+01  0.93276069864E+01  0.51100000000E-03 0.  1.
         12    1    3    3    0    0 -0.25913622811E+01  0.69434677931E+00 -0.22184423042E+00  0.26919306797E+01  0.00000000000E+00 0. -1.
</event>
<event>
 7    1  0.5748623E-013  0.5052886E+02  0.7816164E-02  0.1300439E+00
        -11   -1    0    0    0    0  0.00000000000E+00  0.00000000000E+00  0.45593999997E+02  0.45594000000E+02  0.51100000000E-03 0. -1.
         11   -1    0    0    0    0 -0.00000000000E+00 -0.00000000000E+00 -0.45593999997E+02  0.45594000000E+02  0.51100000000E-03 0.  1.
    9900012    2    1    2    0    0  0.30579946065E+02  0.10016695801E+02 -0.24853542599E+02  0.50528857414E+02  0.29999992597E+02 0.  0.
         12    1    1    2    0    0 -0.30579946065E+02 -0.10016695801E+02  0.24853542599E+02  0.40659142586E+02  0.00000000000E+00 0. -1.
         11    1    3    3    0    0  0.95608261904E+01  0.75983001792E+01 -0.31393560582E+01  0.12609485310E+02  0.51100000000E-03 0. -1.
        -11    1    3    3    0    0 -0.12977967973E+01 -0.66103484439E+01 -0.27636715683E+01  0.72814053503E+01  0.51100000000E-03 0.  1.
        -12    1    3    3    0    0  0.22316916672E+02  0.90287440654E+01 -0.18950514972E+02  0.30637966754E+02  0.00000000000E+00 0.  1.
</event>
<event>
 7    1  0.5748623E-013  0.5052886E+02  0.7816164E-02  0.1300439E+00
        -11   -1    0    0    0    0  0.00000000000E+00  0.00000000000E+00  0.45593999997E+02  0.45594000000E+02  0.51100000000E-03 0. -1.
         11   -1    0    0    0    0 -0.00000000000E+00 -0.00000000000E+00 -0.45593999997E+02  0.45594000000E+02  0.51100000000E-03 0.  1.
    9900012    2    1    2    0    0 -0.25620965632E+02  0.28576468677E+02 -0.13420773090E+02  0.50528860901E+02  0.30000003193E+02 0.  0.
         12    1    1    2    0    0  0.25620965632E+02 -0.28576468677E+02  0.13420773090E+02  0.40659139099E+02  0.00000000000E+00 0. -1.
         11    1    3    3    0    0 -0.22369439011E+01 -0.26393469743E+01 -0.55772202999E+01  0.65631895449E+01  0.51100000000E-03 0. -1.
        -11    1    3    3    0    0 -0.15934799740E+02  0.31663666549E+02 -0.43086343624E+01  0.35708121659E+02  0.51100000000E-03 0.  1.
        -12    1    3    3    0    0 -0.74492219911E+01 -0.44785089780E+00 -0.35349184279E+01  0.82575496966E+01  0.00000000000E+00 0.  1.
</event>
<event>
 7    1  0.5748623E-013  0.5052886E+02  0.7816164E-02  0.1300439E+00
        -11   -1    0    0    0    0  0.00000000000E+00  0.00000000000E+00  0.45593999997E+02  0.45594000000E+02  0.51100000000E-03 0.  1.
         11   -1    0    0    0    0 -0.00000000000E+00 -0.00000000000E+00 -0.45593999997E+02  0.45594000000E+02  0.51100000000E-03 0. -1.
    9900012    2    1    2    0    0 -0.10903781038E+02  0.18631611441E+02  0.34454842316E+02  0.50528861485E+02  0.30000004969E+02 0.  0.
         12    1    1    2    0    0  0.10903781038E+02 -0.18631611441E+02 -0.34454842316E+02  0.40659138515E+02  0.00000000000E+00 0. -1.
         11    1    3    3    0    0 -0.10376637123E+02 -0.11865878351E+00  0.49145819843E+01  0.11482238206E+02  0.51100000000E-03 0. -1.
        -11    1    3    3    0    0  0.77498633617E+01  0.92050915311E+01  0.93902251664E+01  0.15263368605E+02  0.51100000000E-03 0.  1.
        -12    1    3    3    0    0 -0.82770072768E+01  0.95451786933E+01  0.20150035165E+02  0.23783254674E+02  0.00000000000E+00 0.  1.
</event>
<event>
 7    1  0.5748623E-013  0.5052879E+02  0.7816164E-02  0.1300439E+00
        -11   -1    0    0    0    0  0.00000000000E+00  0.00000000000E+00  0.45593999997E+02  0.45594000000E+02  0.51100000000E-03 0.  1.
         11   -1    0    0    0    0 -0.00000000000E+00 -0.00000000000E+00 -0.45593999997E+02  0.45594000000E+02  0.51100000000E-03 0. -1.
    9900012    2    1    2    0    0 -0.38087902295E+02  0.56398687016E+01 -0.13064251889E+02  0.50528793200E+02  0.29999797409E+02 0.  0.
         12    1    1    2    0    0  0.38087902295E+02 -0.56398687016E+01  0.13064251889E+02  0.40659206800E+02  0.00000000000E+00 0. -1.
         11    1    3    3    0    0 -0.94962930553E+01  0.50896888310E+01 -0.15255299113E+02  0.18676420039E+02  0.51100000000E-03 0. -1.
        -11    1    3    3    0    0 -0.26061014847E+02  0.49820951454E+01  0.29355272387E+01  0.26694851326E+02  0.51100000000E-03 0.  1.
         12    1    3    3    0    0 -0.25305943927E+01 -0.44319152748E+01 -0.74448001520E+00  0.51575218348E+01  0.00000000000E+00 0. -1.
</event>
<event>
 7    1  0.5748623E-013  0.5052894E+02  0.7816164E-02  0.1300439E+00
        -11   -1    0    0    0    0  0.00000000000E+00  0.00000000000E+00  0.45593999997E+02  0.45594000000E+02  0.51100000000E-03 0.  1.
         11   -1    0    0    0    0 -0.00000000000E+00 -0.00000000000E+00 -0.45593999997E+02  0.45594000000E+02  0.51100000000E-03 0. -1.
    9900012    2    1    2    0    0  0.56144489285E+01 -0.53706859432E+01  0.39909811687E+02  0.50528937380E+02  0.30000235658E+02 0.  0.
         12    1    1    2    0    0 -0.56144489285E+01  0.53706859432E+01 -0.39909811687E+02  0.40659062620E+02  0.00000000000E+00 0. -1.
         11    1    3    3    0    0 -0.83158251211E+01  0.57645740476E+01  0.17886863889E+02  0.20550502705E+02  0.51100000000E-03 0. -1.
        -11    1    3    3    0    0 -0.14177006697E+01 -0.54331562656E+00  0.28692350294E+01  0.32461634238E+01  0.51100000000E-03 0.  1.
         12    1    3    3    0    0  0.15347974719E+02 -0.10591944364E+02  0.19153712769E+02  0.26732271251E+02  0.00000000000E+00 0. -1.
</event>
<event>
 7    1  0.5748623E-013  0.5052886E+02  0.7816164E-02  0.1300439E+00
        -11   -1    0    0    0    0  0.00000000000E+00  0.00000000000E+00  0.45593999997E+02  0.45594000000E+02  0.51100000000E-03 0.  1.
         11   -1    0    0    0    0 -0.00000000000E+00 -0.00000000000E+00 -0.45593999997E+02  0.45594000000E+02  0.51100000000E-03 0. -1.
    9900012    2    1    2    0    0 -0.57352171856E+01  0.19599449338E+02  0.35158707851E+02  0.50528857507E+02  0.29999992879E+02 0.  0.
         12    1    1    2    0    0  0.57352171856E+01 -0.19599449338E+02 -0.35158707851E+02  0.40659142493E+02  0.00000000000E+00 0. -1.
         11    1    3    3    0    0  0.11278039709E+02  0.12646912345E+02  0.14149939620E+02  0.22076217137E+02  0.51100000000E-03 0. -1.
        -11    1    3    3    0    0 -0.15907777175E+02  0.62100898285E+01  0.16479854921E+02  0.23732008108E+02  0.51100000000E-03 0.  1.
         12    1    3    3    0    0 -0.11054797198E+01  0.74244716401E+00  0.45289133091E+01  0.47206322631E+01  0.00000000000E+00 0. -1.
</event>
<event>
 7    1  0.5748623E-013  0.5052886E+02  0.7816164E-02  0.1300439E+00
        -11   -1    0    0    0    0  0.00000000000E+00  0.00000000000E+00  0.45593999997E+02  0.45594000000E+02  0.51100000000E-03 0.  1.
         11   -1    0    0    0    0 -0.00000000000E+00 -0.00000000000E+00 -0.45593999997E+02  0.45594000000E+02  0.51100000000E-03 0. -1.
    9900012    2    1    2    0    0  0.17678515781E+02  0.23464164940E+02  0.28108163992E+02  0.50528857860E+02  0.29999993950E+02 0.  0.
         12    1    1    2    0    0 -0.17678515781E+02 -0.23464164940E+02 -0.28108163992E+02  0.40659142140E+02  0.00000000000E+00 0. -1.
         11    1    3    3    0    0  0.76104491687E+01 -0.22581468045E+01  0.75988933916E+01  0.10989146672E+02  0.51100000000E-03 0. -1.
        -11    1    3    3    0    0  0.14422309190E+02  0.23502038296E+02  0.20952921644E+02  0.34631975573E+02  0.51100000000E-03 0.  1.
        -12    1    3    3    0    0 -0.43542425774E+01  0.22202734493E+01 -0.44365104348E+00  0.49077356144E+01  0.00000000000E+00 0.  1.
</event>
<event>
 7    1  0.5748623E-013  0.5052886E+02  0.7816164E-02  0.1300439E+00
        -11   -1    0    0    0    0  0.00000000000E+00  0.00000000000E+00  0.45593999997E+02  0.45594000000E+02  0.51100000000E-03 0.  1.
         11   -1    0    0    0    0 -0.00000000000E+00 -0.00000000000E+00 -0.45593999997E+02  0.45594000000E+02  0.51100000000E-03 0. -1.
    9900012    2    1    2    0    0 -0.63807209826E+01  0.37446152902E+02 -0.14499569144E+02  0.50528862371E+02  0.30000007661E+02 0.  0.
         12    1    1    2    0    0  0.63807209826E+01 -0.37446152902E+02  0.14499569144E+02  0.40659137629E+02  0.00000000000E+00 0. -1.
         11    1    3    3    0    0  0.16121989602E+01 -0.49725023883E+01 -0.18420954016E+01  0.55424075292E+01  0.51100000000E-03 0. -1.
        -11    1    3    3    0    0 -0.74057872379E+01  0.38404396949E+02 -0.11505520697E+02  0.40769110812E+02  0.51100000000E-03 0.  1.
         12    1    3    3    0    0 -0.58713270495E+00  0.40142583416E+01 -0.11519530453E+01  0.42173440297E+01  0.00000000000E+00 0. -1.
</event>
<event>
 7    1  0.5748623E-013  0.5052886E+02  0.7816164E-02  0.1300439E+00
        -11   -1    0    0    0    0  0.00000000000E+00  0.00000000000E+00  0.45593999997E+02  0.45594000000E+02  0.51100000000E-03 0. -1.
         11   -1    0    0    0    0 -0.00000000000E+00 -0.00000000000E+00 -0.45593999997E+02  0.45594000000E+02  0.51100000000E-03 0.  1.
    9900012    2    1    2    0    0  0.16565039743E+02 -0.26949972559E+02  0.25543374881E+02  0.50528861262E+02  0.30000004291E+02 0.  0.
         12    1    1    2    0    0 -0.16565039743E+02  0.26949972559E+02 -0.25543374881E+02  0.40659138738E+02  0.00000000000E+00 0. -1.
         11    1    3    3    0    0  0.64788950957E+01 -0.18009383760E+01 -0.93674403767E-01  0.67251941125E+01  0.51100000000E-03 0. -1.
        -11    1    3    3    0    0  0.11035326290E+02 -0.16346995171E+02  0.28357528898E+02  0.34542034146E+02  0.51100000000E-03 0.  1.
        -12    1    3    3    0    0 -0.94918164263E+00 -0.88020390122E+01 -0.27204796134E+01  0.92616330035E+01  0.00000000000E+00 0.  1.
</event>
<event>
 7    1  0.5748623E-013  0.5052886E+02  0.7816164E-02  0.1300439E+00
        -11   -1    0    0    0    0  0.00000000000E+00  0.00000000000E+00  0.45593999997E+02  0.45594000000E+02  0.51100000000E-03 0. -1.
         11   -1    0    0    0    0 -0.00000000000E+00 -0.00000000000E+00 -0.45593999997E+02  0.45594000000E+02  0.51100000000E-03 0.  1.
    9900012    2    1    2    0    0  0.25255664564E+02  0.10488949922E+02 -0.30088188208E+02  0.50528859174E+02  0.29999997946E+02 0.  0.
         12    1    1    2    0    0 -0.25255664564E+02 -0.10488949922E+02  0.30088188208E+02  0.40659140826E+02  0.00000000000E+00 0. -1.
         11    1    3    3    0    0  0.10036522178E+02 -0.26694902986E+01 -0.24273440672E+02  0.26401853689E+02  0.51100000000E-03 0. -1.
        -11    1    3    3    0    0  0.16257882369E+02  0.14068047688E+02 -0.66608354338E+01  0.22507674998E+02  0.51100000000E-03 0.  1.
         12    1    3    3    0    0 -0.10387399836E+01 -0.90960746736E+00  0.84608789738E+00  0.16193304877E+01  0.00000000000E+00 0. -1.
</event>
<event>
 7    1  0.5748623E-013  0.5052885E+02  0.7816164E-02  0.1300439E+00
        -11   -1    0    0    0    0  0.00000000000E+00  0.00000000000E+00  0.45593999997E+02  0.45594000000E+02  0.51100000000E-03 0.  1.
         11   -1    0    0    0    0 -0.00000000000E+00 -0.00000000000E+00 -0.45593999997E+02  0.45594000000E+02  0.51100000000E-03 0. -1.
    9900012    2    1    2    0    0 -0.30554165411E+02 -0.22000133988E+02  0.15349379610E+02  0.50528851289E+02  0.29999973980E+02 0.  0.
         12    1    1    2    0    0  0.30554165411E+02  0.22000133988E+02 -0.15349379610E+02  0.40659148711E+02  0.00000000000E+00 0. -1.
         11    1    3    3    0    0 -0.49756747224E+01 -0.39305845179E+01 -0.22451233911E+01  0.67266197230E+01  0.51100000000E-03 0. -1.
        -11    1    3    3    0    0 -0.20247322293E+01 -0.79156494300E+01  0.16165821333E+02  0.18113277620E+02  0.51100000000E-03 0.  1.
        -12    1    3    3    0    0 -0.23553758459E+02 -0.10153900040E+02  0.14286816684E+01  0.25688953947E+02  0.00000000000E+00 0.  1.
</event>
<event>
 7    1  0.5748623E-013  0.5052887E+02  0.7816164E-02  0.1300439E+00
        -11   -1    0    0    0    0  0.00000000000E+00  0.00000000000E+00  0.45593999997E+02  0.45594000000E+02  0.51100000000E-03 0.  1.
         11   -1    0    0    0    0 -0.00000000000E+00 -0.00000000000E+00 -0.45593999997E+02  0.45594000000E+02  0.51100000000E-03 0. -1.
    9900012    2    1    2    0    0  0.19018024522E+02 -0.31786473976E+02 -0.16766034474E+02  0.50528866997E+02  0.30000021723E+02 0.  0.
         12    1    1    2    0    0 -0.19018024522E+02  0.31786473976E+02  0.16766034474E+02  0.40659133003E+02  0.00000000000E+00 0. -1.
         11    1    3    3    0    0 -0.94661675748E+00 -0.67030538778E+01 -0.51093311862E+01  0.84812899965E+01  0.51100000000E-03 0. -1.
        -11    1    3    3    0    0  0.12794552728E+02 -0.13350467206E+02  0.62062699583E+01  0.19505213180E+02  0.51100000000E-03 0.  1.
        -12    1    3    3    0    0  0.71700885519E+01 -0.11732952893E+02 -0.17862973246E+02  0.22542363820E+02  0.00000000000E+00 0.  1.
</event>
<event>
 7    1  0.5748623E-013  0.5052886E+02  0.7816164E-02  0.1300439E+00
        -11   -1    0    0    0    0  0.00000000000E+00  0.00000000000E+00  0.45593999997E+02  0.45594000000E+02  0.51100000000E-03 0. -1.
         11   -1    0    0    0    0 -0.00000000000E+00 -0.00000000000E+00 -0.45593999997E+02  0.45594000000E+02  0.51100000000E-03 0.  1.
    9900012    2    1    2    0    0  0.13195670108E+02  0.19838540790E+02 -0.32946509566E+02  0.50528857082E+02  0.29999991585E+02 0.  0.
         12    1    1    2    0    0 -0.13195670108E+02 -0.19838540790E+02  0.32946509566E+02  0.40659142918E+02  0.00000000000E+00 0. -1.
         11    1    3    3    0    0 -0.46464090575E+01 -0.17888512034E+01 -0.11300180927E+02  0.12348408602E+02  0.51100000000E-03 0. -1.
        -11    1    3    3    0    0  0.98774050324E+01  0.19422343653E+02 -0.10190715966E+02  0.24054963216E+02  0.51100000000E-03 0.  1.
        -12    1    3    3    0    0  0.79646741328E+01  0.22050483402E+01 -0.11455612673E+02  0.14125485264E+02  0.00000000000E+00 0.  1.
</event>
<event>
 7    1  0.5748623E-013  0.5052886E+02  0.7816164E-02  0.1300439E+00
        -11   -1    0    0    0    0  0.00000000000E+00  0.00000000000E+00  0.45593999997E+02  0.45594000000E+02  0.51100000000E-03 0. -1.
         11   -1    0    0    0    0 -0.00000000000E+00 -0.00000000000E+00 -0.45593999997E+02  0.45594000000E+02  0.51100000000E-03 0.  1.
    9900012    2    1    2    0    0 -0.31987291443E+02 -0.25050841180E+02 -0.15601701809E+01  0.50528860946E+02  0.30000003331E+02 0.  0.
         12    1    1    2    0    0  0.31987291443E+02  0.25050841180E+02  0.15601701809E+01  0.40659139054E+02  0.00000000000E+00 0. -1.
         11    1    3    3    0    0 -0.36619983978E+01 -0.24973028691E+00  0.43744724934E+01  0.57103946745E+01  0.51100000000E-03 0. -1.
        -11    1    3    3    0    0 -0.27718585255E+02 -0.26986014592E+02 -0.10182639941E+02  0.40003138733E+02  0.51100000000E-03 0.  1.
        -12    1    3    3    0    0 -0.60670779024E+00  0.21849036992E+01  0.42479972672E+01  0.48153275381E+01  0.00000000000E+00 0.  1.
</event>
<event>
 7    1  0.5748623E-013  0.5052885E+02  0.7816164E-02  0.1300439E+00
        -11   -1    0    0    0    0  0.00000000000E+00  0.00000000000E+00  0.45593999997E+02  0.45594000000E+02  0.51100000000E-03 0.  1.
         11   -1    0    0    0    0 -0.00000000000E+00 -0.00000000000E+00 -0.45593999997E+02  0.45594000000E+02  0.51100000000E-03 0. -1.
    9900012    2    1    2    0    0 -0.26793079266E+02  0.23280912959E+02  0.19831702670E+02  0.50528850531E+02  0.29999971673E+02 0.  0.
         12    1    1    2    0    0  0.26793079266E+02 -0.23280912959E+02 -0.19831702670E+02  0.40659149469E+02  0.00000000000E+00 0. -1.
         11    1    3    3    0    0 -0.46720302858E+01  0.69927036906E+01 -0.36151782493E+01  0.91539765092E+01  0.51100000000E-03 0. -1.
        -11    1    3    3    0    0 -0.16109550248E+02  0.20050533274E+02  0.22588584085E+02  0.34231354413E+02  0.51100000000E-03 0.  1.
        -12    1    3    3    0    0 -0.60114987327E+01 -0.37623240056E+01  0.85829683503E+00  0.71435196083E+01  0.00000000000E+00 0.  1.
</event>
<event>
 7    1  0.5748623E-013  0.5052883E+02  0.7816164E-02  0.1300439E+00
        -11   -1    0    0    0    0  0.00000000000E+00  0.00000000000E+00  0.45593999997E+02  0.45594000000E+02  0.51100000000E-03 0.  1.
         11   -1    0    0    0    0 -0.00000000000E+00 -0.00000000000E+00 -0.45593999997E+02  0.45594000000E+02  0.51100000000E-03 0. -1.
    9900012    2    1    2    0    0  0.37965944291E+02  0.21933737827E+01  0.14385570585E+02  0.50528825690E+02  0.29999896168E+02 0.  0.
         12    1    1    2    0    0 -0.37965944291E+02 -0.21933737827E+01 -0.14385570585E+02  0.40659174310E+02  0.00000000000E+00 0. -1.
         11    1    3    3    0    0  0.13179155002E+02 -0.63732310089E+01  0.14285390489E+02  0.20454353614E+02  0.51100000000E-03 0.  1.
        -11    1    3    3    0    0  0.23853408476E+02  0.96066842513E+01 -0.37419645479E+01  0.25986068906E+02  0.51100000000E-03 0. -1.
         12    1    3    3    0    0  0.93338081283E+00 -0.10400794598E+01  0.38421446438E+01  0.40884031710E+01  0.00000000000E+00 0. -1.
</event>
<event>
 7    1  0.5748623E-013  0.5052884E+02  0.7816164E-02  0.1300439E+00
        -11   -1    0    0    0    0  0.00000000000E+00  0.00000000000E+00  0.45593999997E+02  0.45594000000E+02  0.51100000000E-03 0. -1.
         11   -1    0    0    0    0 -0.00000000000E+00 -0.00000000000E+00 -0.45593999997E+02  0.45594000000E+02  0.51100000000E-03 0.  1.
    9900012    2    1    2    0    0 -0.57808477303E+01  0.37454857719E+02 -0.14726933665E+02  0.50528841838E+02  0.29999945251E+02 0.  0.
         12    1    1    2    0    0  0.57808477303E+01 -0.37454857719E+02  0.14726933665E+02  0.40659158162E+02  0.00000000000E+00 0. -1.
         11    1    3    3    0    0  0.71241439494E+01  0.47672059465E+01 -0.70499938014E+01  0.11098742830E+02  0.51100000000E-03 0. -1.
        -11    1    3    3    0    0 -0.39325657125E+01  0.20185809335E+02 -0.11516012110E+02  0.23570118939E+02  0.51100000000E-03 0.  1.
         12    1    3    3    0    0 -0.89724259673E+01  0.12501842437E+02  0.38390722465E+01  0.15859980069E+02  0.00000000000E+00 0. -1.
</event>
<event>
 7    1  0.5748623E-013  0.5052886E+02  0.7816164E-02  0.1300439E+00
        -11   -1    0    0    0    0  0.00000000000E+00  0.00000000000E+00  0.45593999997E+02  0.45594000000E+02  0.51100000000E-03 0.  1.
         11   -1    0    0    0    0 -0.00000000000E+00 -0.00000000000E+00 -0.45593999997E+02  0.45594000000E+02  0.51100000000E-03 0. -1.
    9900012    2    1    2    0    0  0.12990237883E+01  0.10607222921E+01  0.40624535478E+02  0.50528862314E+02  0.30000007489E+02 0.  0.
         12    1    1    2    0    0 -0.12990237883E+01 -0.10607222921E+01 -0.40624535478E+02  0.40659137686E+02  0.00000000000E+00 0. -1.
         11    1    3    3    0    0 -0.98779605120E+01  0.66489386591E+01  0.14991460050E+02  0.19144878267E+02  0.51100000000E-03 0. -1.
        -11    1    3    3    0    0  0.70852213532E+01  0.33959683820E+01  0.82467716066E+01  0.11390443585E+02  0.51100000000E-03 0.  1.
         12    1    3    3    0    0  0.40917629472E+01 -0.89841847490E+01  0.17386303821E+02  0.19993540461E+02  0.00000000000E+00 0. -1.
</event>
<event>
 7    1  0.5748623E-013  0.5052886E+02  0.7816164E-02  0.1300439E+00
        -11   -1    0    0    0    0  0.00000000000E+00  0.00000000000E+00  0.45593999997E+02  0.45594000000E+02  0.51100000000E-03 0. -1.
         11   -1    0    0    0    0 -0.00000000000E+00 -0.00000000000E+00 -0.45593999997E+02  0.45594000000E+02  0.51100000000E-03 0.  1.
    9900012    2    1    2    0    0  0.14377061164E+02 -0.33458087227E+01 -0.37884972865E+02  0.50528862125E+02  0.30000006916E+02 0.  0.
         12    1    1    2    0    0 -0.14377061164E+02  0.33458087227E+01  0.37884972865E+02  0.40659137875E+02  0.00000000000E+00 0. -1.
         11    1    3    3    0    0 -0.16791971336E+00  0.84402335107E-02  0.22775136247E+01  0.22837111988E+01  0.51100000000E-03 0. -1.
        -11    1    3    3    0    0  0.10532438855E+02  0.23401963611E+01 -0.39836122263E+02  0.41271363250E+02  0.51100000000E-03 0.  1.
        -12    1    3    3    0    0  0.40125420222E+01 -0.56944453173E+01 -0.32636422649E+00  0.69737876767E+01  0.00000000000E+00 0.  1.
</event>
<event>
 7    1  0.5748623E-013  0.5052887E+02  0.7816164E-02  0.1300439E+00
        -11   -1    0    0    0    0  0.00000000000E+00  0.00000000000E+00  0.45593999997E+02  0.45594000000E+02  0.51100000000E-03 0.  1.
         11   -1    0    0    0    0 -0.00000000000E+00 -0.00000000000E+00 -0.45593999997E+02  0.45594000000E+02  0.51100000000E-03 0. -1.
    9900012    2    1    2    0    0  0.14034683716E+02 -0.21944937839E+02  0.31218784118E+02  0.50528866640E+02  0.30000020639E+02 0.  0.
         12    1    1    2    0    0 -0.14034683716E+02  0.21944937839E+02 -0.31218784118E+02  0.40659133360E+02  0.00000000000E+00 0. -1.
         11    1    3    3    0    0 -0.50545733974E+01  0.16584835153E+01  0.15139103533E+01  0.55309316230E+01  0.51100000000E-03 0. -1.
        -11    1    3    3    0    0  0.70410585061E+01 -0.11689746445E+02  0.23064730887E+02  0.26799412083E+02  0.51100000000E-03 0.  1.
         12    1    3    3    0    0  0.12048198608E+02 -0.11913674910E+02  0.66401428773E+01  0.18198522934E+02  0.00000000000E+00 0. -1.
</event>
<event>
 7    1  0.5748623E-013  0.5052886E+02  0.7816164E-02  0.1300439E+00
        -11   -1    0    0    0    0  0.00000000000E+00  0.00000000000E+00  0.45593999997E+02  0.45594000000E+02  0.51100000000E-03 0.  1.
         11   -1    0    0    0    0 -0.00000000000E+00 -0.00000000000E+00 -0.45593999997E+02  0.45594000000E+02  0.51100000000E-03 0. -1.
    9900012    2    1    2    0    0 -0.20224625991E+02 -0.32577092924E+02  0.13522695624E+02  0.50528858632E+02  0.29999996297E+02 0.  0.
         12    1    1    2    0    0  0.20224625991E+02  0.32577092924E+02 -0.13522695624E+02  0.40659141368E+02  0.00000000000E+00 0. -1.
         11    1    3    3    0    0 -0.54383230908E+01 -0.28703974550E+02  0.48736491740E+00  0.29218676182E+02  0.51100000000E-03 0. -1.
        -11    1    3    3    0    0 -0.41266119726E+01  0.10740643621E+00  0.77132482682E+01  0.87484090910E+01  0.51100000000E-03 0.  1.
         12    1    3    3    0    0 -0.10659690927E+02 -0.39805248106E+01  0.53220824384E+01  0.12561773359E+02  0.00000000000E+00 0. -1.
</event>
<event>
 7    1  0.5748623E-013  0.5052886E+02  0.7816164E-02  0.1300439E+00
        -11   -1    0    0    0    0  0.00000000000E+00  0.00000000000E+00  0.45593999997E+02  0.45594000000E+02  0.51100000000E-03 0.  1.
         11   -1    0    0    0    0 -0.00000000000E+00 -0.00000000000E+00 -0.45593999997E+02  0.45594000000E+02  0.51100000000E-03 0. -1.
    9900012    2    1    2    0    0  0.31381687796E+02 -0.54347332369E+00  0.25846851886E+02  0.50528862717E+02  0.30000008716E+02 0.  0.
         12    1    1    2    0    0 -0.31381687796E+02  0.54347332369E+00 -0.25846851886E+02  0.40659137283E+02  0.00000000000E+00 0. -1.
         11    1    3    3    0    0  0.16758890071E+01  0.19389925220E+01 -0.94430880658E+00  0.27313028663E+01  0.51100000000E-03 0. -1.
        -11    1    3    3    0    0  0.32519429247E+02 -0.72561199400E+01  0.19384967898E+02  0.38547912211E+02  0.51100000000E-03 0.  1.
        -12    1    3    3    0    0 -0.28136304583E+01  0.47736540943E+01  0.74061927943E+01  0.92496476406E+01  0.00000000000E+00 0.  1.
</event>
<event>
 7    1  0.5748623E-013  0.5052886E+02  0.7816164E-02  0.1300439E+00
        -11   -1    0    0    0    0  0.00000000000E+00  0.00000000000E+00  0.45593999997E+02  0.45594000000E+02  0.51100000000E-03 0. -1.
         11   -1    0    0    0    0 -0.00000000000E+00 -0.00000000000E+00 -0.45593999997E+02  0.45594000000E+02  0.51100000000E-03 0.  1.
    9900012    2    1    2    0    0 -0.21022568396E+02  0.34163658725E+02 -0.66378850941E+01  0.50528862307E+02  0.30000007469E+02 0.  0.
         12    1    1    2    0    0  0.21022568396E+02 -0.34163658725E+02  0.66378850941E+01  0.40659137693E+02  0.00000000000E+00 0. -1.
         11    1    3    3    0    0 -0.85496647856E+01 -0.16956496280E+01  0.18231978865E+01  0.89048327554E+01  0.51100000000E-03 0. -1.
        -11    1    3    3    0    0 -0.97652690751E-01  0.20362728569E+02 -0.77243348753E+01  0.21778787853E+02  0.51100000000E-03 0.  1.
         12    1    3    3    0    0 -0.12375250919E+02  0.15496579784E+02 -0.73674810533E+00  0.19845241699E+02  0.00000000000E+00 0. -1.
</event>
<event>
 7    1  0.5748623E-013  0.5052880E+02  0.7816164E-02  0.1300439E+00
        -11   -1    0    0    0    0  0.00000000000E+00  0.00000000000E+00  0.45593999997E+02  0.45594000000E+02  0.51100000000E-03 0.  1.
         11   -1    0    0    0    0 -0.00000000000E+00 -0.00000000000E+00 -0.45593999997E+02  0.45594000000E+02  0.51100000000E-03 0. -1.
    9900012    2    1    2    0    0 -0.13652538493E+02  0.28167227607E+02  0.25949677642E+02  0.50528803155E+02  0.29999827668E+02 0.  0.
         12    1    1    2    0    0  0.13652538493E+02 -0.28167227607E+02 -0.25949677642E+02  0.40659196845E+02  0.00000000000E+00 0. -1.
         11    1    3    3    0    0 -0.11267091515E+02 -0.52889393213E+00  0.11465561704E+02  0.16083724241E+02  0.51100000000E-03 0. -1.
        -11    1    3    3    0    0  0.22153298407E+01  0.23139074823E+02  0.14170885049E+02  0.27223858163E+02  0.51100000000E-03 0.  1.
        -12    1    3    3    0    0 -0.46007768181E+01  0.55570467164E+01  0.31323088970E+00  0.72212207506E+01  0.00000000000E+00 0.  1.
</event>
<event>
 7    1  0.5748623E-013  0.5052887E+02  0.7816164E-02  0.1300439E+00
        -11   -1    0    0    0    0  0.00000000000E+00  0.00000000000E+00  0.45593999997E+02  0.45594000000E+02  0.51100000000E-03 0.  1.
         11   -1    0    0    0    0 -0.00000000000E+00 -0.00000000000E+00 -0.45593999997E+02  0.45594000000E+02  0.51100000000E-03 0. -1.
    9900012    2    1    2    0    0 -0.12783907849E+02 -0.38540026416E+02  0.20983955206E+01  0.50528865727E+02  0.30000017865E+02 0.  0.
         12    1    1    2    0    0  0.12783907849E+02  0.38540026416E+02 -0.20983955206E+01  0.40659134273E+02  0.00000000000E+00 0. -1.
         11    1    3    3    0    0 -0.89491485207E+01 -0.98660605058E+01 -0.60306404165E+01  0.14621731541E+02  0.51100000000E-03 0. -1.
        -11    1    3    3    0    0 -0.36849093643E+01 -0.26010859287E+02  0.13774860891E+02  0.29662942381E+02  0.51100000000E-03 0.  1.
        -12    1    3    3    0    0 -0.14984996451E+00 -0.26631066229E+01 -0.56458249539E+01  0.62441918057E+01  0.00000000000E+00 0.  1.
</event>
<event>
 7    1  0.5748623E-013  0.5052886E+02  0.7816164E-02  0.1300439E+00
        -11   -1    0    0    0    0  0.00000000000E+00  0.00000000000E+00  0.45593999997E+02  0.45594000000E+02  0.51100000000E-03 0. -1.
         11   -1    0    0    0    0 -0.00000000000E+00 -0.00000000000E+00 -0.45593999997E+02  0.45594000000E+02  0.51100000000E-03 0.  1.
    9900012    2    1    2    0    0 -0.24661514834E+02 -0.31693056670E+02 -0.63659814946E+01  0.50528857420E+02  0.29999992612E+02 0.  0.
         12    1    1    2    0    0  0.24661514834E+02  0.31693056670E+02  0.63659814946E+01  0.40659142580E+02  0.00000000000E+00 0. -1.
         11    1    3    3    0    0  0.37670278827E+00 -0.11449714981E+02  0.46816339897E+01  0.12375604034E+02  0.51100000000E-03 0. -1.
        -11    1    3    3    0    0 -0.98311544293E+01 -0.14945771480E+02 -0.12738610378E+02  0.21961326854E+02  0.51100000000E-03 0.  1.
         12    1    3    3    0    0 -0.15207063193E+02 -0.52975702089E+01  0.16909948941E+01  0.16191926532E+02  0.00000000000E+00 0. -1.
</event>
<event>
 7    1  0.5748623E-013  0.5052888E+02  0.7816164E-02  0.1300439E+00
        -11   -1    0    0    0    0  0.00000000000E+00  0.00000000000E+00  0.45593999997E+02  0.45594000000E+02  0.51100000000E-03 0.  1.
         11   -1    0    0    0    0 -0.00000000000E+00 -0.00000000000E+00 -0.45593999997E+02  0.45594000000E+02  0.51100000000E-03 0. -1.
    9900012    2    1    2    0    0  0.23136689463E+02  0.16700848794E+02  0.28964452543E+02  0.50528877274E+02  0.30000052962E+02 0.  0.
         12    1    1    2    0    0 -0.23136689463E+02 -0.16700848794E+02 -0.28964452543E+02  0.40659122726E+02  0.00000000000E+00 0. -1.
         11    1    3    3    0    0  0.59681735513E+01 -0.17856917561E+01  0.88668501969E+00  0.62923764328E+01  0.51100000000E-03 0. -1.
        -11    1    3    3    0    0 -0.34000467139E+01  0.10070424929E+02  0.37133205730E+01  0.11258886528E+02  0.51100000000E-03 0.  1.
        -12    1    3    3    0    0  0.20568562625E+02  0.84161156206E+01  0.24364446950E+02  0.32977614313E+02  0.00000000000E+00 0.  1.
</event>
<event>
 7    1  0.5748623E-013  0.5052886E+02  0.7816164E-02  0.1300439E+00
        -11   -1    0    0    0    0  0.00000000000E+00  0.00000000000E+00  0.45593999997E+02  0.45594000000E+02  0.51100000000E-03 0. -1.
         11   -1    0    0    0    0 -0.00000000000E+00 -0.00000000000E+00 -0.45593999997E+02  0.45594000000E+02  0.51100000000E-03 0.  1.
    9900012    2    1    2    0    0 -0.59877898674E+01 -0.33678020240E+02  0.21979597782E+02  0.50528863346E+02  0.30000010628E+02 0.  0.
         12    1    1    2    0    0  0.59877898674E+01  0.33678020240E+02 -0.21979597782E+02  0.40659136654E+02  0.00000000000E+00 0. -1.
         11    1    3    3    0    0 -0.38396845835E+01 -0.17392817396E+02  0.15121085111E+02  0.23364513474E+02  0.51100000000E-03 0. -1.
        -11    1    3    3    0    0 -0.12657070420E+01 -0.13213890923E+02 -0.55227147427E+01  0.14377388707E+02  0.51100000000E-03 0.  1.
        -12    1    3    3    0    0 -0.88239824189E+00 -0.30713119204E+01  0.12381227414E+02  0.12786961166E+02  0.00000000000E+00 0.  1.
</event>
<event>
 7    1  0.5748623E-013  0.5052891E+02  0.7816164E-02  0.1300439E+00
        -11   -1    0    0    0    0  0.00000000000E+00  0.00000000000E+00  0.45593999997E+02  0.45594000000E+02  0.51100000000E-03 0. -1.
         11   -1    0    0    0    0 -0.00000000000E+00 -0.00000000000E+00 -0.45593999997E+02  0.45594000000E+02  0.51100000000E-03 0.  1.
    9900012    2    1    2    0    0  0.23006933284E+02 -0.10918229665E+02 -0.31695981834E+02  0.50528905291E+02  0.30000138122E+02 0.  0.
         12    1    1    2    0    0 -0.23006933284E+02  0.10918229665E+02  0.31695981834E+02  0.40659094709E+02  0.00000000000E+00 0. -1.
         11    1    3    3    0    0 -0.40105636602E+01  0.41238830789E+01 -0.56738214571E+01  0.80798070960E+01  0.51100000000E-03 0. -1.
        -11    1    3    3    0    0  0.19909826664E+02 -0.14667065476E+02 -0.13835768352E+02  0.28336416386E+02  0.51100000000E-03 0.  1.
        -12    1    3    3    0    0  0.71076702807E+01 -0.37504726831E+00 -0.12186392025E+02  0.14112681809E+02  0.00000000000E+00 0.  1.
</event>
<event>
 7    1  0.5748623E-013  0.5052886E+02  0.7816164E-02  0.1300439E+00
        -11   -1    0    0    0    0  0.00000000000E+00  0.00000000000E+00  0.45593999997E+02  0.45594000000E+02  0.51100000000E-03 0. -1.
         11   -1    0    0    0    0 -0.00000000000E+00 -0.00000000000E+00 -0.45593999997E+02  0.45594000000E+02  0.51100000000E-03 0.  1.
    9900012    2    1    2    0    0  0.30969193802E+02 -0.22134767576E+02 -0.14287289654E+02  0.50528861469E+02  0.30000004921E+02 0.  0.
         12    1    1    2    0    0 -0.30969193802E+02  0.22134767576E+02  0.14287289654E+02  0.40659138531E+02  0.00000000000E+00 0. -1.
         11    1    3    3    0    0  0.20988479806E+02 -0.15909453105E+02 -0.56752237425E+00  0.26342912986E+02  0.51100000000E-03 0. -1.
        -11    1    3    3    0    0 -0.43651655890E+01 -0.24516148925E+00 -0.32032637369E+01  0.54199329889E+01  0.51100000000E-03 0.  1.
        -12    1    3    3    0    0  0.14345879585E+02 -0.59801529823E+01 -0.10516503543E+02  0.18766015494E+02  0.00000000000E+00 0.  1.
</event>
<event>
 7    1  0.6328526E-013  0.5052885E+02  0.7816164E-02  0.1300439E+00
        -11   -1    0    0    0    0  0.00000000000E+00  0.00000000000E+00  0.45593999997E+02  0.45594000000E+02  0.51100000000E-03 0. -1.
         11   -1    0    0    0    0 -0.00000000000E+00 -0.00000000000E+00 -0.45593999997E+02  0.45594000000E+02  0.51100000000E-03 0.  1.
    9900012    2    1    2    0    0 -0.95306175138E+01  0.38295617478E+02 -0.97867071101E+01  0.50528848210E+02  0.29999964620E+02 0.  0.
         12    1    1    2    0    0  0.95306175138E+01 -0.38295617478E+02  0.97867071101E+01  0.40659151790E+02  0.00000000000E+00 0. -1.
         11    1    3    3    0    0  0.23657730333E+01 -0.21884103589E+01  0.10893547910E+01  0.34018694957E+01  0.51100000000E-03 0. -1.
        -11    1    3    3    0    0 -0.44403212307E+01  0.29176667311E+02 -0.14813766196E+02  0.33021841819E+02  0.51100000000E-03 0.  1.
        -12    1    3    3    0    0 -0.74560693164E+01  0.11307360526E+02  0.39377042945E+01  0.14105136895E+02  0.00000000000E+00 0.  1.
</event>
<event>
 7    1  0.5748623E-013  0.5052886E+02  0.7816164E-02  0.1300439E+00
        -11   -1    0    0    0    0  0.00000000000E+00  0.00000000000E+00  0.45593999997E+02  0.45594000000E+02  0.51100000000E-03 0.  1.
         11   -1    0    0    0    0 -0.00000000000E+00 -0.00000000000E+00 -0.45593999997E+02  0.45594000000E+02  0.51100000000E-03 0. -1.
    9900012    2    1    2    0    0 -0.19805313213E+02 -0.34933703712E+02 -0.63680012914E+01  0.50528861704E+02  0.30000005636E+02 0.  0.
         12    1    1    2    0    0  0.19805313213E+02  0.34933703712E+02  0.63680012914E+01  0.40659138296E+02  0.00000000000E+00 0. -1.
         11    1    3    3    0    0 -0.16748479976E+01  0.25953920488E+01 -0.17506149685E+01  0.35504688045E+01  0.51100000000E-03 0. -1.
        -11    1    3    3    0    0 -0.21880208157E+02 -0.32816340917E+02 -0.77406409028E+01  0.40194194382E+02  0.51100000000E-03 0.  1.
        -12    1    3    3    0    0  0.37497429424E+01 -0.47127548442E+01  0.31232545798E+01  0.67841985176E+01  0.00000000000E+00 0.  1.
</event>
<event>
 7    1  0.5748623E-013  0.5052886E+02  0.7816164E-02  0.1300439E+00
        -11   -1    0    0    0    0  0.00000000000E+00  0.00000000000E+00  0.45593999997E+02  0.45594000000E+02  0.51100000000E-03 0.  1.
         11   -1    0    0    0    0 -0.00000000000E+00 -0.00000000000E+00 -0.45593999997E+02  0.45594000000E+02  0.51100000000E-03 0. -1.
    9900012    2    1    2    0    0 -0.19096594722E+02 -0.96794815467E+00  0.35882431555E+02  0.50528858987E+02  0.29999997377E+02 0.  0.
         12    1    1    2    0    0  0.19096594722E+02  0.96794815467E+00 -0.35882431555E+02  0.40659141013E+02  0.00000000000E+00 0. -1.
         11    1    3    3    0    0 -0.89932438720E+00 -0.76888372882E+01 -0.17306671533E+01  0.79323522523E+01  0.51100000000E-03 0. -1.
        -11    1    3    3    0    0 -0.89770979476E+01  0.31827227821E+01  0.13339812732E+02  0.16391113930E+02  0.51100000000E-03 0.  1.
         12    1    3    3    0    0 -0.92201723868E+01  0.35381663514E+01  0.24273285977E+02  0.26205392805E+02  0.00000000000E+00 0. -1.
</event>
<event>
 7    1  0.5748623E-013  0.5052887E+02  0.7816164E-02  0.1300439E+00
        -11   -1    0    0    0    0  0.00000000000E+00  0.00000000000E+00  0.45593999997E+02  0.45594000000E+02  0.51100000000E-03 0.  1.
         11   -1    0    0    0    0 -0.00000000000E+00 -0.00000000000E+00 -0.45593999997E+02  0.45594000000E+02  0.51100000000E-03 0. -1.
    9900012    2    1    2    0    0 -0.25203157333E+01  0.26394774276E+02  0.30824160510E+02  0.50528868533E+02  0.30000026394E+02 0.  0.
         12    1    1    2    0    0  0.25203157333E+01 -0.26394774276E+02 -0.30824160510E+02  0.40659131467E+02  0.00000000000E+00 0. -1.
         11    1    3    3    0    0  0.49039367894E+01  0.22571406584E+02  0.17534997677E+02  0.28999881638E+02  0.51100000000E-03 0.  1.
        -11    1    3    3    0    0 -0.11813533442E+02  0.28340214545E+01  0.78247254354E+01  0.14450521734E+02  0.51100000000E-03 0. -1.
        -12    1    3    3    0    0  0.43892809192E+01  0.98934623738E+00  0.54644373980E+01  0.70784651615E+01  0.00000000000E+00 0.  1.
</event>
<event>
 7    1  0.5748623E-013  0.5052886E+02  0.7816164E-02  0.1300439E+00
        -11   -1    0    0    0    0  0.00000000000E+00  0.00000000000E+00  0.45593999997E+02  0.45594000000E+02  0.51100000000E-03 0.  1.
         11   -1    0    0    0    0 -0.00000000000E+00 -0.00000000000E+00 -0.45593999997E+02  0.45594000000E+02  0.51100000000E-03 0. -1.
    9900012    2    1    2    0    0 -0.74976016998E+01  0.39958355517E+02  0.53080286123E+00  0.50528856396E+02  0.29999989503E+02 0.  0.
         12    1    1    2    0    0  0.74976016998E+01 -0.39958355517E+02 -0.53080286123E+00  0.40659143604E+02  0.00000000000E+00 0. -1.
         11    1    3    3    0    0 -0.92496629535E+01  0.15451925642E+02  0.65567032045E+01  0.19165297492E+02  0.51100000000E-03 0. -1.
        -11    1    3    3    0    0 -0.90752827370E+00  0.21598386546E+02 -0.11603077422E+02  0.24534573868E+02  0.51100000000E-03 0.  1.
        -12    1    3    3    0    0  0.26595895274E+01  0.29080433299E+01  0.55771770787E+01  0.68289850366E+01  0.00000000000E+00 0.  1.
</event>
<event>
 7    1  0.5748623E-013  0.5052886E+02  0.7816164E-02  0.1300439E+00
        -11   -1    0    0    0    0  0.00000000000E+00  0.00000000000E+00  0.45593999997E+02  0.45594000000E+02  0.51100000000E-03 0. -1.
         11   -1    0    0    0    0 -0.00000000000E+00 -0.00000000000E+00 -0.45593999997E+02  0.45594000000E+02  0.51100000000E-03 0.  1.
    9900012    2    1    2    0    0  0.46834363184E+01  0.20909981120E+02 -0.34554354762E+02  0.50528864259E+02  0.30000013401E+02 0.  0.
         12    1    1    2    0    0 -0.46834363184E+01 -0.20909981120E+02  0.34554354762E+02  0.40659135741E+02  0.00000000000E+00 0. -1.
         11    1    3    3    0    0 -0.71319129848E+01  0.16408236399E+02 -0.14749312137E+02  0.23186992330E+02  0.51100000000E-03 0. -1.
        -11    1    3    3    0    0  0.12643872403E+02  0.19718965398E+01 -0.76721700665E+01  0.14920391386E+02  0.51100000000E-03 0.  1.
        -12    1    3    3    0    0 -0.82852310019E+00  0.25298481814E+01 -0.12132872558E+02  0.12421480542E+02  0.00000000000E+00 0.  1.
</event>
<event>
 7    1  0.5748623E-013  0.5052877E+02  0.7816164E-02  0.1300439E+00
        -11   -1    0    0    0    0  0.00000000000E+00  0.00000000000E+00  0.45593999997E+02  0.45594000000E+02  0.51100000000E-03 0.  1.
         11   -1    0    0    0    0 -0.00000000000E+00 -0.00000000000E+00 -0.45593999997E+02  0.45594000000E+02  0.51100000000E-03 0. -1.
    9900012    2    1    2    0    0  0.12616932421E+02 -0.23922166066E+02  0.30359769717E+02  0.50528774352E+02  0.29999740120E+02 0.  0.
         12    1    1    2    0    0 -0.12616932421E+02  0.23922166066E+02 -0.30359769717E+02  0.40659225648E+02  0.00000000000E+00 0. -1.
         11    1    3    3    0    0  0.13998994168E+02 -0.22979804098E+02  0.13791567220E+02  0.30236576538E+02  0.51100000000E-03 0. -1.
        -11    1    3    3    0    0 -0.79102373115E+00 -0.47451372023E+01  0.19752991320E+01  0.52003704228E+01  0.51100000000E-03 0.  1.
         12    1    3    3    0    0 -0.59103801536E+00  0.38027752341E+01  0.14592903364E+02  0.15091827392E+02  0.00000000000E+00 0. -1.
</event>
<event>
 7    1  0.5748623E-013  0.5052885E+02  0.7816164E-02  0.1300439E+00
        -11   -1    0    0    0    0  0.00000000000E+00  0.00000000000E+00  0.45593999997E+02  0.45594000000E+02  0.51100000000E-03 0.  1.
         11   -1    0    0    0    0 -0.00000000000E+00 -0.00000000000E+00 -0.45593999997E+02  0.45594000000E+02  0.51100000000E-03 0. -1.
    9900012    2    1    2    0    0  0.20546107664E+02 -0.43137883509E+01  0.34819749614E+02  0.50528852527E+02  0.29999977741E+02 0.  0.
         12    1    1    2    0    0 -0.20546107664E+02  0.43137883509E+01 -0.34819749614E+02  0.40659147473E+02  0.00000000000E+00 0. -1.
         11    1    3    3    0    0 -0.65909604118E+01  0.60128632406E+00  0.18850439867E+01  0.68815474630E+01  0.51100000000E-03 0. -1.
        -11    1    3    3    0    0  0.56091705496E+01 -0.39482748667E+01  0.10477625971E+02  0.12523270936E+02  0.51100000000E-03 0.  1.
         12    1    3    3    0    0  0.21527897526E+02 -0.96679980829E+00  0.22457079656E+02  0.31124034128E+02  0.00000000000E+00 0. -1.
</event>
<event>
 7    1  0.5748623E-013  0.5052886E+02  0.7816164E-02  0.1300439E+00
        -11   -1    0    0    0    0  0.00000000000E+00  0.00000000000E+00  0.45593999997E+02  0.45594000000E+02  0.51100000000E-03 0.  1.
         11   -1    0    0    0    0 -0.00000000000E+00 -0.00000000000E+00 -0.45593999997E+02  0.45594000000E+02  0.51100000000E-03 0. -1.
    9900012    2    1    2    0    0  0.39251089642E+01 -0.40360594088E+02  0.29633974584E+01  0.50528858838E+02  0.29999996925E+02 0.  0.
         12    1    1    2    0    0 -0.39251089642E+01  0.40360594088E+02 -0.29633974584E+01  0.40659141162E+02  0.00000000000E+00 0. -1.
         11    1    3    3    0    0  0.65184431388E+01 -0.25285409942E+02 -0.63550466757E+01  0.26874312557E+02  0.51100000000E-03 0. -1.
        -11    1    3    3    0    0  0.17326307267E+01 -0.15516789452E+02  0.10884452004E+02  0.19032710259E+02  0.51100000000E-03 0.  1.
         12    1    3    3    0    0 -0.43259649013E+01  0.44160530565E+00 -0.15660078696E+01  0.46218360227E+01  0.00000000000E+00 0. -1.
</event>
<event>
 7    1  0.5748623E-013  0.5052886E+02  0.7816164E-02  0.1300439E+00
        -11   -1    0    0    0    0  0.00000000000E+00  0.00000000000E+00  0.45593999997E+02  0.45594000000E+02  0.51100000000E-03 0. -1.
         11   -1    0    0    0    0 -0.00000000000E+00 -0.00000000000E+00 -0.45593999997E+02  0.45594000000E+02  0.51100000000E-03 0.  1.
    9900012    2    1    2    0    0 -0.39268486801E+02 -0.75656952703E+01 -0.73424800054E+01  0.50528858184E+02  0.29999994937E+02 0.  0.
         12    1    1    2    0    0  0.39268486801E+02  0.75656952703E+01  0.73424800054E+01  0.40659141816E+02  0.00000000000E+00 0. -1.
         11    1    3    3    0    0 -0.58848458511E+01  0.44928945682E+00  0.54827364375E+01  0.80556607930E+01  0.51100000000E-03 0. -1.
        -11    1    3    3    0    0 -0.29818009729E+02  0.19029459115E+01 -0.83539585094E+01  0.31024563339E+02  0.51100000000E-03 0.  1.
        -12    1    3    3    0    0 -0.35656312209E+01 -0.99179306387E+01 -0.44712579335E+01  0.11448634052E+02  0.00000000000E+00 0.  1.
</event>
<event>
 7    1  0.5748623E-013  0.5052886E+02  0.7816164E-02  0.1300439E+00
        -11   -1    0    0    0    0  0.00000000000E+00  0.00000000000E+00  0.45593999997E+02  0.45594000000E+02  0.51100000000E-03 0.  1.
         11   -1    0    0    0    0 -0.00000000000E+00 -0.00000000000E+00 -0.45593999997E+02  0.45594000000E+02  0.51100000000E-03 0. -1.
    9900012    2    1    2    0    0  0.15308082541E+02  0.36220062067E+02  0.10340970332E+02  0.50528856445E+02  0.29999989651E+02 0.  0.
         12    1    1    2    0    0 -0.15308082541E+02 -0.36220062067E+02 -0.10340970332E+02  0.40659143555E+02  0.00000000000E+00 0. -1.
         11    1    3    3    0    0  0.65837714463E+01  0.30335177858E+02 -0.29460611991E+01  0.31180897020E+02  0.51100000000E-03 0.  1.
        -11    1    3    3    0    0  0.68897686953E+01  0.78898153200E+01  0.12877569548E+02  0.16599695666E+02  0.51100000000E-03 0. -1.
        -12    1    3    3    0    0  0.18345423994E+01 -0.20049311113E+01  0.40946198307E+00  0.27482637595E+01  0.00000000000E+00 0.  1.
</event>
<event>
 7    1  0.5748623E-013  0.5052894E+02  0.7816164E-02  0.1300439E+00
        -11   -1    0    0    0    0  0.00000000000E+00  0.00000000000E+00  0.45593999997E+02  0.45594000000E+02  0.51100000000E-03 0. -1.
         11   -1    0    0    0    0 -0.00000000000E+00 -0.00000000000E+00 -0.45593999997E+02  0.45594000000E+02  0.51100000000E-03 0.  1.
    9900012    2    1    2    0    0  0.16902160824E+02 -0.22879851442E+02 -0.29051478607E+02  0.50528941332E+02  0.30000247670E+02 0.  0.
         12    1    1    2    0    0 -0.16902160824E+02  0.22879851442E+02  0.29051478607E+02  0.40659058668E+02  0.00000000000E+00 0. -1.
         11    1    3    3    0    0 -0.45536739477E+01 -0.67800080651E+01 -0.90936819098E+01  0.12222909094E+02  0.51100000000E-03 0. -1.
        -11    1    3    3    0    0  0.24524291508E+02 -0.11438335372E+02 -0.17359037989E+02  0.32149845882E+02  0.51100000000E-03 0.  1.
        -12    1    3    3    0    0 -0.30684567360E+01 -0.46615080050E+01 -0.25987587078E+01  0.61561863554E+01  0.00000000000E+00 0.  1.
</event>
<event>
 7    1  0.5748623E-013  0.5052885E+02  0.7816164E-02  0.1300439E+00
        -11   -1    0    0    0    0  0.00000000000E+00  0.00000000000E+00  0.45593999997E+02  0.45594000000E+02  0.51100000000E-03 0.  1.
         11   -1    0    0    0    0 -0.00000000000E+00 -0.00000000000E+00 -0.45593999997E+02  0.45594000000E+02  0.51100000000E-03 0. -1.
    9900012    2    1    2    0    0 -0.11410623337E+01  0.32005770858E+02  0.25049855668E+02  0.50528847765E+02  0.29999963267E+02 0.  0.
         12    1    1    2    0    0  0.11410623337E+01 -0.32005770858E+02 -0.25049855668E+02  0.40659152235E+02  0.00000000000E+00 0. -1.
         11    1    3    3    0    0 -0.93202747304E+01  0.52691654459E+01 -0.47508739894E+00  0.10717151387E+02  0.51100000000E-03 0. -1.
        -11    1    3    3    0    0  0.64989754313E+01  0.24111614367E+02  0.15683718593E+02  0.29488737820E+02  0.51100000000E-03 0.  1.
         12    1    3    3    0    0  0.16802369653E+01  0.26249910448E+01  0.98412244743E+01  0.10322958558E+02  0.00000000000E+00 0. -1.
</event>
<event>
 7    1  0.5748623E-013  0.5052886E+02  0.7816164E-02  0.1300439E+00
        -11   -1    0    0    0    0  0.00000000000E+00  0.00000000000E+00  0.45593999997E+02  0.45594000000E+02  0.51100000000E-03 0. -1.
         11   -1    0    0    0    0 -0.00000000000E+00 -0.00000000000E+00 -0.45593999997E+02  0.45594000000E+02  0.51100000000E-03 0.  1.
    9900012    2    1    2    0    0  0.34841690876E+02  0.13975150994E+02 -0.15617866039E+02  0.50528855788E+02  0.29999987654E+02 0.  0.
         12    1    1    2    0    0 -0.34841690876E+02 -0.13975150994E+02  0.15617866039E+02  0.40659144212E+02  0.00000000000E+00 0. -1.
         11    1    3    3    0    0  0.60469713857E+01  0.42197400521E+01  0.55624045737E+01  0.92364719427E+01  0.51100000000E-03 0. -1.
        -11    1    3    3    0    0  0.25696929152E+02  0.14626410176E+02 -0.18860509279E+02  0.35071111374E+02  0.51100000000E-03 0.  1.
        -12    1    3    3    0    0  0.30977903381E+01 -0.48709992342E+01 -0.23197613335E+01  0.62212724713E+01  0.00000000000E+00 0.  1.
</event>
<event>
 7    1  0.5748623E-013  0.5052886E+02  0.7816164E-02  0.1300439E+00
        -11   -1    0    0    0    0  0.00000000000E+00  0.00000000000E+00  0.45593999997E+02  0.45594000000E+02  0.51100000000E-03 0. -1.
         11   -1    0    0    0    0 -0.00000000000E+00 -0.00000000000E+00 -0.45593999997E+02  0.45594000000E+02  0.51100000000E-03 0.  1.
    9900012    2    1    2    0    0  0.14395379965E+02  0.24307055460E+02 -0.29242195683E+02  0.50528856897E+02  0.29999991024E+02 0.  0.
         12    1    1    2    0    0 -0.14395379965E+02 -0.24307055460E+02  0.29242195683E+02  0.40659143103E+02  0.00000000000E+00 0. -1.
         11    1    3    3    0    0 -0.65604715382E+00  0.86619965882E+01  0.13659299353E+01  0.87935401068E+01  0.51100000000E-03 0. -1.
        -11    1    3    3    0    0  0.12671538526E+02  0.19815752788E+02 -0.26308011896E+02  0.35289423874E+02  0.51100000000E-03 0.  1.
        -12    1    3    3    0    0  0.23798885933E+01 -0.41706939163E+01 -0.43001137230E+01  0.64458929165E+01  0.00000000000E+00 0.  1.
</event>
<event>
 7    1  0.5748623E-013  0.5052887E+02  0.7816164E-02  0.1300439E+00
        -11   -1    0    0    0    0  0.00000000000E+00  0.00000000000E+00  0.45593999997E+02  0.45594000000E+02  0.51100000000E-03 0.  1.
         11   -1    0    0    0    0 -0.00000000000E+00 -0.00000000000E+00 -0.45593999997E+02  0.45594000000E+02  0.51100000000E-03 0. -1.
    9900012    2    1    2    0    0 -0.24905278367E+02 -0.31760481468E+02 -0.49156918174E+01  0.50528866958E+02  0.30000021607E+02 0.  0.
         12    1    1    2    0    0  0.24905278367E+02  0.31760481468E+02  0.49156918174E+01  0.40659133042E+02  0.00000000000E+00 0. -1.
         11    1    3    3    0    0 -0.37514243865E+00 -0.75153350855E+01  0.66964880897E+01  0.10072931365E+02  0.51100000000E-03 0. -1.
        -11    1    3    3    0    0 -0.26111740120E+02 -0.22329909418E+02 -0.13915281268E+02  0.37068623926E+02  0.51100000000E-03 0.  1.
        -12    1    3    3    0    0  0.15816041914E+01 -0.19152369644E+01  0.23031013611E+01  0.33873116668E+01  0.00000000000E+00 0.  1.
</event>
<event>
 7    1  0.5748623E-013  0.5052889E+02  0.7816164E-02  0.1300439E+00
        -11   -1    0    0    0    0  0.00000000000E+00  0.00000000000E+00  0.45593999997E+02  0.45594000000E+02  0.51100000000E-03 0. -1.
         11   -1    0    0    0    0 -0.00000000000E+00 -0.00000000000E+00 -0.45593999997E+02  0.45594000000E+02  0.51100000000E-03 0.  1.
    9900012    2    1    2    0    0  0.66329763600E+01  0.22804026197E+02 -0.33002170195E+02  0.50528890028E+02  0.30000091728E+02 0.  0.
         12    1    1    2    0    0 -0.66329763600E+01 -0.22804026197E+02  0.33002170195E+02  0.40659109972E+02  0.00000000000E+00 0. -1.
         11    1    3    3    0    0 -0.59731943528E+01  0.16209035702E+02 -0.59316034718E+01  0.18264605366E+02  0.51100000000E-03 0. -1.
        -11    1    3    3    0    0  0.16693832539E+01  0.47595855253E+01 -0.15220624514E+02  0.16034584674E+02  0.51100000000E-03 0.  1.
         12    1    3    3    0    0  0.10936787459E+02  0.18354049698E+01 -0.11849942209E+02  0.16229699988E+02  0.00000000000E+00 0. -1.
</event>
<event>
 7    1  0.5748623E-013  0.5052885E+02  0.7816164E-02  0.1300439E+00
        -11   -1    0    0    0    0  0.00000000000E+00  0.00000000000E+00  0.45593999997E+02  0.45594000000E+02  0.51100000000E-03 0. -1.
         11   -1    0    0    0    0 -0.00000000000E+00 -0.00000000000E+00 -0.45593999997E+02  0.45594000000E+02  0.51100000000E-03 0.  1.
    9900012    2    1    2    0    0 -0.20581182349E+02 -0.72057190042E+01 -0.34317038865E+02  0.50528848389E+02  0.29999965164E+02 0.  0.
         12    1    1    2    0    0  0.20581182349E+02  0.72057190042E+01  0.34317038865E+02  0.40659151611E+02  0.00000000000E+00 0. -1.
         11    1    3    3    0    0 -0.90134957063E+01  0.84334447476E+01 -0.23751824327E+02  0.26767802568E+02  0.51100000000E-03 0. -1.
        -11    1    3    3    0    0 -0.28406519927E+01 -0.72120201710E+01 -0.84138476732E+01  0.11440077431E+02  0.51100000000E-03 0.  1.
         12    1    3    3    0    0 -0.87270346495E+01 -0.84271435808E+01 -0.21513668646E+01  0.12320968391E+02  0.00000000000E+00 0. -1.
</event>
<event>
 7    1  0.5748623E-013  0.5052885E+02  0.7816164E-02  0.1300439E+00
        -11   -1    0    0    0    0  0.00000000000E+00  0.00000000000E+00  0.45593999997E+02  0.45594000000E+02  0.51100000000E-03 0. -1.
         11   -1    0    0    0    0 -0.00000000000E+00 -0.00000000000E+00 -0.45593999997E+02  0.45594000000E+02  0.51100000000E-03 0.  1.
    9900012    2    1    2    0    0 -0.26666902088E+02 -0.17103441261E+02 -0.25485579605E+02  0.50528854193E+02  0.29999982805E+02 0.  0.
         12    1    1    2    0    0  0.26666902088E+02  0.17103441261E+02  0.25485579605E+02  0.40659145807E+02  0.00000000000E+00 0. -1.
         11    1    3    3    0    0  0.45774770895E+01 -0.57425244826E+01  0.14527634591E+01  0.74860140173E+01  0.51100000000E-03 0. -1.
        -11    1    3    3    0    0 -0.13148879415E+02 -0.33915446493E+01 -0.13413175413E+02  0.19086877165E+02  0.51100000000E-03 0.  1.
         12    1    3    3    0    0 -0.18095499762E+02 -0.79693721294E+01 -0.13525167651E+02  0.23955963011E+02  0.00000000000E+00 0. -1.
</event>
<event>
 7    1  0.5748623E-013  0.5052888E+02  0.7816164E-02  0.1300439E+00
        -11   -1    0    0    0    0  0.00000000000E+00  0.00000000000E+00  0.45593999997E+02  0.45594000000E+02  0.51100000000E-03 0.  1.
         11   -1    0    0    0    0 -0.00000000000E+00 -0.00000000000E+00 -0.45593999997E+02  0.45594000000E+02  0.51100000000E-03 0. -1.
    9900012    2    1    2    0    0 -0.17836082237E+01  0.15847975289E+02  0.37400866544E+02  0.50528875596E+02  0.30000047861E+02 0.  0.
         12    1    1    2    0    0  0.17836082237E+01 -0.15847975289E+02 -0.37400866544E+02  0.40659124404E+02  0.00000000000E+00 0. -1.
         11    1    3    3    0    0  0.11716642224E+02 -0.27562733476E+00  0.12937543715E+02  0.17456681044E+02  0.51100000000E-03 0. -1.
        -11    1    3    3    0    0 -0.85132209927E+01  0.13262258187E+02  0.21341833060E+02  0.26529912599E+02  0.51100000000E-03 0.  1.
         12    1    3    3    0    0 -0.49870294551E+01  0.28613444364E+01  0.31214897692E+01  0.65422819528E+01  0.00000000000E+00 0. -1.
</event>
<event>
 7    1  0.5748623E-013  0.5052885E+02  0.7816164E-02  0.1300439E+00
        -11   -1    0    0    0    0  0.00000000000E+00  0.00000000000E+00  0.45593999997E+02  0.45594000000E+02  0.51100000000E-03 0.  1.
         11   -1    0    0    0    0 -0.00000000000E+00 -0.00000000000E+00 -0.45593999997E+02  0.45594000000E+02  0.51100000000E-03 0. -1.
    9900012    2    1    2    0    0 -0.90585166863E+01  0.39567379449E+02  0.23520832950E+01  0.50528849285E+02  0.29999967887E+02 0.  0.
         12    1    1    2    0    0  0.90585166863E+01 -0.39567379449E+02 -0.23520832950E+01  0.40659150715E+02  0.00000000000E+00 0. -1.
         11    1    3    3    0    0 -0.56695091531E+01 -0.17682960021E+01 -0.52153004726E+01  0.79037689788E+01  0.51100000000E-03 0. -1.
        -11    1    3    3    0    0 -0.52250102283E+01  0.33046120052E+02  0.61468865481E+01  0.34016628241E+02  0.51100000000E-03 0.  1.
         12    1    3    3    0    0  0.18360026952E+01  0.82895553988E+01  0.14204972196E+01  0.86084520651E+01  0.00000000000E+00 0. -1.
</event>
<event>
 7    1  0.5748623E-013  0.5052886E+02  0.7816164E-02  0.1300439E+00
        -11   -1    0    0    0    0  0.00000000000E+00  0.00000000000E+00  0.45593999997E+02  0.45594000000E+02  0.51100000000E-03 0.  1.
         11   -1    0    0    0    0 -0.00000000000E+00 -0.00000000000E+00 -0.45593999997E+02  0.45594000000E+02  0.51100000000E-03 0. -1.
    9900012    2    1    2    0    0 -0.39207848084E+02  0.66661476845E+01  0.84541541553E+01  0.50528860821E+02  0.30000002951E+02 0.  0.
         12    1    1    2    0    0  0.39207848084E+02 -0.66661476845E+01 -0.84541541553E+01  0.40659139179E+02  0.00000000000E+00 0. -1.
         11    1    3    3    0    0 -0.26446842349E+02  0.66306417257E+01  0.17630206583E+02  0.32468832199E+02  0.51100000000E-03 0. -1.
        -11    1    3    3    0    0 -0.99545554683E+01 -0.38261820727E+01 -0.73351166475E+01  0.12943599975E+02  0.51100000000E-03 0.  1.
         12    1    3    3    0    0 -0.28064502664E+01  0.38616880315E+01 -0.18409357802E+01  0.51164286468E+01  0.00000000000E+00 0. -1.
</event>
<event>
 7    1  0.5748623E-013  0.5052883E+02  0.7816164E-02  0.1300439E+00
        -11   -1    0    0    0    0  0.00000000000E+00  0.00000000000E+00  0.45593999997E+02  0.45594000000E+02  0.51100000000E-03 0. -1.
         11   -1    0    0    0    0 -0.00000000000E+00 -0.00000000000E+00 -0.45593999997E+02  0.45594000000E+02  0.51100000000E-03 0.  1.
    9900012    2    1    2    0    0 -0.40614777486E+02  0.18993841529E+01  0.45366955249E-02  0.50528833371E+02  0.29999919513E+02 0.  0.
         12    1    1    2    0    0  0.40614777486E+02 -0.18993841529E+01 -0.45366955249E-02  0.40659166629E+02  0.00000000000E+00 0. -1.
         11    1    3    3    0    0 -0.57640224474E+01 -0.99476020409E+01  0.42690849119E+01  0.12263923817E+02  0.51100000000E-03 0. -1.
        -11    1    3    3    0    0 -0.23346911683E+02  0.12330895744E+02 -0.16308827124E+01  0.26453526299E+02  0.51100000000E-03 0.  1.
         12    1    3    3    0    0 -0.11503843355E+02 -0.48390954976E+00 -0.26336655040E+01  0.11811383255E+02  0.00000000000E+00 0. -1.
</event>
<event>
 7    1  0.5748623E-013  0.5052885E+02  0.7816164E-02  0.1300439E+00
        -11   -1    0    0    0    0  0.00000000000E+00  0.00000000000E+00  0.45593999997E+02  0.45594000000E+02  0.51100000000E-03 0.  1.
         11   -1    0    0    0    0 -0.00000000000E+00 -0.00000000000E+00 -0.45593999997E+02  0.45594000000E+02  0.51100000000E-03 0. -1.
    9900012    2    1    2    0    0 -0.12995877650E+02 -0.28779993150E+02  0.25612210682E+02  0.50528853702E+02  0.29999981314E+02 0.  0.
         12    1    1    2    0    0  0.12995877650E+02  0.28779993150E+02 -0.25612210682E+02  0.40659146298E+02  0.00000000000E+00 0. -1.
         11    1    3    3    0    0 -0.13862092126E+02 -0.15008419958E+02  0.75356458418E+01  0.21776047076E+02  0.51100000000E-03 0. -1.
        -11    1    3    3    0    0 -0.73322144342E+00 -0.43181113140E+01  0.18640758388E+02  0.19148409139E+02  0.51100000000E-03 0.  1.
         12    1    3    3    0    0  0.15994359195E+01 -0.94534618786E+01 -0.56419354720E+00  0.96043974881E+01  0.00000000000E+00 0. -1.
</event>
<event>
 7    1  0.5748623E-013  0.5052885E+02  0.7816164E-02  0.1300439E+00
        -11   -1    0    0    0    0  0.00000000000E+00  0.00000000000E+00  0.45593999997E+02  0.45594000000E+02  0.51100000000E-03 0. -1.
         11   -1    0    0    0    0 -0.00000000000E+00 -0.00000000000E+00 -0.45593999997E+02  0.45594000000E+02  0.51100000000E-03 0.  1.
    9900012    2    1    2    0    0 -0.20437519439E+02  0.33730147408E+02 -0.98869228301E+01  0.50528852344E+02  0.29999977186E+02 0.  0.
         12    1    1    2    0    0  0.20437519439E+02 -0.33730147408E+02  0.98869228301E+01  0.40659147656E+02  0.00000000000E+00 0. -1.
         11    1    3    3    0    0 -0.17666129858E+01  0.14971803991E+02 -0.10570365676E+02  0.18412182569E+02  0.51100000000E-03 0. -1.
        -11    1    3    3    0    0 -0.19669368514E+02  0.16128513026E+02  0.59705847721E+01  0.26127779717E+02  0.51100000000E-03 0.  1.
        -12    1    3    3    0    0  0.99846206056E+00  0.26298303913E+01 -0.52871419266E+01  0.59888900578E+01  0.00000000000E+00 0.  1.
</event>
<event>
 7    1  0.5748623E-013  0.5052887E+02  0.7816164E-02  0.1300439E+00
        -11   -1    0    0    0    0  0.00000000000E+00  0.00000000000E+00  0.45593999997E+02  0.45594000000E+02  0.51100000000E-03 0. -1.
         11   -1    0    0    0    0 -0.00000000000E+00 -0.00000000000E+00 -0.45593999997E+02  0.45594000000E+02  0.51100000000E-03 0.  1.
    9900012    2    1    2    0    0  0.23414170516E+02 -0.13963769925E+02 -0.30165457400E+02  0.50528867303E+02  0.30000022656E+02 0.  0.
         12    1    1    2    0    0 -0.23414170516E+02  0.13963769925E+02  0.30165457400E+02  0.40659132697E+02  0.00000000000E+00 0. -1.
         11    1    3    3    0    0 -0.11572682502E+01 -0.52924453817E+01  0.35446826373E+01  0.64741040447E+01  0.51100000000E-03 0. -1.
        -11    1    3    3    0    0  0.10868096167E+02 -0.18404288527E+01 -0.22575132237E+02  0.25122485714E+02  0.51100000000E-03 0.  1.
         12    1    3    3    0    0  0.13703342599E+02 -0.68308956907E+01 -0.11135007801E+02  0.18932277545E+02  0.00000000000E+00 0. -1.
</event>
<event>
 7    1  0.5748623E-013  0.5052886E+02  0.7816164E-02  0.1300439E+00
        -11   -1    0    0    0    0  0.00000000000E+00  0.00000000000E+00  0.45593999997E+02  0.45594000000E+02  0.51100000000E-03 0. -1.
         11   -1    0    0    0    0 -0.00000000000E+00 -0.00000000000E+00 -0.45593999997E+02  0.45594000000E+02  0.51100000000E-03 0.  1.
    9900012    2    1    2    0    0 -0.17227325371E+02  0.10704745175E+02 -0.35239087306E+02  0.50528861017E+02  0.30000003547E+02 0.  0.
         12    1    1    2    0    0  0.17227325371E+02 -0.10704745175E+02  0.35239087306E+02  0.40659138983E+02  0.00000000000E+00 0. -1.
         11    1    3    3    0    0 -0.24353868824E+02  0.69467753642E+01 -0.17035003181E+02  0.30521467008E+02  0.51100000000E-03 0. -1.
        -11    1    3    3    0    0  0.20192530594E+01  0.21391601704E+01 -0.66451871681E+01  0.72671797771E+01  0.51100000000E-03 0.  1.
         12    1    3    3    0    0  0.51072903938E+01  0.16188096407E+01 -0.11558896956E+02  0.12740214232E+02  0.00000000000E+00 0. -1.
</event>
<event>
 7    1  0.5748623E-013  0.5052886E+02  0.7816164E-02  0.1300439E+00
        -11   -1    0    0    0    0  0.00000000000E+00  0.00000000000E+00  0.45593999997E+02  0.45594000000E+02  0.51100000000E-03 0. -1.
         11   -1    0    0    0    0 -0.00000000000E+00 -0.00000000000E+00 -0.45593999997E+02  0.45594000000E+02  0.51100000000E-03 0.  1.
    9900012    2    1    2    0    0  0.34580421598E+02  0.12646815077E+02 -0.17245810704E+02  0.50528862327E+02  0.30000007529E+02 0.  0.
         12    1    1    2    0    0 -0.34580421598E+02 -0.12646815077E+02  0.17245810704E+02  0.40659137673E+02  0.00000000000E+00 0. -1.
         11    1    3    3    0    0  0.21291351228E+02  0.82847646161E+01  0.30219271938E+01  0.23045411823E+02  0.51100000000E-03 0. -1.
        -11    1    3    3    0    0  0.12565567867E+02 -0.92771610561E+00 -0.10714322494E+02  0.16539373016E+02  0.51100000000E-03 0.  1.
         12    1    3    3    0    0  0.72350250353E+00  0.52897665661E+01 -0.95534154034E+01  0.10944077488E+02  0.00000000000E+00 0. -1.
</event>
<event>
 7    1  0.5748623E-013  0.5052886E+02  0.7816164E-02  0.1300439E+00
        -11   -1    0    0    0    0  0.00000000000E+00  0.00000000000E+00  0.45593999997E+02  0.45594000000E+02  0.51100000000E-03 0.  1.
         11   -1    0    0    0    0 -0.00000000000E+00 -0.00000000000E+00 -0.45593999997E+02  0.45594000000E+02  0.51100000000E-03 0. -1.
    9900012    2    1    2    0    0  0.22119145833E+01  0.94067328975E+01  0.39494135772E+02  0.50528856498E+02  0.29999989811E+02 0.  0.
         12    1    1    2    0    0 -0.22119145833E+01 -0.94067328975E+01 -0.39494135772E+02  0.40659143502E+02  0.00000000000E+00 0. -1.
         11    1    3    3    0    0  0.11117897805E+02 -0.28992527891E+01  0.97155138154E+01  0.15046744741E+02  0.51100000000E-03 0. -1.
        -11    1    3    3    0    0 -0.14472835098E+01  0.57901941449E+01  0.22263762708E+02  0.23049861344E+02  0.51100000000E-03 0.  1.
         12    1    3    3    0    0 -0.74586997116E+01  0.65157915418E+01  0.75148592487E+01  0.12432250413E+02  0.00000000000E+00 0. -1.
</event>
<event>
 7    1  0.5748623E-013  0.5052883E+02  0.7816164E-02  0.1300439E+00
        -11   -1    0    0    0    0  0.00000000000E+00  0.00000000000E+00  0.45593999997E+02  0.45594000000E+02  0.51100000000E-03 0.  1.
         11   -1    0    0    0    0 -0.00000000000E+00 -0.00000000000E+00 -0.45593999997E+02  0.45594000000E+02  0.51100000000E-03 0. -1.
    9900012    2    1    2    0    0  0.87568302389E+01  0.51541893357E+01  0.39369022859E+02  0.50528834928E+02  0.29999924246E+02 0.  0.
         12    1    1    2    0    0 -0.87568302389E+01 -0.51541893357E+01 -0.39369022859E+02  0.40659165072E+02  0.00000000000E+00 0. -1.
         11    1    3    3    0    0  0.14746790984E+01 -0.41308046211E+01  0.28556938112E+02  0.28891814409E+02  0.51100000000E-03 0. -1.
        -11    1    3    3    0    0  0.10187126628E+02  0.14779875885E+01  0.47626369002E+01  0.11342164994E+02  0.51100000000E-03 0.  1.
         12    1    3    3    0    0 -0.29049754879E+01  0.78070063683E+01  0.60494478467E+01  0.10294855525E+02  0.00000000000E+00 0. -1.
</event>
<event>
 7    1  0.5748623E-013  0.5052887E+02  0.7816164E-02  0.1300439E+00
        -11   -1    0    0    0    0  0.00000000000E+00  0.00000000000E+00  0.45593999997E+02  0.45594000000E+02  0.51100000000E-03 0. -1.
         11   -1    0    0    0    0 -0.00000000000E+00 -0.00000000000E+00 -0.45593999997E+02  0.45594000000E+02  0.51100000000E-03 0.  1.
    9900012    2    1    2    0    0 -0.26735711550E+02 -0.30494612404E+02 -0.29060724204E+01  0.50528869234E+02  0.30000028523E+02 0.  0.
         12    1    1    2    0    0  0.26735711550E+02  0.30494612404E+02  0.29060724204E+01  0.40659130766E+02  0.00000000000E+00 0. -1.
         11    1    3    3    0    0 -0.73263438093E+01 -0.14406507765E+02 -0.44780018651E+01  0.16771263535E+02  0.51100000000E-03 0. -1.
        -11    1    3    3    0    0 -0.20234824379E+02 -0.33622856353E+01 -0.17282473589E+01  0.20584944050E+02  0.51100000000E-03 0.  1.
        -12    1    3    3    0    0  0.82545663855E+00 -0.12725819004E+02  0.33001768036E+01  0.13172661649E+02  0.00000000000E+00 0.  1.
</event>
<event>
 7    1  0.5748623E-013  0.5052884E+02  0.7816164E-02  0.1300439E+00
        -11   -1    0    0    0    0  0.00000000000E+00  0.00000000000E+00  0.45593999997E+02  0.45594000000E+02  0.51100000000E-03 0.  1.
         11   -1    0    0    0    0 -0.00000000000E+00 -0.00000000000E+00 -0.45593999997E+02  0.45594000000E+02  0.51100000000E-03 0. -1.
    9900012    2    1    2    0    0 -0.25104766841E+02  0.18261849221E+02  0.26256866166E+02  0.50528837736E+02  0.29999932784E+02 0.  0.
         12    1    1    2    0    0  0.25104766841E+02 -0.18261849221E+02 -0.26256866166E+02  0.40659162264E+02  0.00000000000E+00 0. -1.
         11    1    3    3    0    0 -0.24278095027E+01  0.10558497360E+02  0.70514774778E+01  0.12926695647E+02  0.51100000000E-03 0. -1.
        -11    1    3    3    0    0 -0.23461104888E+02  0.73020233383E+01  0.72557611188E+01  0.25620090887E+02  0.51100000000E-03 0.  1.
        -12    1    3    3    0    0  0.78414754938E+00  0.40132852319E+00  0.11949627569E+02  0.11982051202E+02  0.00000000000E+00 0.  1.
</event>
<event>
 7    1  0.5748623E-013  0.5052886E+02  0.7816164E-02  0.1300439E+00
        -11   -1    0    0    0    0  0.00000000000E+00  0.00000000000E+00  0.45593999997E+02  0.45594000000E+02  0.51100000000E-03 0.  1.
         11   -1    0    0    0    0 -0.00000000000E+00 -0.00000000000E+00 -0.45593999997E+02  0.45594000000E+02  0.51100000000E-03 0. -1.
    9900012    2    1    2    0    0 -0.16371726773E+02 -0.34011970499E+02  0.15110201485E+02  0.50528858793E+02  0.29999996788E+02 0.  0.
         12    1    1    2    0    0  0.16371726773E+02  0.34011970499E+02 -0.15110201485E+02  0.40659141207E+02  0.00000000000E+00 0. -1.
         11    1    3    3    0    0 -0.63888287039E+01 -0.46414393202E+01 -0.69526315077E+01  0.10521367607E+02  0.51100000000E-03 0. -1.
        -11    1    3    3    0    0 -0.84498112767E+01 -0.29828838546E+02  0.18502311064E+02  0.36103939322E+02  0.51100000000E-03 0.  1.
         12    1    3    3    0    0 -0.15330867920E+01  0.45830736674E+00  0.35605219286E+01  0.39035518645E+01  0.00000000000E+00 0. -1.
</event>
<event>
 7    1  0.5748623E-013  0.5052887E+02  0.7816164E-02  0.1300439E+00
        -11   -1    0    0    0    0  0.00000000000E+00  0.00000000000E+00  0.45593999997E+02  0.45594000000E+02  0.51100000000E-03 0.  1.
         11   -1    0    0    0    0 -0.00000000000E+00 -0.00000000000E+00 -0.45593999997E+02  0.45594000000E+02  0.51100000000E-03 0. -1.
    9900012    2    1    2    0    0  0.18448376313E+02 -0.35554306832E+02 -0.69795103751E+01  0.50528869562E+02  0.30000029520E+02 0.  0.
         12    1    1    2    0    0 -0.18448376313E+02  0.35554306832E+02  0.69795103751E+01  0.40659130438E+02  0.00000000000E+00 0. -1.
         11    1    3    3    0    0  0.73411233995E+01 -0.16752424923E+02 -0.96794773652E+01  0.20693673330E+02  0.51100000000E-03 0. -1.
        -11    1    3    3    0    0  0.90044326544E+01 -0.14188320957E+02  0.11017516773E+02  0.20094126881E+02  0.51100000000E-03 0.  1.
        -12    1    3    3    0    0  0.21028202591E+01 -0.46135609521E+01 -0.83175497828E+01  0.97410693504E+01  0.00000000000E+00 0.  1.
</event>
<event>
 7    1  0.5748623E-013  0.5052886E+02  0.7816164E-02  0.1300439E+00
        -11   -1    0    0    0    0  0.00000000000E+00  0.00000000000E+00  0.45593999997E+02  0.45594000000E+02  0.51100000000E-03 0.  1.
         11   -1    0    0    0    0 -0.00000000000E+00 -0.00000000000E+00 -0.45593999997E+02  0.45594000000E+02  0.51100000000E-03 0. -1.
    9900012    2    1    2    0    0 -0.34402142547E+02  0.51844758194E+01  0.21042328280E+02  0.50528858583E+02  0.29999996149E+02 0.  0.
         12    1    1    2    0    0  0.34402142547E+02 -0.51844758194E+01 -0.21042328280E+02  0.40659141417E+02  0.00000000000E+00 0. -1.
         11    1    3    3    0    0  0.11570886984E+01 -0.61371673730E+01  0.47421678447E+01  0.78416728922E+01  0.51100000000E-03 0. -1.
        -11    1    3    3    0    0 -0.14885796199E+02  0.11428607066E+02  0.82778299573E+01  0.20511520105E+02  0.51100000000E-03 0.  1.
         12    1    3    3    0    0 -0.20673435046E+02 -0.10696387385E+00  0.80223304776E+01  0.22175665586E+02  0.00000000000E+00 0. -1.
</event>
<event>
 7    1  0.5748623E-013  0.5052885E+02  0.7816164E-02  0.1300439E+00
        -11   -1    0    0    0    0  0.00000000000E+00  0.00000000000E+00  0.45593999997E+02  0.45594000000E+02  0.51100000000E-03 0.  1.
         11   -1    0    0    0    0 -0.00000000000E+00 -0.00000000000E+00 -0.45593999997E+02  0.45594000000E+02  0.51100000000E-03 0. -1.
    9900012    2    1    2    0    0 -0.18715184574E+02  0.22914941440E+02  0.27889312434E+02  0.50528850687E+02  0.29999972148E+02 0.  0.
         12    1    1    2    0    0  0.18715184574E+02 -0.22914941440E+02 -0.27889312434E+02  0.40659149313E+02  0.00000000000E+00 0. -1.
         11    1    3    3    0    0 -0.17829658005E+02  0.21284424070E+02  0.23347968523E+02  0.36277417865E+02  0.51100000000E-03 0. -1.
        -11    1    3    3    0    0 -0.33655497229E+01 -0.33906944907E+01 -0.23887754692E+01  0.53413465128E+01  0.51100000000E-03 0.  1.
        -12    1    3    3    0    0  0.24800231546E+01  0.50212118608E+01  0.69301193808E+01  0.89100863088E+01  0.00000000000E+00 0.  1.
</event>
<event>
 7    1  0.5748623E-013  0.5052886E+02  0.7816164E-02  0.1300439E+00
        -11   -1    0    0    0    0  0.00000000000E+00  0.00000000000E+00  0.45593999997E+02  0.45594000000E+02  0.51100000000E-03 0. -1.
         11   -1    0    0    0    0 -0.00000000000E+00 -0.00000000000E+00 -0.45593999997E+02  0.45594000000E+02  0.51100000000E-03 0.  1.
    9900012    2    1    2    0    0 -0.36144636041E+02 -0.17307012635E+02 -0.68700827727E+01  0.50528862796E+02  0.30000008953E+02 0.  0.
         12    1    1    2    0    0  0.36144636041E+02  0.17307012635E+02  0.68700827727E+01  0.40659137204E+02  0.00000000000E+00 0. -1.
         11    1    3    3    0    0 -0.13166362621E+02  0.20228247056E+01  0.65138515323E+01  0.14828188915E+02  0.51100000000E-03 0. -1.
        -11    1    3    3    0    0 -0.23547687890E+02 -0.18823266292E+02 -0.93030871650E+01  0.31549269245E+02  0.51100000000E-03 0.  1.
        -12    1    3    3    0    0  0.56941446954E+00 -0.50657104935E+00 -0.40808471401E+01  0.41514046354E+01  0.00000000000E+00 0.  1.
</event>
<event>
 7    1  0.5748623E-013  0.5052885E+02  0.7816164E-02  0.1300439E+00
        -11   -1    0    0    0    0  0.00000000000E+00  0.00000000000E+00  0.45593999997E+02  0.45594000000E+02  0.51100000000E-03 0.  1.
         11   -1    0    0    0    0 -0.00000000000E+00 -0.00000000000E+00 -0.45593999997E+02  0.45594000000E+02  0.51100000000E-03 0. -1.
    9900012    2    1    2    0    0  0.66438954313E+00 -0.25112067330E+02  0.31970437995E+02  0.50528852879E+02  0.29999978810E+02 0.  0.
         12    1    1    2    0    0 -0.66438954313E+00  0.25112067330E+02 -0.31970437995E+02  0.40659147121E+02  0.00000000000E+00 0. -1.
         11    1    3    3    0    0  0.10858087255E+02 -0.65460775025E+01  0.48769578485E+01  0.13584325806E+02  0.51100000000E-03 0. -1.
        -11    1    3    3    0    0 -0.23866444277E+01 -0.16691313704E+02  0.15950325093E+02  0.23210103309E+02  0.51100000000E-03 0.  1.
         12    1    3    3    0    0 -0.78070532839E+01 -0.18746761230E+01  0.11143155054E+02  0.13734423763E+02  0.00000000000E+00 0. -1.
</event>
<event>
 7    1  0.5748623E-013  0.5052886E+02  0.7816164E-02  0.1300439E+00
        -11   -1    0    0    0    0  0.00000000000E+00  0.00000000000E+00  0.45593999997E+02  0.45594000000E+02  0.51100000000E-03 0.  1.
         11   -1    0    0    0    0 -0.00000000000E+00 -0.00000000000E+00 -0.45593999997E+02  0.45594000000E+02  0.51100000000E-03 0. -1.
    9900012    2    1    2    0    0  0.20076738804E+02 -0.34623015305E+02 -0.71649795051E+01  0.50528861284E+02  0.30000004360E+02 0.  0.
         12    1    1    2    0    0 -0.20076738804E+02  0.34623015305E+02  0.71649795051E+01  0.40659138716E+02  0.00000000000E+00 0. -1.
         11    1    3    3    0    0  0.16522626442E+02 -0.32761504986E+02 -0.58739782387E+01  0.37159346255E+02  0.51100000000E-03 0. -1.
        -11    1    3    3    0    0  0.21607068090E+01  0.19603738889E+01  0.50521323364E+01  0.58340175784E+01  0.51100000000E-03 0.  1.
         12    1    3    3    0    0  0.13934055529E+01 -0.38218842082E+01 -0.63431336028E+01  0.75354974513E+01  0.00000000000E+00 0. -1.
</event>
<event>
 7    1  0.5748623E-013  0.5052887E+02  0.7816164E-02  0.1300439E+00
        -11   -1    0    0    0    0  0.00000000000E+00  0.00000000000E+00  0.45593999997E+02  0.45594000000E+02  0.51100000000E-03 0. -1.
         11   -1    0    0    0    0 -0.00000000000E+00 -0.00000000000E+00 -0.45593999997E+02  0.45594000000E+02  0.51100000000E-03 0.  1.
    9900012    2    1    2    0    0 -0.31204060346E+02  0.12966938263E+02 -0.22612610150E+02  0.50528868089E+02  0.30000025044E+02 0.  0.
         12    1    1    2    0    0  0.31204060346E+02 -0.12966938263E+02  0.22612610150E+02  0.40659131911E+02  0.00000000000E+00 0. -1.
         11    1    3    3    0    0 -0.17559998660E+01 -0.59530043943E+01 -0.76168218666E+01  0.98253637315E+01  0.51100000000E-03 0. -1.
        -11    1    3    3    0    0 -0.20428818770E+02  0.20179042778E+02 -0.10827665609E+02  0.30688250953E+02  0.51100000000E-03 0.  1.
         12    1    3    3    0    0 -0.90192417093E+01 -0.12591001207E+01 -0.41681226738E+01  0.10015253404E+02  0.00000000000E+00 0. -1.
</event>
<event>
 7    1  0.5748623E-013  0.5052880E+02  0.7816164E-02  0.1300439E+00
        -11   -1    0    0    0    0  0.00000000000E+00  0.00000000000E+00  0.45593999997E+02  0.45594000000E+02  0.51100000000E-03 0.  1.
         11   -1    0    0    0    0 -0.00000000000E+00 -0.00000000000E+00 -0.45593999997E+02  0.45594000000E+02  0.51100000000E-03 0. -1.
    9900012    2    1    2    0    0 -0.81311131686E+01  0.39187089163E+02  0.71713059147E+01  0.50528799480E+02  0.29999816499E+02 0.  0.
         12    1    1    2    0    0  0.81311131686E+01 -0.39187089163E+02 -0.71713059147E+01  0.40659200520E+02  0.00000000000E+00 0. -1.
         11    1    3    3    0    0 -0.47555306099E+00 -0.13017225357E+01  0.26447912919E+01  0.29858924148E+01  0.51100000000E-03 0. -1.
        -11    1    3    3    0    0 -0.11994788504E+02  0.36980967825E+02  0.95517686713E+01  0.40033775959E+02  0.51100000000E-03 0.  1.
        -12    1    3    3    0    0  0.43392283962E+01  0.35078438734E+01 -0.50252540485E+01  0.75091311060E+01  0.00000000000E+00 0.  1.
</event>
<event>
 7    1  0.5748623E-013  0.5052883E+02  0.7816164E-02  0.1300439E+00
        -11   -1    0    0    0    0  0.00000000000E+00  0.00000000000E+00  0.45593999997E+02  0.45594000000E+02  0.51100000000E-03 0. -1.
         11   -1    0    0    0    0 -0.00000000000E+00 -0.00000000000E+00 -0.45593999997E+02  0.45594000000E+02  0.51100000000E-03 0.  1.
    9900012    2    1    2    0    0  0.40446284039E+02 -0.22119848015E+01 -0.35175828708E+01  0.50528829342E+02  0.29999907269E+02 0.  0.
         12    1    1    2    0    0 -0.40446284039E+02  0.22119848015E+01  0.35175828708E+01  0.40659170658E+02  0.00000000000E+00 0. -1.
         11    1    3    3    0    0 -0.27485766222E+01 -0.26075232578E+00 -0.64843205282E+00  0.28360411866E+01  0.51100000000E-03 0. -1.
        -11    1    3    3    0    0  0.29018908229E+02  0.78024545417E+01  0.95871984046E+00  0.30064837862E+02  0.51100000000E-03 0.  1.
        -12    1    3    3    0    0  0.14175952432E+02 -0.97536870174E+01 -0.38278706585E+01  0.17627950294E+02  0.00000000000E+00 0.  1.
</event>
<event>
 7    1  0.5748623E-013  0.5052886E+02  0.7816164E-02  0.1300439E+00
        -11   -1    0    0    0    0  0.00000000000E+00  0.00000000000E+00  0.45593999997E+02  0.45594000000E+02  0.51100000000E-03 0.  1.
         11   -1    0    0    0    0 -0.00000000000E+00 -0.00000000000E+00 -0.45593999997E+02  0.45594000000E+02  0.51100000000E-03 0. -1.
    9900012    2    1    2    0    0  0.22262875980E+02  0.15247832608E+02  0.30414360768E+02  0.50528863424E+02  0.30000010865E+02 0.  0.
         12    1    1    2    0    0 -0.22262875980E+02 -0.15247832608E+02 -0.30414360768E+02  0.40659136576E+02  0.00000000000E+00 0. -1.
         11    1    3    3    0    0  0.11612374939E+02 -0.48689934892E+00  0.61502685154E+01  0.13149529489E+02  0.51100000000E-03 0. -1.
        -11    1    3    3    0    0 -0.36667368838E+01  0.13419204910E+02  0.12565378078E+02  0.18745899453E+02  0.51100000000E-03 0.  1.
        -12    1    3    3    0    0  0.14317237925E+02  0.23155270470E+01  0.11698714175E+02  0.18633434483E+02  0.00000000000E+00 0.  1.
</event>
<event>
 7    1  0.5748623E-013  0.5052886E+02  0.7816164E-02  0.1300439E+00
        -11   -1    0    0    0    0  0.00000000000E+00  0.00000000000E+00  0.45593999997E+02  0.45594000000E+02  0.51100000000E-03 0. -1.
         11   -1    0    0    0    0 -0.00000000000E+00 -0.00000000000E+00 -0.45593999997E+02  0.45594000000E+02  0.51100000000E-03 0.  1.
    9900012    2    1    2    0    0 -0.37836783450E+02  0.79125548879E+01  0.12606935880E+02  0.50528861557E+02  0.30000005187E+02 0.  0.
         12    1    1    2    0    0  0.37836783450E+02 -0.79125548879E+01 -0.12606935880E+02  0.40659138443E+02  0.00000000000E+00 0. -1.
         11    1    3    3    0    0 -0.68534883362E+01  0.65350574735E+01 -0.69866115495E+01  0.11768178269E+02  0.51100000000E-03 0. -1.
        -11    1    3    3    0    0 -0.14298660957E+02  0.66116500619E+01  0.11427090378E+02  0.19461346728E+02  0.51100000000E-03 0.  1.
         12    1    3    3    0    0 -0.16684634157E+02 -0.52341526476E+01  0.81664570515E+01  0.19299336560E+02  0.00000000000E+00 0. -1.
</event>
<event>
 7    1  0.5748623E-013  0.5052886E+02  0.7816164E-02  0.1300439E+00
        -11   -1    0    0    0    0  0.00000000000E+00  0.00000000000E+00  0.45593999997E+02  0.45594000000E+02  0.51100000000E-03 0.  1.
         11   -1    0    0    0    0 -0.00000000000E+00 -0.00000000000E+00 -0.45593999997E+02  0.45594000000E+02  0.51100000000E-03 0. -1.
    9900012    2    1    2    0    0  0.23634662974E+02  0.26411106270E+02  0.19925397360E+02  0.50528864639E+02  0.30000014558E+02 0.  0.
         12    1    1    2    0    0 -0.23634662974E+02 -0.26411106270E+02 -0.19925397360E+02  0.40659135361E+02  0.00000000000E+00 0. -1.
         11    1    3    3    0    0  0.13710962941E+02  0.17957041688E+02  0.21712044541E+02  0.31334625087E+02  0.51100000000E-03 0. -1.
        -11    1    3    3    0    0  0.13430840390E+02  0.56715009104E+01 -0.74776381378E+00  0.14598374811E+02  0.51100000000E-03 0.  1.
         12    1    3    3    0    0 -0.35071403564E+01  0.27825636718E+01 -0.10388833668E+01  0.45958647409E+01  0.00000000000E+00 0. -1.
</event>
<event>
 7    1  0.5748623E-013  0.5052886E+02  0.7816164E-02  0.1300439E+00
        -11   -1    0    0    0    0  0.00000000000E+00  0.00000000000E+00  0.45593999997E+02  0.45594000000E+02  0.51100000000E-03 0. -1.
         11   -1    0    0    0    0 -0.00000000000E+00 -0.00000000000E+00 -0.45593999997E+02  0.45594000000E+02  0.51100000000E-03 0.  1.
    9900012    2    1    2    0    0  0.28549456845E+02 -0.28808693100E+02  0.28553426841E+01  0.50528864912E+02  0.30000015385E+02 0.  0.
         12    1    1    2    0    0 -0.28549456845E+02  0.28808693100E+02 -0.28553426841E+01  0.40659135088E+02  0.00000000000E+00 0. -1.
         11    1    3    3    0    0  0.93647657045E+01 -0.15202105034E+02 -0.98224995059E+01  0.20378526222E+02  0.51100000000E-03 0. -1.
        -11    1    3    3    0    0  0.14245362830E+02 -0.27464395598E+01  0.10769450587E+02  0.18068048003E+02  0.51100000000E-03 0.  1.
        -12    1    3    3    0    0  0.49393283111E+01 -0.10860148506E+02  0.19083916027E+01  0.12082290687E+02  0.00000000000E+00 0.  1.
</event>
<event>
 7    1  0.5748623E-013  0.5052886E+02  0.7816164E-02  0.1300439E+00
        -11   -1    0    0    0    0  0.00000000000E+00  0.00000000000E+00  0.45593999997E+02  0.45594000000E+02  0.51100000000E-03 0.  1.
         11   -1    0    0    0    0 -0.00000000000E+00 -0.00000000000E+00 -0.45593999997E+02  0.45594000000E+02  0.51100000000E-03 0. -1.
    9900012    2    1    2    0    0 -0.26158206203E+02 -0.10947924420E+02  0.29138574933E+02  0.50528863881E+02  0.30000012251E+02 0.  0.
         12    1    1    2    0    0  0.26158206203E+02  0.10947924420E+02 -0.29138574933E+02  0.40659136119E+02  0.00000000000E+00 0. -1.
         11    1    3    3    0    0 -0.32171806014E+01 -0.35083153994E+01 -0.20236693156E+01  0.51724042498E+01  0.51100000000E-03 0. -1.
        -11    1    3    3    0    0 -0.20870804722E+02 -0.14498638666E+02  0.22048786128E+02  0.33644464372E+02  0.51100000000E-03 0.  1.
        -12    1    3    3    0    0 -0.20702208802E+01  0.70590296458E+01  0.91134581200E+01  0.11711995259E+02  0.00000000000E+00 0.  1.
</event>
<event>
 7    1  0.5748623E-013  0.5052886E+02  0.7816164E-02  0.1300439E+00
        -11   -1    0    0    0    0  0.00000000000E+00  0.00000000000E+00  0.45593999997E+02  0.45594000000E+02  0.51100000000E-03 0. -1.
         11   -1    0    0    0    0 -0.00000000000E+00 -0.00000000000E+00 -0.45593999997E+02  0.45594000000E+02  0.51100000000E-03 0.  1.
    9900012    2    1    2    0    0 -0.33507062973E+01  0.38210712395E+02 -0.13486284690E+02  0.50528860201E+02  0.30000001067E+02 0.  0.
         12    1    1    2    0    0  0.33507062973E+01 -0.38210712395E+02  0.13486284690E+02  0.40659139799E+02  0.00000000000E+00 0. -1.
         11    1    3    3    0    0 -0.71693826406E+01  0.16913595792E+02  0.24200175937E+01  0.18529065154E+02  0.51100000000E-03 0. -1.
        -11    1    3    3    0    0  0.10381515317E+02  0.15074808294E+02 -0.13176279268E+02  0.22553049483E+02  0.51100000000E-03 0.  1.
         12    1    3    3    0    0 -0.65628389734E+01  0.62223083089E+01 -0.27300230165E+01  0.94467455641E+01  0.00000000000E+00 0. -1.
</event>
<event>
 7    1  0.5748623E-013  0.5052884E+02  0.7816164E-02  0.1300439E+00
        -11   -1    0    0    0    0  0.00000000000E+00  0.00000000000E+00  0.45593999997E+02  0.45594000000E+02  0.51100000000E-03 0.  1.
         11   -1    0    0    0    0 -0.00000000000E+00 -0.00000000000E+00 -0.45593999997E+02  0.45594000000E+02  0.51100000000E-03 0. -1.
    9900012    2    1    2    0    0 -0.31959490846E+02  0.11717127379E+02  0.22236613226E+02  0.50528842398E+02  0.29999946952E+02 0.  0.
         12    1    1    2    0    0  0.31959490846E+02 -0.11717127379E+02 -0.22236613226E+02  0.40659157602E+02  0.00000000000E+00 0. -1.
         11    1    3    3    0    0  0.39939713630E+01 -0.37563574552E+01  0.22936520293E+01  0.59433045078E+01  0.51100000000E-03 0. -1.
        -11    1    3    3    0    0 -0.31326617477E+02  0.13293624100E+02  0.14142670080E+02  0.36852306868E+02  0.51100000000E-03 0.  1.
         12    1    3    3    0    0 -0.46268447323E+01  0.21798607347E+01  0.58002911161E+01  0.77332310214E+01  0.00000000000E+00 0. -1.
</event>
<event>
 7    1  0.5748623E-013  0.5052887E+02  0.7816164E-02  0.1300439E+00
        -11   -1    0    0    0    0  0.00000000000E+00  0.00000000000E+00  0.45593999997E+02  0.45594000000E+02  0.51100000000E-03 0. -1.
         11   -1    0    0    0    0 -0.00000000000E+00 -0.00000000000E+00 -0.45593999997E+02  0.45594000000E+02  0.51100000000E-03 0.  1.
    9900012    2    1    2    0    0 -0.39458195704E+02  0.65668328345E+01  0.72864731886E+01  0.50528865808E+02  0.30000018110E+02 0.  0.
         12    1    1    2    0    0  0.39458195704E+02 -0.65668328345E+01 -0.72864731886E+01  0.40659134192E+02  0.00000000000E+00 0. -1.
         11    1    3    3    0    0 -0.26763659459E+02  0.48437703049E+01  0.12625207456E+02  0.29985854031E+02  0.51100000000E-03 0. -1.
        -11    1    3    3    0    0 -0.76869921414E+01 -0.56807191973E+00 -0.10479945876E+02  0.13009297433E+02  0.51100000000E-03 0.  1.
        -12    1    3    3    0    0 -0.50075441035E+01  0.22911344493E+01  0.51412116082E+01  0.75337143438E+01  0.00000000000E+00 0.  1.
</event>
<event>
 7    1  0.5748623E-013  0.5052886E+02  0.7816164E-02  0.1300439E+00
        -11   -1    0    0    0    0  0.00000000000E+00  0.00000000000E+00  0.45593999997E+02  0.45594000000E+02  0.51100000000E-03 0.  1.
         11   -1    0    0    0    0 -0.00000000000E+00 -0.00000000000E+00 -0.45593999997E+02  0.45594000000E+02  0.51100000000E-03 0. -1.
    9900012    2    1    2    0    0 -0.23782194479E+02 -0.14619326385E+01  0.32945954137E+02  0.50528856929E+02  0.29999991123E+02 0.  0.
         12    1    1    2    0    0  0.23782194479E+02  0.14619326385E+01 -0.32945954137E+02  0.40659143071E+02  0.00000000000E+00 0. -1.
         11    1    3    3    0    0 -0.12057758096E+02  0.12132650770E+02  0.10476214313E+02  0.20058459851E+02  0.51100000000E-03 0. -1.
        -11    1    3    3    0    0 -0.38339766615E+01 -0.58769676894E+00  0.74658875767E+00  0.39499569070E+01  0.51100000000E-03 0.  1.
         12    1    3    3    0    0 -0.78904597215E+01 -0.13006886639E+02  0.21723151066E+02  0.26520440172E+02  0.00000000000E+00 0. -1.
</event>
<event>
 7    1  0.5748623E-013  0.5052886E+02  0.7816164E-02  0.1300439E+00
        -11   -1    0    0    0    0  0.00000000000E+00  0.00000000000E+00  0.45593999997E+02  0.45594000000E+02  0.51100000000E-03 0. -1.
         11   -1    0    0    0    0 -0.00000000000E+00 -0.00000000000E+00 -0.45593999997E+02  0.45594000000E+02  0.51100000000E-03 0.  1.
    9900012    2    1    2    0    0 -0.23068488259E+02 -0.21319349988E+02 -0.25816581208E+02  0.50528859579E+02  0.29999999177E+02 0.  0.
         12    1    1    2    0    0  0.23068488259E+02  0.21319349988E+02  0.25816581208E+02  0.40659140421E+02  0.00000000000E+00 0. -1.
         11    1    3    3    0    0 -0.11244874750E+02 -0.11783741452E+02  0.77408606807E+00  0.16306531828E+02  0.51100000000E-03 0. -1.
        -11    1    3    3    0    0 -0.95338871953E+00  0.38501030542E+01 -0.75887449504E+01  0.85627853974E+01  0.51100000000E-03 0.  1.
         12    1    3    3    0    0 -0.10870224790E+02 -0.13385711590E+02 -0.19001922325E+02  0.25659542354E+02  0.00000000000E+00 0. -1.
</event>
<event>
 7    1  0.5748623E-013  0.5052882E+02  0.7816164E-02  0.1300439E+00
        -11   -1    0    0    0    0  0.00000000000E+00  0.00000000000E+00  0.45593999997E+02  0.45594000000E+02  0.51100000000E-03 0.  1.
         11   -1    0    0    0    0 -0.00000000000E+00 -0.00000000000E+00 -0.45593999997E+02  0.45594000000E+02  0.51100000000E-03 0. -1.
    9900012    2    1    2    0    0  0.56601607832E+01 -0.29761297927E+02  0.27118198550E+02  0.50528819401E+02  0.29999877051E+02 0.  0.
         12    1    1    2    0    0 -0.56601607832E+01  0.29761297927E+02 -0.27118198550E+02  0.40659180599E+02  0.00000000000E+00 0. -1.
         11    1    3    3    0    0 -0.69381879986E+01 -0.28588068266E+01  0.12590834860E+02  0.14657433333E+02  0.51100000000E-03 0.  1.
        -11    1    3    3    0    0  0.10932103383E+02 -0.96751141219E+01  0.25404015080E+01  0.14817974144E+02  0.51100000000E-03 0. -1.
         12    1    3    3    0    0  0.16662453984E+01 -0.17227376978E+02  0.11986962183E+02  0.21053411924E+02  0.00000000000E+00 0. -1.
</event>
<event>
 7    1  0.5748623E-013  0.5052886E+02  0.7816164E-02  0.1300439E+00
        -11   -1    0    0    0    0  0.00000000000E+00  0.00000000000E+00  0.45593999997E+02  0.45594000000E+02  0.51100000000E-03 0.  1.
         11   -1    0    0    0    0 -0.00000000000E+00 -0.00000000000E+00 -0.45593999997E+02  0.45594000000E+02  0.51100000000E-03 0. -1.
    9900012    2    1    2    0    0  0.29986163831E+02 -0.24471796749E+02  0.12454979425E+02  0.50528863636E+02  0.30000011508E+02 0.  0.
         12    1    1    2    0    0 -0.29986163831E+02  0.24471796749E+02 -0.12454979425E+02  0.40659136364E+02  0.00000000000E+00 0. -1.
         11    1    3    3    0    0  0.13791032936E+02 -0.13689123322E+02 -0.27176366191E+01  0.19620658394E+02  0.51100000000E-03 0. -1.
        -11    1    3    3    0    0  0.76266486642E+01  0.40734220663E+01  0.94972633813E+01  0.12843541146E+02  0.51100000000E-03 0.  1.
        -12    1    3    3    0    0  0.85684822304E+01 -0.14856095493E+02  0.56753526626E+01  0.18064664095E+02  0.00000000000E+00 0.  1.
</event>
<event>
 7    1  0.5748623E-013  0.5052885E+02  0.7816164E-02  0.1300439E+00
        -11   -1    0    0    0    0  0.00000000000E+00  0.00000000000E+00  0.45593999997E+02  0.45594000000E+02  0.51100000000E-03 0. -1.
         11   -1    0    0    0    0 -0.00000000000E+00 -0.00000000000E+00 -0.45593999997E+02  0.45594000000E+02  0.51100000000E-03 0.  1.
    9900012    2    1    2    0    0  0.11887253228E+02  0.63238229660E+01 -0.38364946762E+02  0.50528847694E+02  0.29999963050E+02 0.  0.
         12    1    1    2    0    0 -0.11887253228E+02 -0.63238229660E+01  0.38364946762E+02  0.40659152306E+02  0.00000000000E+00 0. -1.
         11    1    3    3    0    0  0.94194598643E+01 -0.16909333857E+00  0.12328143596E+01  0.95012971850E+01  0.51100000000E-03 0. -1.
        -11    1    3    3    0    0  0.29271154352E+01  0.73517728729E+01 -0.21606433209E+02  0.23009878865E+02  0.51100000000E-03 0.  1.
        -12    1    3    3    0    0 -0.45932207113E+00 -0.85885656836E+00 -0.17991327913E+02  0.18017671643E+02  0.00000000000E+00 0.  1.
</event>
<event>
 7    1  0.5748623E-013  0.5052886E+02  0.7816164E-02  0.1300439E+00
        -11   -1    0    0    0    0  0.00000000000E+00  0.00000000000E+00  0.45593999997E+02  0.45594000000E+02  0.51100000000E-03 0.  1.
         11   -1    0    0    0    0 -0.00000000000E+00 -0.00000000000E+00 -0.45593999997E+02  0.45594000000E+02  0.51100000000E-03 0. -1.
    9900012    2    1    2    0    0  0.36320483920E+02  0.78989982149E+01  0.16480112764E+02  0.50528857833E+02  0.29999993871E+02 0.  0.
         12    1    1    2    0    0 -0.36320483920E+02 -0.78989982149E+01 -0.16480112764E+02  0.40659142167E+02  0.00000000000E+00 0. -1.
         11    1    3    3    0    0  0.11852983979E+02 -0.40886213701E+01 -0.38125009336E+01  0.13105159959E+02  0.51100000000E-03 0. -1.
        -11    1    3    3    0    0  0.24677936859E+02  0.59772203849E+01  0.17122254908E+02  0.30625142359E+02  0.51100000000E-03 0.  1.
         12    1    3    3    0    0 -0.21043691741E+00  0.60103992001E+01  0.31703587896E+01  0.67985555154E+01  0.00000000000E+00 0. -1.
</event>
<event>
 7    1  0.5748623E-013  0.5052881E+02  0.7816164E-02  0.1300439E+00
        -11   -1    0    0    0    0  0.00000000000E+00  0.00000000000E+00  0.45593999997E+02  0.45594000000E+02  0.51100000000E-03 0. -1.
         11   -1    0    0    0    0 -0.00000000000E+00 -0.00000000000E+00 -0.45593999997E+02  0.45594000000E+02  0.51100000000E-03 0.  1.
    9900012    2    1    2    0    0  0.48451271406E+01 -0.38829744758E+02 -0.11042899370E+02  0.50528807172E+02  0.29999839878E+02 0.  0.
         12    1    1    2    0    0 -0.48451271406E+01  0.38829744758E+02  0.11042899370E+02  0.40659192828E+02  0.00000000000E+00 0. -1.
         11    1    3    3    0    0 -0.39566738589E+01 -0.13802418768E+01 -0.10562851307E+02  0.11363721382E+02  0.51100000000E-03 0. -1.
        -11    1    3    3    0    0  0.83073108984E+01 -0.19913852432E+02 -0.11706956474E+01  0.21608874603E+02  0.51100000000E-03 0.  1.
         12    1    3    3    0    0  0.49449010101E+00 -0.17535650449E+02  0.69064758434E+00  0.17556211186E+02  0.00000000000E+00 0. -1.
</event>
<event>
 7    1  0.5748623E-013  0.5052886E+02  0.7816164E-02  0.1300439E+00
        -11   -1    0    0    0    0  0.00000000000E+00  0.00000000000E+00  0.45593999997E+02  0.45594000000E+02  0.51100000000E-03 0.  1.
         11   -1    0    0    0    0 -0.00000000000E+00 -0.00000000000E+00 -0.45593999997E+02  0.45594000000E+02  0.51100000000E-03 0. -1.
    9900012    2    1    2    0    0 -0.26707949584E+02 -0.67724510117E+01  0.29899583261E+02  0.50528859049E+02  0.29999997565E+02 0.  0.
         12    1    1    2    0    0  0.26707949584E+02  0.67724510117E+01 -0.29899583261E+02  0.40659140951E+02  0.00000000000E+00 0. -1.
         11    1    3    3    0    0 -0.20895638265E+01  0.26854536584E+01 -0.35393695414E+01  0.49096919810E+01  0.51100000000E-03 0. -1.
        -11    1    3    3    0    0 -0.17336955180E+02  0.19938731474E+01  0.18250541605E+02  0.25251293317E+02  0.51100000000E-03 0.  1.
         12    1    3    3    0    0 -0.72814305778E+01 -0.11451777818E+02  0.15188411197E+02  0.20367873751E+02  0.00000000000E+00 0. -1.
</event>
<event>
 7    1  0.5748623E-013  0.5052886E+02  0.7816164E-02  0.1300439E+00
        -11   -1    0    0    0    0  0.00000000000E+00  0.00000000000E+00  0.45593999997E+02  0.45594000000E+02  0.51100000000E-03 0.  1.
         11   -1    0    0    0    0 -0.00000000000E+00 -0.00000000000E+00 -0.45593999997E+02  0.45594000000E+02  0.51100000000E-03 0. -1.
    9900012    2    1    2    0    0  0.15513533440E+00 -0.38294427085E+02  0.13663041623E+02  0.50528856881E+02  0.29999990976E+02 0.  0.
         12    1    1    2    0    0 -0.15513533440E+00  0.38294427085E+02 -0.13663041623E+02  0.40659143119E+02  0.00000000000E+00 0. -1.
         11    1    3    3    0    0  0.17916794830E+01 -0.27902351421E+02  0.86225948920E+01  0.29259194677E+02  0.51100000000E-03 0.  1.
        -11    1    3    3    0    0  0.29689276183E+01  0.35878035909E+01 -0.18585560578E+01  0.50140898168E+01  0.51100000000E-03 0. -1.
         12    1    3    3    0    0 -0.46054717669E+01 -0.13979879255E+02  0.68990027890E+01  0.16255572388E+02  0.00000000000E+00 0. -1.
</event>
<event>
 7    1  0.5748623E-013  0.5052886E+02  0.7816164E-02  0.1300439E+00
        -11   -1    0    0    0    0  0.00000000000E+00  0.00000000000E+00  0.45593999997E+02  0.45594000000E+02  0.51100000000E-03 0.  1.
         11   -1    0    0    0    0 -0.00000000000E+00 -0.00000000000E+00 -0.45593999997E+02  0.45594000000E+02  0.51100000000E-03 0. -1.
    9900012    2    1    2    0    0  0.59850042591E+01 -0.10649320556E+02  0.38780631785E+02  0.50528859503E+02  0.29999998946E+02 0.  0.
         12    1    1    2    0    0 -0.59850042591E+01  0.10649320556E+02 -0.38780631785E+02  0.40659140497E+02  0.00000000000E+00 0. -1.
         11    1    3    3    0    0  0.42119377732E+01 -0.15323843599E+01 -0.90367481626E+00  0.45722259422E+01  0.51100000000E-03 0. -1.
        -11    1    3    3    0    0 -0.16278844640E+01  0.81780479846E+00  0.33937185669E+02  0.33986046900E+02  0.51100000000E-03 0.  1.
        -12    1    3    3    0    0  0.34009509499E+01 -0.99347409948E+01  0.57471209322E+01  0.11970586661E+02  0.00000000000E+00 0.  1.
</event>
<event>
 7    1  0.5748623E-013  0.5052886E+02  0.7816164E-02  0.1300439E+00
        -11   -1    0    0    0    0  0.00000000000E+00  0.00000000000E+00  0.45593999997E+02  0.45594000000E+02  0.51100000000E-03 0. -1.
         11   -1    0    0    0    0 -0.00000000000E+00 -0.00000000000E+00 -0.45593999997E+02  0.45594000000E+02  0.51100000000E-03 0.  1.
    9900012    2    1    2    0    0  0.40390848960E+02 -0.25783493340E+01 -0.38855104042E+01  0.50528858886E+02  0.29999997070E+02 0.  0.
         12    1    1    2    0    0 -0.40390848960E+02  0.25783493340E+01  0.38855104042E+01  0.40659141114E+02  0.00000000000E+00 0. -1.
         11    1    3    3    0    0  0.63982353381E+01  0.11978007744E+01 -0.72224881504E+01  0.97229870657E+01  0.51100000000E-03 0. -1.
        -11    1    3    3    0    0  0.35068906511E+02 -0.81496616584E+01  0.41056773959E+01  0.36236746214E+02  0.51100000000E-03 0.  1.
        -12    1    3    3    0    0 -0.10762928885E+01  0.43735115500E+01 -0.76869964972E+00  0.45691256068E+01  0.00000000000E+00 0.  1.
</event>
<event>
 7    1  0.5748623E-013  0.5052886E+02  0.7816164E-02  0.1300439E+00
        -11   -1    0    0    0    0  0.00000000000E+00  0.00000000000E+00  0.45593999997E+02  0.45594000000E+02  0.51100000000E-03 0.  1.
         11   -1    0    0    0    0 -0.00000000000E+00 -0.00000000000E+00 -0.45593999997E+02  0.45594000000E+02  0.51100000000E-03 0. -1.
    9900012    2    1    2    0    0 -0.87803515228E+01 -0.17983439402E+01  0.39659014812E+02  0.50528855031E+02  0.29999985352E+02 0.  0.
         12    1    1    2    0    0  0.87803515228E+01  0.17983439402E+01 -0.39659014812E+02  0.40659144969E+02  0.00000000000E+00 0. -1.
         11    1    3    3    0    0  0.65185437955E+01 -0.47855113405E+01  0.14862559690E+02  0.16920053570E+02  0.51100000000E-03 0. -1.
        -11    1    3    3    0    0 -0.10233723039E+02  0.76482380238E+01  0.23287598530E+02  0.26561944162E+02  0.51100000000E-03 0.  1.
         12    1    3    3    0    0 -0.50651722792E+01 -0.46610706235E+01  0.15088565911E+01  0.70468572987E+01  0.00000000000E+00 0. -1.
</event>
<event>
 7    1  0.5748623E-013  0.5052887E+02  0.7816164E-02  0.1300439E+00
        -11   -1    0    0    0    0  0.00000000000E+00  0.00000000000E+00  0.45593999997E+02  0.45594000000E+02  0.51100000000E-03 0. -1.
         11   -1    0    0    0    0 -0.00000000000E+00 -0.00000000000E+00 -0.45593999997E+02  0.45594000000E+02  0.51100000000E-03 0.  1.
    9900012    2    1    2    0    0  0.26288611916E+02 -0.27758532991E+02 -0.13839711001E+02  0.50528869772E+02  0.30000030160E+02 0.  0.
         12    1    1    2    0    0 -0.26288611916E+02  0.27758532991E+02  0.13839711001E+02  0.40659130228E+02  0.00000000000E+00 0. -1.
         11    1    3    3    0    0  0.21846350044E+02 -0.21567042464E+02 -0.21105550309E+02  0.37253786184E+02  0.51100000000E-03 0. -1.
        -11    1    3    3    0    0 -0.86349068370E+00 -0.55795521992E+01  0.47171277409E+01  0.73571946616E+01  0.51100000000E-03 0.  1.
         12    1    3    3    0    0  0.53057525555E+01 -0.61193832815E+00  0.25487115678E+01  0.59178889271E+01  0.00000000000E+00 0. -1.
</event>
<event>
 7    1  0.5748623E-013  0.5052886E+02  0.7816164E-02  0.1300439E+00
        -11   -1    0    0    0    0  0.00000000000E+00  0.00000000000E+00  0.45593999997E+02  0.45594000000E+02  0.51100000000E-03 0.  1.
         11   -1    0    0    0    0 -0.00000000000E+00 -0.00000000000E+00 -0.45593999997E+02  0.45594000000E+02  0.51100000000E-03 0. -1.
    9900012    2    1    2    0    0  0.22064536529E+02  0.66179825316E+01  0.33504093581E+02  0.50528858940E+02  0.29999997233E+02 0.  0.
         12    1    1    2    0    0 -0.22064536529E+02 -0.66179825316E+01 -0.33504093581E+02  0.40659141060E+02  0.00000000000E+00 0. -1.
         11    1    3    3    0    0  0.89321006036E+01  0.13448523223E+01  0.24577948376E+01  0.93611860726E+01  0.51100000000E-03 0. -1.
        -11    1    3    3    0    0  0.11725410175E+02  0.10597617038E+02  0.31894290643E+02  0.35595512450E+02  0.51100000000E-03 0.  1.
        -12    1    3    3    0    0  0.14070257513E+01 -0.53244868287E+01 -0.84799189961E+00  0.55721604173E+01  0.00000000000E+00 0.  1.
</event>
<event>
 7    1  0.5748623E-013  0.5052892E+02  0.7816164E-02  0.1300439E+00
        -11   -1    0    0    0    0  0.00000000000E+00  0.00000000000E+00  0.45593999997E+02  0.45594000000E+02  0.51100000000E-03 0. -1.
         11   -1    0    0    0    0 -0.00000000000E+00 -0.00000000000E+00 -0.45593999997E+02  0.45594000000E+02  0.51100000000E-03 0.  1.
    9900012    2    1    2    0    0 -0.14829471642E+02 -0.37057897415E+02 -0.77433718923E+01  0.50528919855E+02  0.30000182390E+02 0.  0.
         12    1    1    2    0    0  0.14829471642E+02  0.37057897415E+02  0.77433718923E+01  0.40659080145E+02  0.00000000000E+00 0. -1.
         11    1    3    3    0    0 -0.40113512767E+01 -0.13467810136E+02 -0.14584543751E+02  0.20252944616E+02  0.51100000000E-03 0.  1.
        -11    1    3    3    0    0  0.20840927127E+00 -0.48405959615E+01  0.70128675069E+01  0.85237969601E+01  0.51100000000E-03 0. -1.
        -12    1    3    3    0    0 -0.11026529637E+02 -0.18749491318E+02 -0.17169564814E+00  0.21752178279E+02  0.00000000000E+00 0.  1.
</event>
<event>
 7    1  0.5748623E-013  0.5052885E+02  0.7816164E-02  0.1300439E+00
        -11   -1    0    0    0    0  0.00000000000E+00  0.00000000000E+00  0.45593999997E+02  0.45594000000E+02  0.51100000000E-03 0.  1.
         11   -1    0    0    0    0 -0.00000000000E+00 -0.00000000000E+00 -0.45593999997E+02  0.45594000000E+02  0.51100000000E-03 0. -1.
    9900012    2    1    2    0    0 -0.28937725443E+01  0.39045798350E+02  0.10964392695E+02  0.50528853483E+02  0.29999980647E+02 0.  0.
         12    1    1    2    0    0  0.28937725443E+01 -0.39045798350E+02 -0.10964392695E+02  0.40659146517E+02  0.00000000000E+00 0. -1.
         11    1    3    3    0    0 -0.24922406692E+01  0.49127171109E+01  0.14454251633E+02  0.15468401452E+02  0.51100000000E-03 0. -1.
        -11    1    3    3    0    0  0.73554549154E+00  0.74672617591E+01 -0.37077862022E+01  0.83695103878E+01  0.51100000000E-03 0.  1.
         12    1    3    3    0    0 -0.11370773667E+01  0.26665819480E+02  0.21792726389E+00  0.26690941643E+02  0.00000000000E+00 0. -1.
</event>
<event>
 7    1  0.5748623E-013  0.5052886E+02  0.7816164E-02  0.1300439E+00
        -11   -1    0    0    0    0  0.00000000000E+00  0.00000000000E+00  0.45593999997E+02  0.45594000000E+02  0.51100000000E-03 0.  1.
         11   -1    0    0    0    0 -0.00000000000E+00 -0.00000000000E+00 -0.45593999997E+02  0.45594000000E+02  0.51100000000E-03 0. -1.
    9900012    2    1    2    0    0 -0.22362600929E+02 -0.33901252246E+02  0.19455463493E+01  0.50528856198E+02  0.29999988898E+02 0.  0.
         12    1    1    2    0    0  0.22362600929E+02  0.33901252246E+02 -0.19455463493E+01  0.40659143802E+02  0.00000000000E+00 0. -1.
         11    1    3    3    0    0  0.36465905388E+01 -0.29171784696E-01  0.42900020016E+01  0.56305053934E+01  0.51100000000E-03 0. -1.
        -11    1    3    3    0    0 -0.20627358960E+02 -0.16853343172E+02  0.13482092699E+01  0.26670972652E+02  0.51100000000E-03 0.  1.
         12    1    3    3    0    0 -0.53818325080E+01 -0.17018737289E+02 -0.36926649222E+01  0.18227378152E+02  0.00000000000E+00 0. -1.
</event>
<event>
 7    1  0.5748623E-013  0.5052885E+02  0.7816164E-02  0.1300439E+00
        -11   -1    0    0    0    0  0.00000000000E+00  0.00000000000E+00  0.45593999997E+02  0.45594000000E+02  0.51100000000E-03 0. -1.
         11   -1    0    0    0    0 -0.00000000000E+00 -0.00000000000E+00 -0.45593999997E+02  0.45594000000E+02  0.51100000000E-03 0.  1.
    9900012    2    1    2    0    0  0.22174356778E+02  0.29416699894E+02 -0.17208205110E+02  0.50528847841E+02  0.29999963498E+02 0.  0.
         12    1    1    2    0    0 -0.22174356778E+02 -0.29416699894E+02  0.17208205110E+02  0.40659152159E+02  0.00000000000E+00 0. -1.
         11    1    3    3    0    0  0.13970160773E+02  0.17158537483E+01 -0.51427356316E+00  0.14084531361E+02  0.51100000000E-03 0. -1.
        -11    1    3    3    0    0  0.11434782790E+02  0.26640874708E+02 -0.14748280174E+02  0.32526946229E+02  0.51100000000E-03 0.  1.
         12    1    3    3    0    0 -0.32305867841E+01  0.10599714374E+01 -0.19456513729E+01  0.39173702509E+01  0.00000000000E+00 0. -1.
</event>
<event>
 7    1  0.5748623E-013  0.5052885E+02  0.7816164E-02  0.1300439E+00
        -11   -1    0    0    0    0  0.00000000000E+00  0.00000000000E+00  0.45593999997E+02  0.45594000000E+02  0.51100000000E-03 0.  1.
         11   -1    0    0    0    0 -0.00000000000E+00 -0.00000000000E+00 -0.45593999997E+02  0.45594000000E+02  0.51100000000E-03 0. -1.
    9900012    2    1    2    0    0  0.12187939852E+01 -0.40420103565E+02  0.42303591632E+01  0.50528853801E+02  0.29999981613E+02 0.  0.
         12    1    1    2    0    0 -0.12187939852E+01  0.40420103565E+02 -0.42303591632E+01  0.40659146199E+02  0.00000000000E+00 0. -1.
         11    1    3    3    0    0 -0.57296013220E+01 -0.73570200505E+01  0.65991362806E+01  0.11423776750E+02  0.51100000000E-03 0. -1.
        -11    1    3    3    0    0  0.61840043176E+00 -0.31217619794E+02 -0.56650681921E+01  0.31733502842E+02  0.51100000000E-03 0.  1.
        -12    1    3    3    0    0  0.63299948754E+01 -0.18454637204E+01  0.32962910747E+01  0.73715742087E+01  0.00000000000E+00 0.  1.
</event>
<event>
 7    1  0.5748623E-013  0.5052885E+02  0.7816164E-02  0.1300439E+00
        -11   -1    0    0    0    0  0.00000000000E+00  0.00000000000E+00  0.45593999997E+02  0.45594000000E+02  0.51100000000E-03 0.  1.
         11   -1    0    0    0    0 -0.00000000000E+00 -0.00000000000E+00 -0.45593999997E+02  0.45594000000E+02  0.51100000000E-03 0. -1.
    9900012    2    1    2    0    0  0.37890701190E+02 -0.14737961730E+02  0.50386360824E+00  0.50528848125E+02  0.29999964362E+02 0.  0.
         12    1    1    2    0    0 -0.37890701190E+02  0.14737961730E+02 -0.50386360824E+00  0.40659151875E+02  0.00000000000E+00 0. -1.
         11    1    3    3    0    0 -0.15707049352E+01  0.12738722437E+01  0.13582980433E+01  0.24361523603E+01  0.51100000000E-03 0. -1.
        -11    1    3    3    0    0  0.32664996851E+02 -0.42053086831E+01  0.49132865740E+01  0.33299054425E+02  0.51100000000E-03 0.  1.
        -12    1    3    3    0    0  0.67964092742E+01 -0.11806525290E+02 -0.57677210090E+01  0.14793641340E+02  0.00000000000E+00 0.  1.
</event>
<event>
 7    1  0.5748623E-013  0.5052886E+02  0.7816164E-02  0.1300439E+00
        -11   -1    0    0    0    0  0.00000000000E+00  0.00000000000E+00  0.45593999997E+02  0.45594000000E+02  0.51100000000E-03 0.  1.
         11   -1    0    0    0    0 -0.00000000000E+00 -0.00000000000E+00 -0.45593999997E+02  0.45594000000E+02  0.51100000000E-03 0. -1.
    9900012    2    1    2    0    0  0.40169442785E+02 -0.61232586975E+01  0.14446766000E+01  0.50528861775E+02  0.30000005851E+02 0.  0.
         12    1    1    2    0    0 -0.40169442785E+02  0.61232586975E+01 -0.14446766000E+01  0.40659138225E+02  0.00000000000E+00 0. -1.
         11    1    3    3    0    0  0.36958016443E+02 -0.24262038789E+01  0.88207262582E+01  0.38073437678E+02  0.51100000000E-03 0. -1.
        -11    1    3    3    0    0  0.58594331267E+01 -0.38385284819E+01 -0.36977209013E+01  0.79208836375E+01  0.51100000000E-03 0.  1.
         12    1    3    3    0    0 -0.26480067849E+01  0.14147366339E+00 -0.36783287569E+01  0.45345404590E+01  0.00000000000E+00 0. -1.
</event>
<event>
 7    1  0.5748623E-013  0.5052886E+02  0.7816164E-02  0.1300439E+00
        -11   -1    0    0    0    0  0.00000000000E+00  0.00000000000E+00  0.45593999997E+02  0.45594000000E+02  0.51100000000E-03 0.  1.
         11   -1    0    0    0    0 -0.00000000000E+00 -0.00000000000E+00 -0.45593999997E+02  0.45594000000E+02  0.51100000000E-03 0. -1.
    9900012    2    1    2    0    0 -0.21683679816E+02  0.83424456910E+01 -0.33367456270E+02  0.50528861932E+02  0.30000006330E+02 0.  0.
         12    1    1    2    0    0  0.21683679816E+02 -0.83424456910E+01  0.33367456270E+02  0.40659138068E+02  0.00000000000E+00 0. -1.
         11    1    3    3    0    0  0.28309696797E+01 -0.35464284974E+01 -0.33590251829E+00  0.45502060588E+01  0.51100000000E-03 0. -1.
        -11    1    3    3    0    0 -0.56160281077E+01  0.10669995774E+02 -0.18609994509E+02  0.22174771192E+02  0.51100000000E-03 0.  1.
        -12    1    3    3    0    0 -0.18898621388E+02  0.12188784142E+01 -0.14421559243E+02  0.23803884682E+02  0.00000000000E+00 0.  1.
</event>
<event>
 7    1  0.5748623E-013  0.5052886E+02  0.7816164E-02  0.1300439E+00
        -11   -1    0    0    0    0  0.00000000000E+00  0.00000000000E+00  0.45593999997E+02  0.45594000000E+02  0.51100000000E-03 0.  1.
         11   -1    0    0    0    0 -0.00000000000E+00 -0.00000000000E+00 -0.45593999997E+02  0.45594000000E+02  0.51100000000E-03 0. -1.
    9900012    2    1    2    0    0 -0.26828424456E+01  0.24807989739E+02  0.32101889678E+02  0.50528864257E+02  0.30000013396E+02 0.  0.
         12    1    1    2    0    0  0.26828424456E+01 -0.24807989739E+02 -0.32101889678E+02  0.40659135743E+02  0.00000000000E+00 0. -1.
         11    1    3    3    0    0 -0.59330597871E+01 -0.29357724244E+01  0.16979294225E+02  0.18224060766E+02  0.51100000000E-03 0. -1.
        -11    1    3    3    0    0  0.12520177903E+01  0.25016500419E+02  0.12322086087E+02  0.27914631424E+02  0.51100000000E-03 0.  1.
         12    1    3    3    0    0  0.19981995513E+01  0.27272617446E+01  0.28005093657E+01  0.43901720670E+01  0.00000000000E+00 0. -1.
</event>
<event>
 7    1  0.5748623E-013  0.5052886E+02  0.7816164E-02  0.1300439E+00
        -11   -1    0    0    0    0  0.00000000000E+00  0.00000000000E+00  0.45593999997E+02  0.45594000000E+02  0.51100000000E-03 0.  1.
         11   -1    0    0    0    0 -0.00000000000E+00 -0.00000000000E+00 -0.45593999997E+02  0.45594000000E+02  0.51100000000E-03 0. -1.
    9900012    2    1    2    0    0 -0.67673846321E+01 -0.52497624416E+01  0.39746797764E+02  0.50528862860E+02  0.30000009149E+02 0.  0.
         12    1    1    2    0    0  0.67673846321E+01  0.52497624416E+01 -0.39746797764E+02  0.40659137140E+02  0.00000000000E+00 0. -1.
         11    1    3    3    0    0  0.65179555416E+01  0.30657940580E+01  0.25713011686E+01  0.76481649831E+01  0.51100000000E-03 0. -1.
        -11    1    3    3    0    0 -0.40118199937E+01 -0.10735823324E+02  0.16477070535E+02  0.20071035244E+02  0.51100000000E-03 0.  1.
         12    1    3    3    0    0 -0.92735201800E+01  0.24202668240E+01  0.20698426061E+02  0.22809662633E+02  0.00000000000E+00 0. -1.
</event>
<event>
 7    1  0.5748623E-013  0.5052886E+02  0.7816164E-02  0.1300439E+00
        -11   -1    0    0    0    0  0.00000000000E+00  0.00000000000E+00  0.45593999997E+02  0.45594000000E+02  0.51100000000E-03 0.  1.
         11   -1    0    0    0    0 -0.00000000000E+00 -0.00000000000E+00 -0.45593999997E+02  0.45594000000E+02  0.51100000000E-03 0. -1.
    9900012    2    1    2    0    0  0.17436340800E+02 -0.18798586292E+02  0.31555549331E+02  0.50528861782E+02  0.30000005873E+02 0.  0.
         12    1    1    2    0    0 -0.17436340800E+02  0.18798586292E+02 -0.31555549331E+02  0.40659138218E+02  0.00000000000E+00 0. -1.
         11    1    3    3    0    0  0.43838045511E+00  0.54984479013E+00 -0.41333585249E+01  0.41927508479E+01  0.51100000000E-03 0. -1.
        -11    1    3    3    0    0  0.14521575332E+02 -0.13356069290E+02  0.34501538132E+02  0.39744394205E+02  0.51100000000E-03 0.  1.
         12    1    3    3    0    0  0.24763850127E+01 -0.59923617921E+01  0.11873697235E+01  0.65917167293E+01  0.00000000000E+00 0. -1.
</event>
<event>
 7    1  0.5748623E-013  0.5052886E+02  0.7816164E-02  0.1300439E+00
        -11   -1    0    0    0    0  0.00000000000E+00  0.00000000000E+00  0.45593999997E+02  0.45594000000E+02  0.51100000000E-03 0.  1.
         11   -1    0    0    0    0 -0.00000000000E+00 -0.00000000000E+00 -0.45593999997E+02  0.45594000000E+02  0.51100000000E-03 0. -1.
    9900012    2    1    2    0    0 -0.34568169996E+02 -0.68365054047E+01  0.20284703122E+02  0.50528863711E+02  0.30000011737E+02 0.  0.
         12    1    1    2    0    0  0.34568169996E+02  0.68365054047E+01 -0.20284703122E+02  0.40659136289E+02  0.00000000000E+00 0. -1.
         11    1    3    3    0    0 -0.32472041297E+02  0.26010766612E+01  0.18514123088E+02  0.37469611951E+02  0.51100000000E-03 0. -1.
        -11    1    3    3    0    0 -0.17703578146E+01  0.12195745534E+01 -0.37808715248E+00  0.21827686636E+01  0.51100000000E-03 0.  1.
         12    1    3    3    0    0 -0.32577088445E+00 -0.10657156619E+02  0.21486671858E+01  0.10876483097E+02  0.00000000000E+00 0. -1.
</event>
<event>
 7    1  0.5748623E-013  0.5052886E+02  0.7816164E-02  0.1300439E+00
        -11   -1    0    0    0    0  0.00000000000E+00  0.00000000000E+00  0.45593999997E+02  0.45594000000E+02  0.51100000000E-03 0. -1.
         11   -1    0    0    0    0 -0.00000000000E+00 -0.00000000000E+00 -0.45593999997E+02  0.45594000000E+02  0.51100000000E-03 0.  1.
    9900012    2    1    2    0    0  0.52575845922E+01 -0.70890761639E+01 -0.39689651804E+02  0.50528860106E+02  0.30000000777E+02 0.  0.
         12    1    1    2    0    0 -0.52575845922E+01  0.70890761639E+01  0.39689651804E+02  0.40659139894E+02  0.00000000000E+00 0. -1.
         11    1    3    3    0    0 -0.37813049748E+01  0.48322837750E+01 -0.15343170277E+01  0.63248211672E+01  0.51100000000E-03 0. -1.
        -11    1    3    3    0    0  0.52676362621E+01 -0.77788339720E+01 -0.37387342419E+02  0.38549599520E+02  0.51100000000E-03 0.  1.
        -12    1    3    3    0    0  0.37712533049E+01 -0.41425259669E+01 -0.76799235793E+00  0.56544394185E+01  0.00000000000E+00 0.  1.
</event>
<event>
 7    1  0.5748623E-013  0.5052896E+02  0.7816164E-02  0.1300438E+00
        -11   -1    0    0    0    0  0.00000000000E+00  0.00000000000E+00  0.45593999997E+02  0.45594000000E+02  0.51100000000E-03 0.  1.
         11   -1    0    0    0    0 -0.00000000000E+00 -0.00000000000E+00 -0.45593999997E+02  0.45594000000E+02  0.51100000000E-03 0. -1.
    9900012    2    1    2    0    0  0.36925381668E+02  0.62706153716E+01  0.15822551780E+02  0.50528959513E+02  0.30000302936E+02 0.  0.
         12    1    1    2    0    0 -0.36925381668E+02 -0.62706153716E+01 -0.15822551780E+02  0.40659040487E+02  0.00000000000E+00 0. -1.
         11    1    3    3    0    0  0.26853071004E+01 -0.30095597153E+01 -0.55421639273E+01  0.68544806632E+01  0.51100000000E-03 0. -1.
        -11    1    3    3    0    0  0.13243705062E+02  0.86287420606E+01  0.37145314408E+01  0.16237261388E+02  0.51100000000E-03 0.  1.
         12    1    3    3    0    0  0.20996369506E+02  0.65143302639E+00  0.17650184266E+02  0.27437217462E+02  0.00000000000E+00 0. -1.
</event>
<event>
 7    1  0.5748623E-013  0.5052885E+02  0.7816164E-02  0.1300439E+00
        -11   -1    0    0    0    0  0.00000000000E+00  0.00000000000E+00  0.45593999997E+02  0.45594000000E+02  0.51100000000E-03 0. -1.
         11   -1    0    0    0    0 -0.00000000000E+00 -0.00000000000E+00 -0.45593999997E+02  0.45594000000E+02  0.51100000000E-03 0.  1.
    9900012    2    1    2    0    0 -0.19887376803E+02  0.35126268474E+02 -0.48789526204E+01  0.50528847627E+02  0.29999962846E+02 0.  0.
         12    1    1    2    0    0  0.19887376803E+02 -0.35126268474E+02  0.48789526204E+01  0.40659152373E+02  0.00000000000E+00 0. -1.
         11    1    3    3    0    0 -0.15059434738E+02  0.20734686269E+02 -0.60106403834E+01  0.26321884191E+02  0.51100000000E-03 0.  1.
        -11    1    3    3    0    0 -0.23644936430E+01  0.45232918771E+01  0.96652624822E+01  0.10930155475E+02  0.51100000000E-03 0. -1.
         12    1    3    3    0    0 -0.24634484219E+01  0.98682903287E+01 -0.85335747192E+01  0.13276807961E+02  0.00000000000E+00 0. -1.
</event>
<event>
 7    1  0.5748623E-013  0.5052881E+02  0.7816164E-02  0.1300439E+00
        -11   -1    0    0    0    0  0.00000000000E+00  0.00000000000E+00  0.45593999997E+02  0.45594000000E+02  0.51100000000E-03 0.  1.
         11   -1    0    0    0    0 -0.00000000000E+00 -0.00000000000E+00 -0.45593999997E+02  0.45594000000E+02  0.51100000000E-03 0. -1.
    9900012    2    1    2    0    0 -0.78715853354E+01 -0.36320172597E+01  0.39724252715E+02  0.50528810893E+02  0.29999851191E+02 0.  0.
         12    1    1    2    0    0  0.78715853354E+01  0.36320172597E+01 -0.39724252715E+02  0.40659189107E+02  0.00000000000E+00 0. -1.
         11    1    3    3    0    0 -0.16701272770E+02 -0.93344381179E+01  0.26614429925E+02  0.32777921344E+02  0.51100000000E-03 0. -1.
        -11    1    3    3    0    0  0.55966471857E+01  0.32916067214E+00  0.51059489167E+01  0.75829757398E+01  0.51100000000E-03 0.  1.
         12    1    3    3    0    0  0.32330402487E+01  0.53732601860E+01  0.80038738727E+01  0.10167913810E+02  0.00000000000E+00 0. -1.
</event>
<event>
 7    1  0.5748623E-013  0.5052886E+02  0.7816164E-02  0.1300439E+00
        -11   -1    0    0    0    0  0.00000000000E+00  0.00000000000E+00  0.45593999997E+02  0.45594000000E+02  0.51100000000E-03 0. -1.
         11   -1    0    0    0    0 -0.00000000000E+00 -0.00000000000E+00 -0.45593999997E+02  0.45594000000E+02  0.51100000000E-03 0.  1.
    9900012    2    1    2    0    0 -0.86648452302E+01  0.39080048110E+02  0.71299476097E+01  0.50528857657E+02  0.29999993334E+02 0.  0.
         12    1    1    2    0    0  0.86648452302E+01 -0.39080048110E+02 -0.71299476097E+01  0.40659142343E+02  0.00000000000E+00 0. -1.
         11    1    3    3    0    0 -0.15023343981E+02  0.17962291313E+02 -0.28399742189E+01  0.23588349400E+02  0.51100000000E-03 0. -1.
        -11    1    3    3    0    0  0.51202569691E+01  0.14509221841E+01  0.20782657090E+01  0.57132648488E+01  0.51100000000E-03 0.  1.
         12    1    3    3    0    0  0.12382417820E+01  0.19666834613E+02  0.78916561196E+01  0.21227243408E+02  0.00000000000E+00 0. -1.
</event>
<event>
 7    1  0.5748623E-013  0.5052895E+02  0.7816164E-02  0.1300438E+00
        -11   -1    0    0    0    0  0.00000000000E+00  0.00000000000E+00  0.45593999997E+02  0.45594000000E+02  0.51100000000E-03 0.  1.
         11   -1    0    0    0    0 -0.00000000000E+00 -0.00000000000E+00 -0.45593999997E+02  0.45594000000E+02  0.51100000000E-03 0. -1.
    9900012    2    1    2    0    0 -0.22281018769E+02  0.13709508234E+02  0.31124977125E+02  0.50528946710E+02  0.30000264019E+02 0.  0.
         12    1    1    2    0    0  0.22281018769E+02 -0.13709508234E+02 -0.31124977125E+02  0.40659053290E+02  0.00000000000E+00 0. -1.
         11    1    3    3    0    0 -0.10261234705E+02 -0.18108552999E+01  0.23431359218E+02  0.25643726906E+02  0.51100000000E-03 0. -1.
        -11    1    3    3    0    0 -0.13262443436E+02  0.13805685290E+02  0.25377098771E+01  0.19311378094E+02  0.51100000000E-03 0.  1.
        -12    1    3    3    0    0  0.12426593714E+01  0.17146782442E+01  0.51559080300E+01  0.55738417100E+01  0.00000000000E+00 0.  1.
</event>
<event>
 7    1  0.5748623E-013  0.5052883E+02  0.7816164E-02  0.1300439E+00
        -11   -1    0    0    0    0  0.00000000000E+00  0.00000000000E+00  0.45593999997E+02  0.45594000000E+02  0.51100000000E-03 0.  1.
         11   -1    0    0    0    0 -0.00000000000E+00 -0.00000000000E+00 -0.45593999997E+02  0.45594000000E+02  0.51100000000E-03 0. -1.
    9900012    2    1    2    0    0  0.10364888752E+00  0.49232671888E+01  0.40359869920E+02  0.50528826338E+02  0.29999898137E+02 0.  0.
         12    1    1    2    0    0 -0.10364888752E+00 -0.49232671888E+01 -0.40359869920E+02  0.40659173662E+02  0.00000000000E+00 0. -1.
         11    1    3    3    0    0 -0.52740683868E+01 -0.91812245684E+01  0.10239019814E+02  0.14729161855E+02  0.51100000000E-03 0. -1.
        -11    1    3    3    0    0  0.35658100636E+01  0.10523423780E+02  0.29764179990E+02  0.31770487251E+02  0.51100000000E-03 0.  1.
         12    1    3    3    0    0  0.18119072107E+01  0.35810679768E+01  0.35667011611E+00  0.40291772319E+01  0.00000000000E+00 0. -1.
</event>
<event>
 7    1  0.5748623E-013  0.5052886E+02  0.7816164E-02  0.1300439E+00
        -11   -1    0    0    0    0  0.00000000000E+00  0.00000000000E+00  0.45593999997E+02  0.45594000000E+02  0.51100000000E-03 0.  1.
         11   -1    0    0    0    0 -0.00000000000E+00 -0.00000000000E+00 -0.45593999997E+02  0.45594000000E+02  0.51100000000E-03 0. -1.
    9900012    2    1    2    0    0 -0.49155830277E+01 -0.25385373466E+01  0.40280995156E+02  0.50528859587E+02  0.29999999201E+02 0.  0.
         12    1    1    2    0    0  0.49155830277E+01  0.25385373466E+01 -0.40280995156E+02  0.40659140413E+02  0.00000000000E+00 0. -1.
         11    1    3    3    0    0  0.12146943406E+01  0.26643209766E+01  0.37317096090E+01  0.47433896609E+01  0.51100000000E-03 0. -1.
        -11    1    3    3    0    0  0.64331590963E+01 -0.93112773263E+01  0.27579299407E+02  0.29811125062E+02  0.51100000000E-03 0.  1.
        -12    1    3    3    0    0 -0.12563436465E+02  0.41084190031E+01  0.89699861402E+01  0.15974344865E+02  0.00000000000E+00 0.  1.
</event>
<event>
 7    1  0.5748623E-013  0.5052887E+02  0.7816164E-02  0.1300439E+00
        -11   -1    0    0    0    0  0.00000000000E+00  0.00000000000E+00  0.45593999997E+02  0.45594000000E+02  0.51100000000E-03 0.  1.
         11   -1    0    0    0    0 -0.00000000000E+00 -0.00000000000E+00 -0.45593999997E+02  0.45594000000E+02  0.51100000000E-03 0. -1.
    9900012    2    1    2    0    0  0.15460766370E+02 -0.13284288762E+02  0.35180348820E+02  0.50528873500E+02  0.30000041491E+02 0.  0.
         12    1    1    2    0    0 -0.15460766370E+02  0.13284288762E+02 -0.35180348820E+02  0.40659126500E+02  0.00000000000E+00 0. -1.
         11    1    3    3    0    0  0.18886526221E+02 -0.12422275627E+02  0.30912647009E+02  0.38296286371E+02  0.51100000000E-03 0. -1.
        -11    1    3    3    0    0 -0.70413703623E+01 -0.25242893843E+01  0.29464054235E+01  0.80395421919E+01  0.51100000000E-03 0.  1.
         12    1    3    3    0    0  0.36156105120E+01  0.16622762498E+01  0.13212963871E+01  0.41930449375E+01  0.00000000000E+00 0. -1.
</event>
<event>
 7    1  0.5748623E-013  0.5052886E+02  0.7816164E-02  0.1300439E+00
        -11   -1    0    0    0    0  0.00000000000E+00  0.00000000000E+00  0.45593999997E+02  0.45594000000E+02  0.51100000000E-03 0.  1.
         11   -1    0    0    0    0 -0.00000000000E+00 -0.00000000000E+00 -0.45593999997E+02  0.45594000000E+02  0.51100000000E-03 0. -1.
    9900012    2    1    2    0    0  0.39632129631E+01  0.97474467360E+01  0.39273985932E+02  0.50528859012E+02  0.29999997454E+02 0.  0.
         12    1    1    2    0    0 -0.39632129631E+01 -0.97474467360E+01 -0.39273985932E+02  0.40659140988E+02  0.00000000000E+00 0. -1.
         11    1    3    3    0    0 -0.71463514939E+00 -0.98072862034E+01  0.16481839550E+02  0.19192305784E+02  0.51100000000E-03 0. -1.
        -11    1    3    3    0    0  0.66840709485E+01  0.14024222338E+02  0.17748319932E+02  0.23587252432E+02  0.51100000000E-03 0.  1.
        -12    1    3    3    0    0 -0.20062228360E+01  0.55305106017E+01  0.50438264500E+01  0.77493007969E+01  0.00000000000E+00 0.  1.
</event>
<event>
 7    1  0.5748623E-013  0.5052885E+02  0.7816164E-02  0.1300439E+00
        -11   -1    0    0    0    0  0.00000000000E+00  0.00000000000E+00  0.45593999997E+02  0.45594000000E+02  0.51100000000E-03 0.  1.
         11   -1    0    0    0    0 -0.00000000000E+00 -0.00000000000E+00 -0.45593999997E+02  0.45594000000E+02  0.51100000000E-03 0. -1.
    9900012    2    1    2    0    0  0.57096260582E+01  0.26879871738E+02  0.29967303594E+02  0.50528848274E+02  0.29999964815E+02 0.  0.
         12    1    1    2    0    0 -0.57096260582E+01 -0.26879871738E+02 -0.29967303594E+02  0.40659151726E+02  0.00000000000E+00 0. -1.
         11    1    3    3    0    0 -0.12464041405E+01 -0.61969005745E+00  0.20082570409E+01  0.24434884187E+01  0.51100000000E-03 0. -1.
        -11    1    3    3    0    0  0.11248861766E+02  0.29670721554E+02  0.16735537033E+02  0.35874319625E+02  0.51100000000E-03 0.  1.
        -12    1    3    3    0    0 -0.42928315673E+01 -0.21711597584E+01  0.11223509520E+02  0.12211040230E+02  0.00000000000E+00 0.  1.
</event>
<event>
 7    1  0.5748623E-013  0.5052886E+02  0.7816164E-02  0.1300439E+00
        -11   -1    0    0    0    0  0.00000000000E+00  0.00000000000E+00  0.45593999997E+02  0.45594000000E+02  0.51100000000E-03 0.  1.
         11   -1    0    0    0    0 -0.00000000000E+00 -0.00000000000E+00 -0.45593999997E+02  0.45594000000E+02  0.51100000000E-03 0. -1.
    9900012    2    1    2    0    0 -0.22775938146E+02 -0.32962565211E+02  0.69203862940E+01  0.50528858221E+02  0.29999995049E+02 0.  0.
         12    1    1    2    0    0  0.22775938146E+02  0.32962565211E+02 -0.69203862940E+01  0.40659141779E+02  0.00000000000E+00 0. -1.
         11    1    3    3    0    0  0.53827372610E+01 -0.39041657825E+01  0.46599635425E+01  0.81198295152E+01  0.51100000000E-03 0. -1.
        -11    1    3    3    0    0 -0.21400097291E+02 -0.16512902601E+02  0.59745712711E+01  0.27682767537E+02  0.51100000000E-03 0.  1.
        -12    1    3    3    0    0 -0.67585781167E+01 -0.12545496827E+02 -0.37141485195E+01  0.14726261169E+02  0.00000000000E+00 0.  1.
</event>
<event>
 7    1  0.5748623E-013  0.5052886E+02  0.7816164E-02  0.1300439E+00
        -11   -1    0    0    0    0  0.00000000000E+00  0.00000000000E+00  0.45593999997E+02  0.45594000000E+02  0.51100000000E-03 0. -1.
         11   -1    0    0    0    0 -0.00000000000E+00 -0.00000000000E+00 -0.45593999997E+02  0.45594000000E+02  0.51100000000E-03 0.  1.
    9900012    2    1    2    0    0  0.33325390327E+02  0.20392877525E+02  0.11256765549E+02  0.50528857549E+02  0.29999993006E+02 0.  0.
         12    1    1    2    0    0 -0.33325390327E+02 -0.20392877525E+02 -0.11256765549E+02  0.40659142451E+02  0.00000000000E+00 0. -1.
         11    1    3    3    0    0  0.29861182614E+01 -0.29583973139E+01  0.98662536532E+01  0.10724363774E+02  0.51100000000E-03 0. -1.
        -11    1    3    3    0    0  0.23188630251E+02  0.17088862788E+02  0.57068803268E+01  0.29365120256E+02  0.51100000000E-03 0.  1.
         12    1    3    3    0    0  0.71506418148E+01  0.62624120507E+01 -0.43163684306E+01  0.10439373520E+02  0.00000000000E+00 0. -1.
</event>
<event>
 7    1  0.5748623E-013  0.5052887E+02  0.7816164E-02  0.1300439E+00
        -11   -1    0    0    0    0  0.00000000000E+00  0.00000000000E+00  0.45593999997E+02  0.45594000000E+02  0.51100000000E-03 0. -1.
         11   -1    0    0    0    0 -0.00000000000E+00 -0.00000000000E+00 -0.45593999997E+02  0.45594000000E+02  0.51100000000E-03 0.  1.
    9900012    2    1    2    0    0  0.27304474606E+02  0.86252462508E+01 -0.28865827992E+02  0.50528865330E+02  0.30000016657E+02 0.  0.
         12    1    1    2    0    0 -0.27304474606E+02 -0.86252462508E+01  0.28865827992E+02  0.40659134670E+02  0.00000000000E+00 0. -1.
         11    1    3    3    0    0  0.21625373389E+02  0.22638492545E+01 -0.45484765006E+01  0.22214194255E+02  0.51100000000E-03 0. -1.
        -11    1    3    3    0    0  0.61735623521E+01 -0.12366247864E+01 -0.15094032302E+02  0.16354568914E+02  0.51100000000E-03 0.  1.
         12    1    3    3    0    0 -0.49446113460E+00  0.75980217827E+01 -0.92233191898E+01  0.11960102161E+02  0.00000000000E+00 0. -1.
</event>
<event>
 7    1  0.5748623E-013  0.5052885E+02  0.7816164E-02  0.1300439E+00
        -11   -1    0    0    0    0  0.00000000000E+00  0.00000000000E+00  0.45593999997E+02  0.45594000000E+02  0.51100000000E-03 0. -1.
         11   -1    0    0    0    0 -0.00000000000E+00 -0.00000000000E+00 -0.45593999997E+02  0.45594000000E+02  0.51100000000E-03 0.  1.
    9900012    2    1    2    0    0 -0.27174816452E+02 -0.18279252491E+02 -0.24094913041E+02  0.50528849059E+02  0.29999967198E+02 0.  0.
         12    1    1    2    0    0  0.27174816452E+02  0.18279252491E+02  0.24094913041E+02  0.40659150941E+02  0.00000000000E+00 0. -1.
         11    1    3    3    0    0 -0.46219709862E+01 -0.89634418960E+01 -0.13025552223E+02  0.16473339594E+02  0.51100000000E-03 0. -1.
        -11    1    3    3    0    0 -0.23748264116E+01 -0.55913609965E+00  0.58281518593E+01  0.63182108242E+01  0.51100000000E-03 0.  1.
        -12    1    3    3    0    0 -0.20178019054E+02 -0.87566744955E+01 -0.16897512677E+02  0.27737298640E+02  0.00000000000E+00 0.  1.
</event>
<event>
 7    1  0.5748623E-013  0.5052887E+02  0.7816164E-02  0.1300439E+00
        -11   -1    0    0    0    0  0.00000000000E+00  0.00000000000E+00  0.45593999997E+02  0.45594000000E+02  0.51100000000E-03 0. -1.
         11   -1    0    0    0    0 -0.00000000000E+00 -0.00000000000E+00 -0.45593999997E+02  0.45594000000E+02  0.51100000000E-03 0.  1.
    9900012    2    1    2    0    0 -0.33290719619E+02  0.21363225762E+02 -0.94077258271E+01  0.50528871469E+02  0.30000035316E+02 0.  0.
         12    1    1    2    0    0  0.33290719619E+02 -0.21363225762E+02  0.94077258271E+01  0.40659128531E+02  0.00000000000E+00 0. -1.
         11    1    3    3    0    0 -0.18660864430E+02  0.24462491339E+02  0.27179352676E+01  0.30887352041E+02  0.51100000000E-03 0. -1.
        -11    1    3    3    0    0 -0.77145695136E+01 -0.88174800921E+00 -0.39687472338E+01  0.87202647436E+01  0.51100000000E-03 0.  1.
         12    1    3    3    0    0 -0.69152856752E+01 -0.22175175672E+01 -0.81569138609E+01  0.10921254684E+02  0.00000000000E+00 0. -1.
</event>
<event>
 7    1  0.5748623E-013  0.5052887E+02  0.7816164E-02  0.1300439E+00
        -11   -1    0    0    0    0  0.00000000000E+00  0.00000000000E+00  0.45593999997E+02  0.45594000000E+02  0.51100000000E-03 0.  1.
         11   -1    0    0    0    0 -0.00000000000E+00 -0.00000000000E+00 -0.45593999997E+02  0.45594000000E+02  0.51100000000E-03 0. -1.
    9900012    2    1    2    0    0  0.31732596708E+02 -0.17714914398E+02  0.18231528654E+02  0.50528874050E+02  0.30000043161E+02 0.  0.
         12    1    1    2    0    0 -0.31732596708E+02  0.17714914398E+02 -0.18231528654E+02  0.40659125950E+02  0.00000000000E+00 0. -1.
         11    1    3    3    0    0 -0.77246131639E+00  0.20920980789E+01 -0.28908731249E+01  0.36511256541E+01  0.51100000000E-03 0. -1.
        -11    1    3    3    0    0  0.26059438496E+02 -0.16677271997E+02  0.80480393299E+01  0.31968682696E+02  0.51100000000E-03 0.  1.
        -12    1    3    3    0    0  0.64456195284E+01 -0.31297404794E+01  0.13074362449E+02  0.14909065699E+02  0.00000000000E+00 0.  1.
</event>
<event>
 7    1  0.5748623E-013  0.5052885E+02  0.7816164E-02  0.1300439E+00
        -11   -1    0    0    0    0  0.00000000000E+00  0.00000000000E+00  0.45593999997E+02  0.45594000000E+02  0.51100000000E-03 0. -1.
         11   -1    0    0    0    0 -0.00000000000E+00 -0.00000000000E+00 -0.45593999997E+02  0.45594000000E+02  0.51100000000E-03 0.  1.
    9900012    2    1    2    0    0 -0.70613143031E+01  0.27192083721E+02 -0.29392084476E+02  0.50528853346E+02  0.29999980231E+02 0.  0.
         12    1    1    2    0    0  0.70613143031E+01 -0.27192083721E+02  0.29392084476E+02  0.40659146654E+02  0.00000000000E+00 0. -1.
         11    1    3    3    0    0 -0.11937560426E+02  0.64483086480E+01 -0.35616924352E+01  0.14027533162E+02  0.51100000000E-03 0. -1.
        -11    1    3    3    0    0  0.10095573949E+02  0.13308054453E+02 -0.16921115701E+02  0.23777070541E+02  0.51100000000E-03 0.  1.
        -12    1    3    3    0    0 -0.52193278262E+01  0.74357206201E+01 -0.89092763391E+01  0.12724249643E+02  0.00000000000E+00 0.  1.
</event>
<event>
 7    1  0.5748623E-013  0.5052887E+02  0.7816164E-02  0.1300439E+00
        -11   -1    0    0    0    0  0.00000000000E+00  0.00000000000E+00  0.45593999997E+02  0.45594000000E+02  0.51100000000E-03 0.  1.
         11   -1    0    0    0    0 -0.00000000000E+00 -0.00000000000E+00 -0.45593999997E+02  0.45594000000E+02  0.51100000000E-03 0. -1.
    9900012    2    1    2    0    0 -0.16520630338E+02 -0.20904940049E+02  0.30711844461E+02  0.50528866519E+02  0.30000020272E+02 0.  0.
         12    1    1    2    0    0  0.16520630338E+02  0.20904940049E+02 -0.30711844461E+02  0.40659133481E+02  0.00000000000E+00 0. -1.
         11    1    3    3    0    0 -0.59918859227E+01  0.49461008666E+01  0.31660284705E+01  0.83898955434E+01  0.51100000000E-03 0. -1.
        -11    1    3    3    0    0 -0.12572638025E+02 -0.26649725865E+02  0.26771503929E+02  0.39811964765E+02  0.51100000000E-03 0.  1.
        -12    1    3    3    0    0  0.20438936103E+01  0.79868494886E+00  0.77431206188E+00  0.23270062112E+01  0.00000000000E+00 0.  1.
</event>
<event>
 7    1  0.5748623E-013  0.5052886E+02  0.7816164E-02  0.1300439E+00
        -11   -1    0    0    0    0  0.00000000000E+00  0.00000000000E+00  0.45593999997E+02  0.45594000000E+02  0.51100000000E-03 0. -1.
         11   -1    0    0    0    0 -0.00000000000E+00 -0.00000000000E+00 -0.45593999997E+02  0.45594000000E+02  0.51100000000E-03 0.  1.
    9900012    2    1    2    0    0  0.39398122420E+02  0.73799106709E+01  0.68183898196E+01  0.50528861156E+02  0.30000003971E+02 0.  0.
         12    1    1    2    0    0 -0.39398122420E+02 -0.73799106709E+01 -0.68183898196E+01  0.40659138844E+02  0.00000000000E+00 0. -1.
         11    1    3    3    0    0  0.13461592921E+02 -0.31500060153E+01 -0.91806484328E+01  0.16595822600E+02  0.51100000000E-03 0. -1.
        -11    1    3    3    0    0  0.16265213772E+02  0.10422672211E+01  0.75140562952E+01  0.17947271165E+02  0.51100000000E-03 0.  1.
         12    1    3    3    0    0  0.96713157275E+01  0.94876494650E+01  0.84849819571E+01  0.15985767391E+02  0.00000000000E+00 0. -1.
</event>
<event>
 7    1  0.5748623E-013  0.5052887E+02  0.7816164E-02  0.1300439E+00
        -11   -1    0    0    0    0  0.00000000000E+00  0.00000000000E+00  0.45593999997E+02  0.45594000000E+02  0.51100000000E-03 0.  1.
         11   -1    0    0    0    0 -0.00000000000E+00 -0.00000000000E+00 -0.45593999997E+02  0.45594000000E+02  0.51100000000E-03 0. -1.
    9900012    2    1    2    0    0 -0.43167555701E+01 -0.83967524562E+01  0.39547755753E+02  0.50528870453E+02  0.30000032229E+02 0.  0.
         12    1    1    2    0    0  0.43167555701E+01  0.83967524562E+01 -0.39547755753E+02  0.40659129547E+02  0.00000000000E+00 0. -1.
         11    1    3    3    0    0  0.66836436174E+01  0.59578751534E+01  0.19611469808E+02  0.21558690049E+02  0.51100000000E-03 0. -1.
        -11    1    3    3    0    0 -0.10430810210E+02 -0.94275919519E+01  0.19431552998E+02  0.23984714796E+02  0.51100000000E-03 0.  1.
         12    1    3    3    0    0 -0.56958897732E+00 -0.49270356578E+01  0.50473294584E+00  0.49854656074E+01  0.00000000000E+00 0. -1.
</event>
<event>
 7    1  0.5748623E-013  0.5052886E+02  0.7816164E-02  0.1300439E+00
        -11   -1    0    0    0    0  0.00000000000E+00  0.00000000000E+00  0.45593999997E+02  0.45594000000E+02  0.51100000000E-03 0. -1.
         11   -1    0    0    0    0 -0.00000000000E+00 -0.00000000000E+00 -0.45593999997E+02  0.45594000000E+02  0.51100000000E-03 0.  1.
    9900012    2    1    2    0    0 -0.22530091500E+02 -0.29760236892E+02 -0.16121068767E+02  0.50528861039E+02  0.30000003614E+02 0.  0.
         12    1    1    2    0    0  0.22530091500E+02  0.29760236892E+02  0.16121068767E+02  0.40659138961E+02  0.00000000000E+00 0. -1.
         11    1    3    3    0    0 -0.10908194095E+02  0.27842499494E+01 -0.39621750364E+01  0.11934805297E+02  0.51100000000E-03 0. -1.
        -11    1    3    3    0    0 -0.12916216234E+02 -0.27432059260E+02 -0.13441571386E+02  0.33166584971E+02  0.51100000000E-03 0.  1.
         12    1    3    3    0    0  0.12943188291E+01 -0.51124275810E+01  0.12826776553E+01  0.54274707710E+01  0.00000000000E+00 0. -1.
</event>
<event>
 7    1  0.5748623E-013  0.5052885E+02  0.7816164E-02  0.1300439E+00
        -11   -1    0    0    0    0  0.00000000000E+00  0.00000000000E+00  0.45593999997E+02  0.45594000000E+02  0.51100000000E-03 0.  1.
         11   -1    0    0    0    0 -0.00000000000E+00 -0.00000000000E+00 -0.45593999997E+02  0.45594000000E+02  0.51100000000E-03 0. -1.
    9900012    2    1    2    0    0 -0.15243449744E+02  0.11533785107E+02  0.35885585213E+02  0.50528853611E+02  0.29999981036E+02 0.  0.
         12    1    1    2    0    0  0.15243449744E+02 -0.11533785107E+02 -0.35885585213E+02  0.40659146389E+02  0.00000000000E+00 0. -1.
         11    1    3    3    0    0 -0.15824401091E+02  0.12357710626E+01  0.31642789589E+01  0.16184914630E+02  0.51100000000E-03 0. -1.
        -11    1    3    3    0    0 -0.34791821137E+00  0.51595827824E+01  0.14802617249E+02  0.15679917705E+02  0.51100000000E-03 0.  1.
         12    1    3    3    0    0  0.92886955832E+00  0.51384312617E+01  0.17918689006E+02  0.18664021276E+02  0.00000000000E+00 0. -1.
</event>
<event>
 7    1  0.5748623E-013  0.5052886E+02  0.7816164E-02  0.1300439E+00
        -11   -1    0    0    0    0  0.00000000000E+00  0.00000000000E+00  0.45593999997E+02  0.45594000000E+02  0.51100000000E-03 0.  1.
         11   -1    0    0    0    0 -0.00000000000E+00 -0.00000000000E+00 -0.45593999997E+02  0.45594000000E+02  0.51100000000E-03 0. -1.
    9900012    2    1    2    0    0  0.37704487197E+01  0.38665542963E+02 -0.11996873734E+02  0.50528862336E+02  0.30000007556E+02 0.  0.
         12    1    1    2    0    0 -0.37704487197E+01 -0.38665542963E+02  0.11996873734E+02  0.40659137664E+02  0.00000000000E+00 0. -1.
         11    1    3    3    0    0  0.27291189757E+01  0.36629387607E+02 -0.41730140920E+01  0.36967204029E+02  0.51100000000E-03 0. -1.
        -11    1    3    3    0    0 -0.32188431441E+01  0.36405368880E+00  0.11912079790E+01  0.34514436089E+01  0.51100000000E-03 0.  1.
         12    1    3    3    0    0  0.42601728881E+01  0.16721016674E+01 -0.90150676213E+01  0.10110214698E+02  0.00000000000E+00 0. -1.
</event>
<event>
 7    1  0.5748623E-013  0.5052886E+02  0.7816164E-02  0.1300439E+00
        -11   -1    0    0    0    0  0.00000000000E+00  0.00000000000E+00  0.45593999997E+02  0.45594000000E+02  0.51100000000E-03 0.  1.
         11   -1    0    0    0    0 -0.00000000000E+00 -0.00000000000E+00 -0.45593999997E+02  0.45594000000E+02  0.51100000000E-03 0. -1.
    9900012    2    1    2    0    0 -0.96328155059E+01  0.26087836893E+02  0.29661406782E+02  0.50528863012E+02  0.30000009612E+02 0.  0.
         12    1    1    2    0    0  0.96328155059E+01 -0.26087836893E+02 -0.29661406782E+02  0.40659136988E+02  0.00000000000E+00 0. -1.
         11    1    3    3    0    0  0.20246573352E+01  0.90403830243E+01  0.89662384910E+00  0.93076150081E+01  0.51100000000E-03 0. -1.
        -11    1    3    3    0    0 -0.60430616557E+01  0.12484630170E+02  0.30737782518E+02  0.33722334721E+02  0.51100000000E-03 0.  1.
        -12    1    3    3    0    0 -0.56144111855E+01  0.45628236987E+01 -0.19729995853E+01  0.74989132832E+01  0.00000000000E+00 0.  1.
</event>
<event>
 7    1  0.5748623E-013  0.5052886E+02  0.7816164E-02  0.1300439E+00
        -11   -1    0    0    0    0  0.00000000000E+00  0.00000000000E+00  0.45593999997E+02  0.45594000000E+02  0.51100000000E-03 0.  1.
         11   -1    0    0    0    0 -0.00000000000E+00 -0.00000000000E+00 -0.45593999997E+02  0.45594000000E+02  0.51100000000E-03 0. -1.
    9900012    2    1    2    0    0  0.13430024306E+01 -0.88965612774E+00  0.40627209212E+02  0.50528864840E+02  0.30000015168E+02 0.  0.
         12    1    1    2    0    0 -0.13430024306E+01  0.88965612774E+00 -0.40627209212E+02  0.40659135160E+02  0.00000000000E+00 0. -1.
         11    1    3    3    0    0 -0.27387083770E+01  0.10569023019E+02  0.64324044964E+01  0.12672040050E+02  0.51100000000E-03 0. -1.
        -11    1    3    3    0    0  0.56931677631E+01 -0.33053529947E+01  0.22940425034E+02  0.23866307184E+02  0.51100000000E-03 0.  1.
        -12    1    3    3    0    0 -0.16114569554E+01 -0.81533261524E+01  0.11254379682E+02  0.13990517606E+02  0.00000000000E+00 0.  1.
</event>
<event>
 7    1  0.5748623E-013  0.5052885E+02  0.7816164E-02  0.1300439E+00
        -11   -1    0    0    0    0  0.00000000000E+00  0.00000000000E+00  0.45593999997E+02  0.45594000000E+02  0.51100000000E-03 0. -1.
         11   -1    0    0    0    0 -0.00000000000E+00 -0.00000000000E+00 -0.45593999997E+02  0.45594000000E+02  0.51100000000E-03 0.  1.
    9900012    2    1    2    0    0  0.12444941063E+02  0.18158320827E+02 -0.34184278931E+02  0.50528854666E+02  0.29999984241E+02 0.  0.
         12    1    1    2    0    0 -0.12444941063E+02 -0.18158320827E+02  0.34184278931E+02  0.40659145334E+02  0.00000000000E+00 0. -1.
         11    1    3    3    0    0 -0.71527619012E+01  0.95354421275E+01 -0.12111236297E+02  0.16993195823E+02  0.51100000000E-03 0. -1.
        -11    1    3    3    0    0  0.11824688367E+02  0.55613551405E+01 -0.40662042279E+01  0.13685245451E+02  0.51100000000E-03 0.  1.
        -12    1    3    3    0    0  0.77730145975E+01  0.30615235592E+01 -0.18006838406E+02  0.19850413392E+02  0.00000000000E+00 0.  1.
</event>
<event>
 7    1  0.5748623E-013  0.5052887E+02  0.7816164E-02  0.1300439E+00
        -11   -1    0    0    0    0  0.00000000000E+00  0.00000000000E+00  0.45593999997E+02  0.45594000000E+02  0.51100000000E-03 0.  1.
         11   -1    0    0    0    0 -0.00000000000E+00 -0.00000000000E+00 -0.45593999997E+02  0.45594000000E+02  0.51100000000E-03 0. -1.
    9900012    2    1    2    0    0  0.55713531173E+01  0.37575555456E+02  0.14498373024E+02  0.50528866171E+02  0.30000019213E+02 0.  0.
         12    1    1    2    0    0 -0.55713531173E+01 -0.37575555456E+02 -0.14498373024E+02  0.40659133829E+02  0.00000000000E+00 0. -1.
         11    1    3    3    0    0  0.57462560617E+01  0.13357617946E+01 -0.28445989795E+01  0.65494627195E+01  0.51100000000E-03 0. -1.
        -11    1    3    3    0    0 -0.73140516318E+01  0.22117666396E+02  0.15651400944E+02  0.28065154015E+02  0.51100000000E-03 0.  1.
        -12    1    3    3    0    0  0.71391486875E+01  0.14122127265E+02  0.16915710587E+01  0.15914249436E+02  0.00000000000E+00 0.  1.
</event>
<event>
 7    1  0.5748623E-013  0.5052888E+02  0.7816164E-02  0.1300439E+00
        -11   -1    0    0    0    0  0.00000000000E+00  0.00000000000E+00  0.45593999997E+02  0.45594000000E+02  0.51100000000E-03 0. -1.
         11   -1    0    0    0    0 -0.00000000000E+00 -0.00000000000E+00 -0.45593999997E+02  0.45594000000E+02  0.51100000000E-03 0.  1.
    9900012    2    1    2    0    0  0.17100439859E+02  0.36880553145E+02 -0.75106632055E+00  0.50528876248E+02  0.30000049844E+02 0.  0.
         12    1    1    2    0    0 -0.17100439859E+02 -0.36880553145E+02  0.75106632055E+00  0.40659123752E+02  0.00000000000E+00 0. -1.
         11    1    3    3    0    0  0.11511551022E-01  0.12570309585E+02 -0.17523084471E-02  0.12570314988E+02  0.51100000000E-03 0. -1.
        -11    1    3    3    0    0  0.10463865564E+02  0.13648273578E+01 -0.77251080463E+01  0.13077940620E+02  0.51100000000E-03 0.  1.
        -12    1    3    3    0    0  0.66250627438E+01  0.22945416202E+02  0.69757940342E+01  0.24880620640E+02  0.00000000000E+00 0.  1.
</event>
<event>
 7    1  0.5748623E-013  0.5052886E+02  0.7816164E-02  0.1300439E+00
        -11   -1    0    0    0    0  0.00000000000E+00  0.00000000000E+00  0.45593999997E+02  0.45594000000E+02  0.51100000000E-03 0.  1.
         11   -1    0    0    0    0 -0.00000000000E+00 -0.00000000000E+00 -0.45593999997E+02  0.45594000000E+02  0.51100000000E-03 0. -1.
    9900012    2    1    2    0    0 -0.28715346224E+02 -0.28771147531E+02  0.90318936465E+00  0.50528858469E+02  0.29999995803E+02 0.  0.
         12    1    1    2    0    0  0.28715346224E+02  0.28771147531E+02 -0.90318936465E+00  0.40659141531E+02  0.00000000000E+00 0. -1.
         11    1    3    3    0    0 -0.14255482264E+02 -0.39483310986E+01 -0.43520485991E+01  0.15419092720E+02  0.51100000000E-03 0. -1.
        -11    1    3    3    0    0 -0.11696157808E+02 -0.22457706317E+02  0.11556872031E+02  0.27833612269E+02  0.51100000000E-03 0.  1.
        -12    1    3    3    0    0 -0.27637061520E+01 -0.23651101148E+01 -0.63016340677E+01  0.72761534806E+01  0.00000000000E+00 0.  1.
</event>
<event>
 7    1  0.5748623E-013  0.5052886E+02  0.7816164E-02  0.1300439E+00
        -11   -1    0    0    0    0  0.00000000000E+00  0.00000000000E+00  0.45593999997E+02  0.45594000000E+02  0.51100000000E-03 0.  1.
         11   -1    0    0    0    0 -0.00000000000E+00 -0.00000000000E+00 -0.45593999997E+02  0.45594000000E+02  0.51100000000E-03 0. -1.
    9900012    2    1    2    0    0  0.13366610407E+02 -0.22527010447E+02  0.31097159280E+02  0.50528858485E+02  0.29999995851E+02 0.  0.
         12    1    1    2    0    0 -0.13366610407E+02  0.22527010447E+02 -0.31097159280E+02  0.40659141515E+02  0.00000000000E+00 0. -1.
         11    1    3    3    0    0  0.17433599041E+02 -0.40074721658E+01  0.90730218499E+01  0.20057665229E+02  0.51100000000E-03 0. -1.
        -11    1    3    3    0    0 -0.35495460006E+01 -0.18740630947E+02  0.17415954342E+02  0.25828782221E+02  0.51100000000E-03 0.  1.
        -12    1    3    3    0    0 -0.51744263311E+00  0.22109266629E+00  0.46081830887E+01  0.46424110357E+01  0.00000000000E+00 0.  1.
</event>
<event>
 7    1  0.5748623E-013  0.5052884E+02  0.7816164E-02  0.1300439E+00
        -11   -1    0    0    0    0  0.00000000000E+00  0.00000000000E+00  0.45593999997E+02  0.45594000000E+02  0.51100000000E-03 0.  1.
         11   -1    0    0    0    0 -0.00000000000E+00 -0.00000000000E+00 -0.45593999997E+02  0.45594000000E+02  0.51100000000E-03 0. -1.
    9900012    2    1    2    0    0  0.34130665905E+02 -0.37580198297E+01  0.21774816233E+02  0.50528835103E+02  0.29999924779E+02 0.  0.
         12    1    1    2    0    0 -0.34130665905E+02  0.37580198297E+01 -0.21774816233E+02  0.40659164897E+02  0.00000000000E+00 0. -1.
         11    1    3    3    0    0 -0.65649530385E+00 -0.76804298250E+01  0.31536605550E+00  0.77148846000E+01  0.51100000000E-03 0. -1.
        -11    1    3    3    0    0  0.35104014233E+02  0.23539275680E+01  0.21464911591E+02  0.41213774641E+02  0.51100000000E-03 0.  1.
        -12    1    3    3    0    0 -0.31685302433E+00  0.15684824273E+01 -0.54614133501E-02  0.16001758625E+01  0.00000000000E+00 0.  1.
</event>
<event>
 7    1  0.5748623E-013  0.5052885E+02  0.7816164E-02  0.1300439E+00
        -11   -1    0    0    0    0  0.00000000000E+00  0.00000000000E+00  0.45593999997E+02  0.45594000000E+02  0.51100000000E-03 0. -1.
         11   -1    0    0    0    0 -0.00000000000E+00 -0.00000000000E+00 -0.45593999997E+02  0.45594000000E+02  0.51100000000E-03 0.  1.
    9900012    2    1    2    0    0 -0.25345673506E+02  0.31018488602E+02  0.69725553154E+01  0.50528851851E+02  0.29999975685E+02 0.  0.
         12    1    1    2    0    0  0.25345673506E+02 -0.31018488602E+02 -0.69725553154E+01  0.40659148149E+02  0.00000000000E+00 0. -1.
         11    1    3    3    0    0 -0.21727769641E+02  0.68140772477E+01  0.11604066180E+02  0.25557425036E+02  0.51100000000E-03 0. -1.
        -11    1    3    3    0    0 -0.22587449630E+01  0.19182349030E+02 -0.40644053078E+01  0.19737878151E+02  0.51100000000E-03 0.  1.
         12    1    3    3    0    0 -0.13591589019E+01  0.50220623237E+01 -0.56710555671E+00  0.52335486638E+01  0.00000000000E+00 0. -1.
</event>
<event>
 7    1  0.5748623E-013  0.5052887E+02  0.7816164E-02  0.1300439E+00
        -11   -1    0    0    0    0  0.00000000000E+00  0.00000000000E+00  0.45593999997E+02  0.45594000000E+02  0.51100000000E-03 0.  1.
         11   -1    0    0    0    0 -0.00000000000E+00 -0.00000000000E+00 -0.45593999997E+02  0.45594000000E+02  0.51100000000E-03 0. -1.
    9900012    2    1    2    0    0  0.14773861482E+02 -0.87605171216E+01  0.36853103610E+02  0.50528869549E+02  0.30000029481E+02 0.  0.
         12    1    1    2    0    0 -0.14773861482E+02  0.87605171216E+01 -0.36853103610E+02  0.40659130451E+02  0.00000000000E+00 0. -1.
         11    1    3    3    0    0 -0.32176559268E+01 -0.62425083700E+01  0.27341184598E+02  0.28228754770E+02  0.51100000000E-03 0. -1.
        -11    1    3    3    0    0  0.29573482103E+01 -0.21102472963E+01  0.57424970623E+01  0.67952428109E+01  0.51100000000E-03 0.  1.
         12    1    3    3    0    0  0.15034169199E+02 -0.40776145529E+00  0.37694219503E+01  0.15504871968E+02  0.00000000000E+00 0. -1.
</event>
<event>
 7    1  0.5748623E-013  0.5052885E+02  0.7816164E-02  0.1300439E+00
        -11   -1    0    0    0    0  0.00000000000E+00  0.00000000000E+00  0.45593999997E+02  0.45594000000E+02  0.51100000000E-03 0.  1.
         11   -1    0    0    0    0 -0.00000000000E+00 -0.00000000000E+00 -0.45593999997E+02  0.45594000000E+02  0.51100000000E-03 0. -1.
    9900012    2    1    2    0    0 -0.47460067869E+01 -0.13627240194E+02  0.38012373261E+02  0.50528846336E+02  0.29999958924E+02 0.  0.
         12    1    1    2    0    0  0.47460067869E+01  0.13627240194E+02 -0.38012373261E+02  0.40659153664E+02  0.00000000000E+00 0. -1.
         11    1    3    3    0    0 -0.52438332839E+01 -0.19309289026E+01 -0.26221485168E+01  0.61726766513E+01  0.51100000000E-03 0. -1.
        -11    1    3    3    0    0  0.68095608928E+01 -0.75085824087E+01  0.25229435940E+02  0.27189581965E+02  0.51100000000E-03 0.  1.
        -12    1    3    3    0    0 -0.63117343958E+01 -0.41877288822E+01  0.15405085838E+02  0.17166587720E+02  0.00000000000E+00 0.  1.
</event>
<event>
 7    1  0.5748623E-013  0.5052886E+02  0.7816164E-02  0.1300439E+00
        -11   -1    0    0    0    0  0.00000000000E+00  0.00000000000E+00  0.45593999997E+02  0.45594000000E+02  0.51100000000E-03 0.  1.
         11   -1    0    0    0    0 -0.00000000000E+00 -0.00000000000E+00 -0.45593999997E+02  0.45594000000E+02  0.51100000000E-03 0. -1.
    9900012    2    1    2    0    0 -0.17458087435E+02  0.91534566166E+01  0.35561148238E+02  0.50528857745E+02  0.29999993602E+02 0.  0.
         12    1    1    2    0    0  0.17458087435E+02 -0.91534566166E+01 -0.35561148238E+02  0.40659142255E+02  0.00000000000E+00 0. -1.
         11    1    3    3    0    0 -0.22447901597E+01 -0.64998556587E+00 -0.11908063954E+01  0.26228961530E+01  0.51100000000E-03 0. -1.
        -11    1    3    3    0    0 -0.10736574243E+02 -0.39451684063E+01  0.29684438812E+02  0.31812014839E+02  0.51100000000E-03 0.  1.
        -12    1    3    3    0    0 -0.44767230319E+01  0.13748610589E+02  0.70675158209E+01  0.16093946753E+02  0.00000000000E+00 0.  1.
</event>
<event>
 7    1  0.5984431E-013  0.5052886E+02  0.7816164E-02  0.1300439E+00
        -11   -1    0    0    0    0  0.00000000000E+00  0.00000000000E+00  0.45593999997E+02  0.45594000000E+02  0.51100000000E-03 0.  1.
         11   -1    0    0    0    0 -0.00000000000E+00 -0.00000000000E+00 -0.45593999997E+02  0.45594000000E+02  0.51100000000E-03 0. -1.
    9900012    2    1    2    0    0 -0.40162344882E+01 -0.34900172360E+02 -0.20469817664E+02  0.50528860739E+02  0.30000002702E+02 0.  0.
         12    1    1    2    0    0  0.40162344882E+01  0.34900172360E+02  0.20469817664E+02  0.40659139261E+02  0.00000000000E+00 0. -1.
         11    1    3    3    0    0  0.36336581838E+01 -0.26716501836E+01  0.38493945191E+01  0.59295046104E+01  0.51100000000E-03 0. -1.
        -11    1    3    3    0    0 -0.58390235654E+00 -0.16710896800E+02 -0.21627425884E+02  0.27337530329E+02  0.51100000000E-03 0.  1.
        -12    1    3    3    0    0 -0.70659903154E+01 -0.15517625377E+02 -0.26917862988E+01  0.17261825800E+02  0.00000000000E+00 0.  1.
</event>
<event>
 7    1  0.5748623E-013  0.5052886E+02  0.7816164E-02  0.1300439E+00
        -11   -1    0    0    0    0  0.00000000000E+00  0.00000000000E+00  0.45593999997E+02  0.45594000000E+02  0.51100000000E-03 0.  1.
         11   -1    0    0    0    0 -0.00000000000E+00 -0.00000000000E+00 -0.45593999997E+02  0.45594000000E+02  0.51100000000E-03 0. -1.
    9900012    2    1    2    0    0 -0.76494986601E+01  0.28475626963E+02 -0.27996240946E+02  0.50528859973E+02  0.30000000373E+02 0.  0.
         12    1    1    2    0    0  0.76494986601E+01 -0.28475626963E+02  0.27996240946E+02  0.40659140027E+02  0.00000000000E+00 0. -1.
         11    1    3    3    0    0  0.83228931761E+00  0.49330267900E+01 -0.64265859792E+01  0.81442290260E+01  0.51100000000E-03 0. -1.
        -11    1    3    3    0    0 -0.14464109281E+02  0.36895253702E+01 -0.46865293722E+01  0.15645657946E+02  0.51100000000E-03 0.  1.
        -12    1    3    3    0    0  0.59823213034E+01  0.19853074803E+02 -0.16883125594E+02  0.26738973000E+02  0.00000000000E+00 0.  1.
</event>
<event>
 7    1  0.5748623E-013  0.5052882E+02  0.7816164E-02  0.1300439E+00
        -11   -1    0    0    0    0  0.00000000000E+00  0.00000000000E+00  0.45593999997E+02  0.45594000000E+02  0.51100000000E-03 0. -1.
         11   -1    0    0    0    0 -0.00000000000E+00 -0.00000000000E+00 -0.45593999997E+02  0.45594000000E+02  0.51100000000E-03 0.  1.
    9900012    2    1    2    0    0  0.36698160165E+02  0.44818819024E+01  0.16921201168E+02  0.50528815628E+02  0.29999865581E+02 0.  0.
         12    1    1    2    0    0 -0.36698160165E+02 -0.44818819024E+01 -0.16921201168E+02  0.40659184372E+02  0.00000000000E+00 0. -1.
         11    1    3    3    0    0  0.17644192868E+02 -0.41834700103E+01  0.13020056228E+02  0.22323548726E+02  0.51100000000E-03 0. -1.
        -11    1    3    3    0    0  0.27369470845E+01  0.10583149137E+02  0.43619371412E+01  0.11769469864E+02  0.51100000000E-03 0.  1.
        -12    1    3    3    0    0  0.16317020212E+02 -0.19177972241E+01 -0.46079220097E+00  0.16435797037E+02  0.00000000000E+00 0.  1.
</event>
<event>
 7    1  0.5748623E-013  0.5052887E+02  0.7816164E-02  0.1300439E+00
        -11   -1    0    0    0    0  0.00000000000E+00  0.00000000000E+00  0.45593999997E+02  0.45594000000E+02  0.51100000000E-03 0. -1.
         11   -1    0    0    0    0 -0.00000000000E+00 -0.00000000000E+00 -0.45593999997E+02  0.45594000000E+02  0.51100000000E-03 0.  1.
    9900012    2    1    2    0    0  0.15442926091E+02 -0.17847309009E+02 -0.33108226693E+02  0.50528867202E+02  0.30000022348E+02 0.  0.
         12    1    1    2    0    0 -0.15442926091E+02  0.17847309009E+02  0.33108226693E+02  0.40659132798E+02  0.00000000000E+00 0. -1.
         11    1    3    3    0    0  0.14561242358E+02 -0.17155657179E+02 -0.74347089180E+01  0.23698549517E+02  0.51100000000E-03 0. -1.
        -11    1    3    3    0    0 -0.15131248269E+01  0.18887368261E+01 -0.28589189996E+01  0.37457030912E+01  0.51100000000E-03 0.  1.
         12    1    3    3    0    0  0.23948085594E+01 -0.25803886560E+01 -0.22814598776E+02  0.23084614594E+02  0.00000000000E+00 0. -1.
</event>
<event>
 7    1  0.5748623E-013  0.5052888E+02  0.7816164E-02  0.1300439E+00
        -11   -1    0    0    0    0  0.00000000000E+00  0.00000000000E+00  0.45593999997E+02  0.45594000000E+02  0.51100000000E-03 0. -1.
         11   -1    0    0    0    0 -0.00000000000E+00 -0.00000000000E+00 -0.45593999997E+02  0.45594000000E+02  0.51100000000E-03 0.  1.
    9900012    2    1    2    0    0  0.21816641021E+01  0.33572172366E+02 -0.22832299519E+02  0.50528876584E+02  0.30000050865E+02 0.  0.
         12    1    1    2    0    0 -0.21816641021E+01 -0.33572172366E+02  0.22832299519E+02  0.40659123416E+02  0.00000000000E+00 0. -1.
         11    1    3    3    0    0  0.15015644011E+01  0.17512743176E+02  0.27603853045E+01  0.17792430876E+02  0.51100000000E-03 0. -1.
        -11    1    3    3    0    0  0.61924966982E+01  0.11852315329E+02 -0.15230245468E+02  0.20267826013E+02  0.51100000000E-03 0.  1.
         12    1    3    3    0    0 -0.55123969972E+01  0.42071138612E+01 -0.10362439355E+02  0.12468619694E+02  0.00000000000E+00 0. -1.
</event>
<event>
 7    1  0.5748623E-013  0.5052888E+02  0.7816164E-02  0.1300439E+00
        -11   -1    0    0    0    0  0.00000000000E+00  0.00000000000E+00  0.45593999997E+02  0.45594000000E+02  0.51100000000E-03 0.  1.
         11   -1    0    0    0    0 -0.00000000000E+00 -0.00000000000E+00 -0.45593999997E+02  0.45594000000E+02  0.51100000000E-03 0. -1.
    9900012    2    1    2    0    0  0.89759554443E+01  0.28009703849E+02  0.28072277939E+02  0.50528879565E+02  0.30000059925E+02 0.  0.
         12    1    1    2    0    0 -0.89759554443E+01 -0.28009703849E+02 -0.28072277939E+02  0.40659120435E+02  0.00000000000E+00 0. -1.
         11    1    3    3    0    0 -0.54997336161E+01  0.15491946058E+02  0.16359160300E+02  0.23192015619E+02  0.51100000000E-03 0. -1.
        -11    1    3    3    0    0  0.14091619780E+02  0.89231448932E+01  0.15014074992E+02  0.22441450731E+02  0.51100000000E-03 0.  1.
         12    1    3    3    0    0  0.38406928049E+00  0.35946128979E+01 -0.33009573521E+01  0.48954132142E+01  0.00000000000E+00 0. -1.
</event>
<event>
 7    1  0.5748623E-013  0.5052883E+02  0.7816164E-02  0.1300439E+00
        -11   -1    0    0    0    0  0.00000000000E+00  0.00000000000E+00  0.45593999997E+02  0.45594000000E+02  0.51100000000E-03 0. -1.
         11   -1    0    0    0    0 -0.00000000000E+00 -0.00000000000E+00 -0.45593999997E+02  0.45594000000E+02  0.51100000000E-03 0.  1.
    9900012    2    1    2    0    0  0.85361120444E+01  0.38529852751E+02 -0.97853718248E+01  0.50528828051E+02  0.29999903343E+02 0.  0.
         12    1    1    2    0    0 -0.85361120444E+01 -0.38529852751E+02  0.97853718248E+01  0.40659171949E+02  0.00000000000E+00 0. -1.
         11    1    3    3    0    0 -0.23785083733E+01 -0.69942390011E+00 -0.70862137754E+01  0.75073911451E+01  0.51100000000E-03 0. -1.
        -11    1    3    3    0    0  0.49871006367E+01  0.34938622168E+02 -0.42306815441E+01  0.35545423873E+02  0.51100000000E-03 0.  1.
        -12    1    3    3    0    0  0.59275197810E+01  0.42906544833E+01  0.15315234947E+01  0.74760130327E+01  0.00000000000E+00 0.  1.
</event>
<event>
 7    1  0.5748623E-013  0.5052885E+02  0.7816164E-02  0.1300439E+00
        -11   -1    0    0    0    0  0.00000000000E+00  0.00000000000E+00  0.45593999997E+02  0.45594000000E+02  0.51100000000E-03 0. -1.
         11   -1    0    0    0    0 -0.00000000000E+00 -0.00000000000E+00 -0.45593999997E+02  0.45594000000E+02  0.51100000000E-03 0.  1.
    9900012    2    1    2    0    0 -0.37586844497E+02 -0.57708057564E+01 -0.14390730078E+02  0.50528853544E+02  0.29999980833E+02 0.  0.
         12    1    1    2    0    0  0.37586844497E+02  0.57708057564E+01  0.14390730078E+02  0.40659146456E+02  0.00000000000E+00 0. -1.
         11    1    3    3    0    0 -0.21972011530E+02 -0.12203596835E+02  0.35921447520E+01  0.25388985221E+02  0.51100000000E-03 0. -1.
        -11    1    3    3    0    0 -0.10929090173E+02  0.44015701291E+01 -0.90753458680E+01  0.14872146264E+02  0.51100000000E-03 0.  1.
         12    1    3    3    0    0 -0.46857427950E+01  0.20312209491E+01 -0.89075289620E+01  0.10267722060E+02  0.00000000000E+00 0. -1.
</event>
<event>
 7    1  0.5748623E-013  0.5052889E+02  0.7816164E-02  0.1300439E+00
        -11   -1    0    0    0    0  0.00000000000E+00  0.00000000000E+00  0.45593999997E+02  0.45594000000E+02  0.51100000000E-03 0. -1.
         11   -1    0    0    0    0 -0.00000000000E+00 -0.00000000000E+00 -0.45593999997E+02  0.45594000000E+02  0.51100000000E-03 0.  1.
    9900012    2    1    2    0    0 -0.37074516746E+02  0.67629599521E+01 -0.15261262173E+02  0.50528886109E+02  0.30000079817E+02 0.  0.
         12    1    1    2    0    0  0.37074516746E+02 -0.67629599521E+01  0.15261262173E+02  0.40659113891E+02  0.00000000000E+00 0. -1.
         11    1    3    3    0    0 -0.13017258099E+02 -0.11452690350E+02 -0.54469111643E+01  0.18173661331E+02  0.51100000000E-03 0. -1.
        -11    1    3    3    0    0 -0.74146502092E+01  0.92885069157E+01 -0.47782545896E+01  0.12809571251E+02  0.51100000000E-03 0.  1.
         12    1    3    3    0    0 -0.16642608438E+02  0.89271433865E+01 -0.50360964187E+01  0.19545653527E+02  0.00000000000E+00 0. -1.
</event>
<event>
 7    1  0.5748623E-013  0.5052885E+02  0.7816164E-02  0.1300439E+00
        -11   -1    0    0    0    0  0.00000000000E+00  0.00000000000E+00  0.45593999997E+02  0.45594000000E+02  0.51100000000E-03 0.  1.
         11   -1    0    0    0    0 -0.00000000000E+00 -0.00000000000E+00 -0.45593999997E+02  0.45594000000E+02  0.51100000000E-03 0. -1.
    9900012    2    1    2    0    0  0.12525339460E+01  0.37011321655E+02  0.16785701572E+02  0.50528849133E+02  0.29999967426E+02 0.  0.
         12    1    1    2    0    0 -0.12525339460E+01 -0.37011321655E+02 -0.16785701572E+02  0.40659150867E+02  0.00000000000E+00 0. -1.
         11    1    3    3    0    0  0.12014736078E+02  0.11177754532E+02 -0.23671770300E+01  0.16580096706E+02  0.51100000000E-03 0. -1.
        -11    1    3    3    0    0 -0.37977065085E+01  0.78358556972E+01  0.53085416844E+01  0.10198226528E+02  0.51100000000E-03 0.  1.
         12    1    3    3    0    0 -0.69644956236E+01  0.17997711425E+02  0.13844336918E+02  0.23750525900E+02  0.00000000000E+00 0. -1.
</event>
<event>
 7    1  0.5748623E-013  0.5052886E+02  0.7816164E-02  0.1300439E+00
        -11   -1    0    0    0    0  0.00000000000E+00  0.00000000000E+00  0.45593999997E+02  0.45594000000E+02  0.51100000000E-03 0.  1.
         11   -1    0    0    0    0 -0.00000000000E+00 -0.00000000000E+00 -0.45593999997E+02  0.45594000000E+02  0.51100000000E-03 0. -1.
    9900012    2    1    2    0    0  0.25807981025E+02 -0.29501644492E+02  0.10805850371E+02  0.50528864316E+02  0.30000013575E+02 0.  0.
         12    1    1    2    0    0 -0.25807981025E+02  0.29501644492E+02 -0.10805850371E+02  0.40659135684E+02  0.00000000000E+00 0. -1.
         11    1    3    3    0    0 -0.11440823169E+01 -0.60914901981E+00  0.12496812211E+01  0.18004694642E+01  0.51100000000E-03 0. -1.
        -11    1    3    3    0    0  0.16296454520E+02  0.13387885881E+00 -0.22258784974E+00  0.16298524445E+02  0.51100000000E-03 0.  1.
        -12    1    3    3    0    0  0.10655608822E+02 -0.29026374331E+02  0.97787569998E+01  0.32429870407E+02  0.00000000000E+00 0.  1.
</event>
<event>
 7    1  0.5748623E-013  0.5052886E+02  0.7816164E-02  0.1300439E+00
        -11   -1    0    0    0    0  0.00000000000E+00  0.00000000000E+00  0.45593999997E+02  0.45594000000E+02  0.51100000000E-03 0.  1.
         11   -1    0    0    0    0 -0.00000000000E+00 -0.00000000000E+00 -0.45593999997E+02  0.45594000000E+02  0.51100000000E-03 0. -1.
    9900012    2    1    2    0    0  0.34596646879E+02  0.17903080506E+02  0.11649773387E+02  0.50528862198E+02  0.30000007137E+02 0.  0.
         12    1    1    2    0    0 -0.34596646879E+02 -0.17903080506E+02 -0.11649773387E+02  0.40659137802E+02  0.00000000000E+00 0. -1.
         11    1    3    3    0    0  0.74990769216E+01  0.18698530182E+02  0.89915028310E+01  0.22061693250E+02  0.51100000000E-03 0. -1.
        -11    1    3    3    0    0  0.29613040961E+01  0.22391260191E+01  0.17996425003E+01  0.41257388028E+01  0.51100000000E-03 0.  1.
         12    1    3    3    0    0  0.24136265861E+02 -0.30345756957E+01  0.85862805576E+00  0.24341430145E+02  0.00000000000E+00 0. -1.
</event>
<event>
 7    1  0.5748623E-013  0.5052888E+02  0.7816164E-02  0.1300439E+00
        -11   -1    0    0    0    0  0.00000000000E+00  0.00000000000E+00  0.45593999997E+02  0.45594000000E+02  0.51100000000E-03 0.  1.
         11   -1    0    0    0    0 -0.00000000000E+00 -0.00000000000E+00 -0.45593999997E+02  0.45594000000E+02  0.51100000000E-03 0. -1.
    9900012    2    1    2    0    0 -0.33864809415E+02  0.16338894645E+02  0.15471891736E+02  0.50528877668E+02  0.30000054158E+02 0.  0.
         12    1    1    2    0    0  0.33864809415E+02 -0.16338894645E+02 -0.15471891736E+02  0.40659122332E+02  0.00000000000E+00 0. -1.
         11    1    3    3    0    0 -0.24459006372E+02 -0.12570602527E+01  0.11086427616E+02  0.26883676659E+02  0.51100000000E-03 0. -1.
        -11    1    3    3    0    0 -0.63500777040E+01  0.24217861937E+01  0.45267263679E+01  0.81657692281E+01  0.51100000000E-03 0.  1.
         12    1    3    3    0    0 -0.30557253393E+01  0.15174168705E+02 -0.14126224738E+00  0.15479431780E+02  0.00000000000E+00 0. -1.
</event>
<event>
 7    1  0.5748623E-013  0.5052881E+02  0.7816164E-02  0.1300439E+00
        -11   -1    0    0    0    0  0.00000000000E+00  0.00000000000E+00  0.45593999997E+02  0.45594000000E+02  0.51100000000E-03 0.  1.
         11   -1    0    0    0    0 -0.00000000000E+00 -0.00000000000E+00 -0.45593999997E+02  0.45594000000E+02  0.51100000000E-03 0. -1.
    9900012    2    1    2    0    0  0.38312829620E+02 -0.11231398162E+02  0.76910458098E+01  0.50528814030E+02  0.29999860724E+02 0.  0.
         12    1    1    2    0    0 -0.38312829620E+02  0.11231398162E+02 -0.76910458098E+01  0.40659185970E+02  0.00000000000E+00 0. -1.
         11    1    3    3    0    0  0.27548127215E+02  0.58716878965E+01  0.73044586245E+01  0.29098645121E+02  0.51100000000E-03 0. -1.
        -11    1    3    3    0    0  0.83896384665E+01 -0.66462960575E+01  0.13448863179E+00  0.10704082041E+02  0.51100000000E-03 0.  1.
         12    1    3    3    0    0  0.23750639384E+01 -0.10456790000E+02  0.25209855349E+00  0.10726086868E+02  0.00000000000E+00 0. -1.
</event>
<event>
 7    1  0.5748623E-013  0.5052886E+02  0.7816164E-02  0.1300439E+00
        -11   -1    0    0    0    0  0.00000000000E+00  0.00000000000E+00  0.45593999997E+02  0.45594000000E+02  0.51100000000E-03 0. -1.
         11   -1    0    0    0    0 -0.00000000000E+00 -0.00000000000E+00 -0.45593999997E+02  0.45594000000E+02  0.51100000000E-03 0.  1.
    9900012    2    1    2    0    0 -0.27987622148E+02 -0.35195470570E+01 -0.29282619087E+02  0.50528856064E+02  0.29999988492E+02 0.  0.
         12    1    1    2    0    0  0.27987622148E+02  0.35195470570E+01  0.29282619087E+02  0.40659143936E+02  0.00000000000E+00 0. -1.
         11    1    3    3    0    0  0.75038151353E+00 -0.89388489922E+01 -0.16035581161E+02  0.18374056633E+02  0.51100000000E-03 0. -1.
        -11    1    3    3    0    0 -0.18004252850E+02  0.34790160015E+01 -0.73539672577E+01  0.19756960994E+02  0.51100000000E-03 0.  1.
         12    1    3    3    0    0 -0.10733750812E+02  0.19402859337E+01 -0.58930706682E+01  0.12397838436E+02  0.00000000000E+00 0. -1.
</event>
<event>
 7    1  0.5748623E-013  0.5052885E+02  0.7816164E-02  0.1300439E+00
        -11   -1    0    0    0    0  0.00000000000E+00  0.00000000000E+00  0.45593999997E+02  0.45594000000E+02  0.51100000000E-03 0.  1.
         11   -1    0    0    0    0 -0.00000000000E+00 -0.00000000000E+00 -0.45593999997E+02  0.45594000000E+02  0.51100000000E-03 0. -1.
    9900012    2    1    2    0    0 -0.24076222226E+02 -0.31392215514E+02  0.93824529083E+01  0.50528854729E+02  0.29999984436E+02 0.  0.
         12    1    1    2    0    0  0.24076222226E+02  0.31392215514E+02 -0.93824529083E+01  0.40659145271E+02  0.00000000000E+00 0. -1.
         11    1    3    3    0    0 -0.33993425412E+01 -0.22247993182E+02  0.16578910760E+01  0.22567173803E+02  0.51100000000E-03 0. -1.
        -11    1    3    3    0    0 -0.18170669470E+02 -0.35456809455E+01  0.54876019946E+00  0.18521506968E+02  0.51100000000E-03 0.  1.
        -12    1    3    3    0    0 -0.25062102144E+01 -0.55985413865E+01  0.71758016328E+01  0.94401739586E+01  0.00000000000E+00 0.  1.
</event>
<event>
 7    1  0.5748623E-013  0.5052886E+02  0.7816164E-02  0.1300439E+00
        -11   -1    0    0    0    0  0.00000000000E+00  0.00000000000E+00  0.45593999997E+02  0.45594000000E+02  0.51100000000E-03 0.  1.
         11   -1    0    0    0    0 -0.00000000000E+00 -0.00000000000E+00 -0.45593999997E+02  0.45594000000E+02  0.51100000000E-03 0. -1.
    9900012    2    1    2    0    0 -0.12294100923E+02  0.71175128991E+01  0.38096744661E+02  0.50528857595E+02  0.29999993146E+02 0.  0.
         12    1    1    2    0    0  0.12294100923E+02 -0.71175128991E+01 -0.38096744661E+02  0.40659142405E+02  0.00000000000E+00 0. -1.
         11    1    3    3    0    0 -0.90589630494E+01  0.25156949810E+01  0.37460725653E+02  0.38622525804E+02  0.51100000000E-03 0. -1.
        -11    1    3    3    0    0  0.35066326783E+01  0.24457108868E+01  0.19637765847E+01  0.47047203124E+01  0.51100000000E-03 0.  1.
         12    1    3    3    0    0 -0.67417705515E+01  0.21561070313E+01 -0.13277575773E+01  0.72016114782E+01  0.00000000000E+00 0. -1.
</event>
<event>
 7    1  0.5748623E-013  0.5052887E+02  0.7816164E-02  0.1300439E+00
        -11   -1    0    0    0    0  0.00000000000E+00  0.00000000000E+00  0.45593999997E+02  0.45594000000E+02  0.51100000000E-03 0.  1.
         11   -1    0    0    0    0 -0.00000000000E+00 -0.00000000000E+00 -0.45593999997E+02  0.45594000000E+02  0.51100000000E-03 0. -1.
    9900012    2    1    2    0    0 -0.24364445599E+02 -0.20383163845E+02  0.25378443732E+02  0.50528868382E+02  0.30000025935E+02 0.  0.
         12    1    1    2    0    0  0.24364445599E+02  0.20383163845E+02 -0.25378443732E+02  0.40659131618E+02  0.00000000000E+00 0. -1.
         11    1    3    3    0    0 -0.90259306113E+01 -0.10152360438E+02 -0.26622947169E+01  0.13842892013E+02  0.51100000000E-03 0. -1.
        -11    1    3    3    0    0 -0.72296042563E+01  0.21769284969E+01  0.15613439032E+02  0.17343173702E+02  0.51100000000E-03 0.  1.
         12    1    3    3    0    0 -0.81089107314E+01 -0.12407731904E+02  0.12427299416E+02  0.19342802667E+02  0.00000000000E+00 0. -1.
</event>
<event>
 7    1  0.5748623E-013  0.5052886E+02  0.7816164E-02  0.1300439E+00
        -11   -1    0    0    0    0  0.00000000000E+00  0.00000000000E+00  0.45593999997E+02  0.45594000000E+02  0.51100000000E-03 0.  1.
         11   -1    0    0    0    0 -0.00000000000E+00 -0.00000000000E+00 -0.45593999997E+02  0.45594000000E+02  0.51100000000E-03 0. -1.
    9900012    2    1    2    0    0  0.17228793094E+02 -0.35543809606E+00  0.36826726985E+02  0.50528862428E+02  0.30000007835E+02 0.  0.
         12    1    1    2    0    0 -0.17228793094E+02  0.35543809606E+00 -0.36826726985E+02  0.40659137572E+02  0.00000000000E+00 0. -1.
         11    1    3    3    0    0  0.26234564859E+01 -0.12629782194E+01 -0.51150102895E+01  0.58856578595E+01  0.51100000000E-03 0. -1.
        -11    1    3    3    0    0  0.73051058890E+01  0.21833958742E+01  0.25346497332E+02  0.26468409791E+02  0.51100000000E-03 0.  1.
         12    1    3    3    0    0  0.73002307189E+01 -0.12758557509E+01  0.16595239942E+02  0.18174794777E+02  0.00000000000E+00 0. -1.
</event>
<event>
 7    1  0.5748623E-013  0.5052886E+02  0.7816164E-02  0.1300439E+00
        -11   -1    0    0    0    0  0.00000000000E+00  0.00000000000E+00  0.45593999997E+02  0.45594000000E+02  0.51100000000E-03 0. -1.
         11   -1    0    0    0    0 -0.00000000000E+00 -0.00000000000E+00 -0.45593999997E+02  0.45594000000E+02  0.51100000000E-03 0.  1.
    9900012    2    1    2    0    0  0.15570222600E+02  0.54066180638E+01 -0.37168567400E+02  0.50528858921E+02  0.29999997176E+02 0.  0.
         12    1    1    2    0    0 -0.15570222600E+02 -0.54066180638E+01  0.37168567400E+02  0.40659141079E+02  0.00000000000E+00 0. -1.
         11    1    3    3    0    0 -0.23128010770E+01 -0.43091482738E+01 -0.13920861456E+02  0.14754937872E+02  0.51100000000E-03 0. -1.
        -11    1    3    3    0    0  0.15835307588E+02  0.11319781241E+02 -0.92765235405E+01  0.21562659924E+02  0.51100000000E-03 0.  1.
        -12    1    3    3    0    0  0.20477160890E+01 -0.16040149034E+01 -0.13971182404E+02  0.14211261125E+02  0.00000000000E+00 0.  1.
</event>
<event>
 7    1  0.5748623E-013  0.5052886E+02  0.7816164E-02  0.1300439E+00
        -11   -1    0    0    0    0  0.00000000000E+00  0.00000000000E+00  0.45593999997E+02  0.45594000000E+02  0.51100000000E-03 0. -1.
         11   -1    0    0    0    0 -0.00000000000E+00 -0.00000000000E+00 -0.45593999997E+02  0.45594000000E+02  0.51100000000E-03 0.  1.
    9900012    2    1    2    0    0  0.31430768596E+02  0.77017407518E+01 -0.24616162903E+02  0.50528862021E+02  0.30000006600E+02 0.  0.
         12    1    1    2    0    0 -0.31430768596E+02 -0.77017407518E+01  0.24616162903E+02  0.40659137979E+02  0.00000000000E+00 0. -1.
         11    1    3    3    0    0  0.96623111543E+01 -0.53939887429E+01  0.19629256062E+01  0.11238703155E+02  0.51100000000E-03 0. -1.
        -11    1    3    3    0    0  0.17775170727E+02  0.78751697894E+01 -0.26307592352E+02  0.32711838976E+02  0.51100000000E-03 0.  1.
        -12    1    3    3    0    0  0.39932867144E+01  0.52205597053E+01 -0.27149615691E+00  0.65783198907E+01  0.00000000000E+00 0.  1.
</event>
<event>
 7    1  0.5748623E-013  0.5052885E+02  0.7816164E-02  0.1300439E+00
        -11   -1    0    0    0    0  0.00000000000E+00  0.00000000000E+00  0.45593999997E+02  0.45594000000E+02  0.51100000000E-03 0.  1.
         11   -1    0    0    0    0 -0.00000000000E+00 -0.00000000000E+00 -0.45593999997E+02  0.45594000000E+02  0.51100000000E-03 0. -1.
    9900012    2    1    2    0    0  0.39728104021E+02 -0.31224515714E+01  0.80681234015E+01  0.50528848900E+02  0.29999966717E+02 0.  0.
         12    1    1    2    0    0 -0.39728104021E+02  0.31224515714E+01 -0.80681234015E+01  0.40659151100E+02  0.00000000000E+00 0. -1.
         11    1    3    3    0    0  0.14031887633E+02  0.96693702118E+01  0.49127783317E+00  0.17047930813E+02  0.51100000000E-03 0. -1.
        -11    1    3    3    0    0  0.27648089615E+02 -0.11795762571E+02  0.56982443732E+01  0.30594556104E+02  0.51100000000E-03 0.  1.
        -12    1    3    3    0    0 -0.19518732268E+01 -0.99605921232E+00  0.18786011951E+01  0.28863619832E+01  0.00000000000E+00 0.  1.
</event>
<event>
 7    1  0.5748623E-013  0.5052887E+02  0.7816164E-02  0.1300439E+00
        -11   -1    0    0    0    0  0.00000000000E+00  0.00000000000E+00  0.45593999997E+02  0.45594000000E+02  0.51100000000E-03 0. -1.
         11   -1    0    0    0    0 -0.00000000000E+00 -0.00000000000E+00 -0.45593999997E+02  0.45594000000E+02  0.51100000000E-03 0.  1.
    9900012    2    1    2    0    0 -0.57472215715E+01  0.38347724213E+02 -0.12230559473E+02  0.50528867039E+02  0.30000021852E+02 0.  0.
         12    1    1    2    0    0  0.57472215715E+01 -0.38347724213E+02  0.12230559473E+02  0.40659132961E+02  0.00000000000E+00 0. -1.
         11    1    3    3    0    0  0.11962953794E+02  0.16938813154E+02 -0.27813170047E+01  0.20922986858E+02  0.51100000000E-03 0. -1.
        -11    1    3    3    0    0 -0.13790349881E+02  0.18837289886E+02 -0.74090382066E+01  0.24493082441E+02  0.51100000000E-03 0.  1.
         12    1    3    3    0    0 -0.39198254847E+01  0.25716211737E+01 -0.20402042621E+01  0.51127977393E+01  0.00000000000E+00 0. -1.
</event>
<event>
 7    1  0.5748623E-013  0.5052886E+02  0.7816164E-02  0.1300439E+00
        -11   -1    0    0    0    0  0.00000000000E+00  0.00000000000E+00  0.45593999997E+02  0.45594000000E+02  0.51100000000E-03 0. -1.
         11   -1    0    0    0    0 -0.00000000000E+00 -0.00000000000E+00 -0.45593999997E+02  0.45594000000E+02  0.51100000000E-03 0.  1.
    9900012    2    1    2    0    0  0.33937177656E+01  0.40085551732E+02 -0.58989187385E+01  0.50528855638E+02  0.29999987198E+02 0.  0.
         12    1    1    2    0    0 -0.33937177656E+01 -0.40085551732E+02  0.58989187385E+01  0.40659144362E+02  0.00000000000E+00 0. -1.
         11    1    3    3    0    0  0.12598331369E+02  0.16824105566E+02  0.78915389067E+00  0.21033098809E+02  0.51100000000E-03 0. -1.
        -11    1    3    3    0    0 -0.11729455097E+02  0.10579421218E+02 -0.37924808001E+01  0.16244604675E+02  0.51100000000E-03 0.  1.
        -12    1    3    3    0    0  0.25248414934E+01  0.12682024949E+02 -0.28955918291E+01  0.13251152154E+02  0.00000000000E+00 0.  1.
</event>
<event>
 7    1  0.5748623E-013  0.5052886E+02  0.7816164E-02  0.1300439E+00
        -11   -1    0    0    0    0  0.00000000000E+00  0.00000000000E+00  0.45593999997E+02  0.45594000000E+02  0.51100000000E-03 0.  1.
         11   -1    0    0    0    0 -0.00000000000E+00 -0.00000000000E+00 -0.45593999997E+02  0.45594000000E+02  0.51100000000E-03 0. -1.
    9900012    2    1    2    0    0 -0.40465328455E+02  0.32380440468E+01 -0.22887149800E+01  0.50528856472E+02  0.29999989731E+02 0.  0.
         12    1    1    2    0    0  0.40465328455E+02 -0.32380440468E+01  0.22887149800E+01  0.40659143528E+02  0.00000000000E+00 0. -1.
         11    1    3    3    0    0 -0.30831419915E+02  0.15540152326E+01 -0.13832151144E+02  0.33827796601E+02  0.51100000000E-03 0. -1.
        -11    1    3    3    0    0 -0.14046023025E+01  0.33708020455E+01  0.30917432539E+01  0.47847769716E+01  0.51100000000E-03 0.  1.
         12    1    3    3    0    0 -0.82293062373E+01 -0.16867732313E+01  0.84516929105E+01  0.11916282899E+02  0.00000000000E+00 0. -1.
</event>
<event>
 7    1  0.5748623E-013  0.5052886E+02  0.7816164E-02  0.1300439E+00
        -11   -1    0    0    0    0  0.00000000000E+00  0.00000000000E+00  0.45593999997E+02  0.45594000000E+02  0.51100000000E-03 0. -1.
         11   -1    0    0    0    0 -0.00000000000E+00 -0.00000000000E+00 -0.45593999997E+02  0.45594000000E+02  0.51100000000E-03 0.  1.
    9900012    2    1    2    0    0  0.15431767256E+02  0.19966257485E+02 -0.31880633932E+02  0.50528859595E+02  0.29999999225E+02 0.  0.
         12    1    1    2    0    0 -0.15431767256E+02 -0.19966257485E+02  0.31880633932E+02  0.40659140405E+02  0.00000000000E+00 0. -1.
         11    1    3    3    0    0 -0.12268171717E+01  0.19004404870E+02 -0.16978613975E+02  0.25513639834E+02  0.51100000000E-03 0. -1.
        -11    1    3    3    0    0 -0.11101663606E+01  0.16038669262E+01 -0.31400010717E+01  0.36965477755E+01  0.51100000000E-03 0.  1.
         12    1    3    3    0    0  0.17768750788E+02 -0.64201431123E+00 -0.11762018886E+02  0.21318671985E+02  0.00000000000E+00 0. -1.
</event>
<event>
 7    1  0.5748623E-013  0.5052886E+02  0.7816164E-02  0.1300439E+00
        -11   -1    0    0    0    0  0.00000000000E+00  0.00000000000E+00  0.45593999997E+02  0.45594000000E+02  0.51100000000E-03 0.  1.
         11   -1    0    0    0    0 -0.00000000000E+00 -0.00000000000E+00 -0.45593999997E+02  0.45594000000E+02  0.51100000000E-03 0. -1.
    9900012    2    1    2    0    0 -0.30263741940E+02  0.11958522216E+02  0.24377552837E+02  0.50528863116E+02  0.30000009927E+02 0.  0.
         12    1    1    2    0    0  0.30263741940E+02 -0.11958522216E+02 -0.24377552837E+02  0.40659136884E+02  0.00000000000E+00 0. -1.
         11    1    3    3    0    0 -0.94792936894E+01  0.79331206979E+00 -0.65213682256E+01  0.11533195424E+02  0.51100000000E-03 0. -1.
        -11    1    3    3    0    0 -0.18732596885E+02  0.10260084150E+02  0.26309305655E+02  0.33887447191E+02  0.51100000000E-03 0.  1.
         12    1    3    3    0    0 -0.20518513659E+01  0.90512599680E+00  0.45896154076E+01  0.51082205011E+01  0.00000000000E+00 0. -1.
</event>
<event>
 7    1  0.5748623E-013  0.5052886E+02  0.7816164E-02  0.1300439E+00
        -11   -1    0    0    0    0  0.00000000000E+00  0.00000000000E+00  0.45593999997E+02  0.45594000000E+02  0.51100000000E-03 0.  1.
         11   -1    0    0    0    0 -0.00000000000E+00 -0.00000000000E+00 -0.45593999997E+02  0.45594000000E+02  0.51100000000E-03 0. -1.
    9900012    2    1    2    0    0 -0.25507951919E+02  0.31139579817E+02  0.57303287409E+01  0.50528859456E+02  0.29999998803E+02 0.  0.
         12    1    1    2    0    0  0.25507951919E+02 -0.31139579817E+02 -0.57303287409E+01  0.40659140544E+02  0.00000000000E+00 0. -1.
         11    1    3    3    0    0 -0.25293564041E+01  0.10642965100E+02  0.36103613847E+01  0.11519768207E+02  0.51100000000E-03 0. -1.
        -11    1    3    3    0    0 -0.27346813072E+02  0.14009534920E+02  0.39438265866E+01  0.30978525179E+02  0.51100000000E-03 0.  1.
         12    1    3    3    0    0  0.43682175571E+01  0.64870797973E+01 -0.18238592304E+01  0.80305660706E+01  0.00000000000E+00 0. -1.
</event>
<event>
 7    1  0.5748623E-013  0.5052885E+02  0.7816164E-02  0.1300439E+00
        -11   -1    0    0    0    0  0.00000000000E+00  0.00000000000E+00  0.45593999997E+02  0.45594000000E+02  0.51100000000E-03 0.  1.
         11   -1    0    0    0    0 -0.00000000000E+00 -0.00000000000E+00 -0.45593999997E+02  0.45594000000E+02  0.51100000000E-03 0. -1.
    9900012    2    1    2    0    0 -0.15269925677E+02  0.62889736741E+01  0.37154330387E+02  0.50528854823E+02  0.29999984719E+02 0.  0.
         12    1    1    2    0    0  0.15269925677E+02 -0.62889736741E+01 -0.37154330387E+02  0.40659145177E+02  0.00000000000E+00 0. -1.
         11    1    3    3    0    0 -0.42109515172E+01  0.11535969478E+02  0.10523707649E+02  0.16172789723E+02  0.51100000000E-03 0. -1.
        -11    1    3    3    0    0  0.27598832759E+01 -0.71974962427E+01  0.84717613944E+01  0.11453892319E+02  0.51100000000E-03 0.  1.
        -12    1    3    3    0    0 -0.13818857435E+02  0.19505004384E+01  0.18158861344E+02  0.22902172781E+02  0.00000000000E+00 0.  1.
</event>
<event>
 7    1  0.5748623E-013  0.5052884E+02  0.7816164E-02  0.1300439E+00
        -11   -1    0    0    0    0  0.00000000000E+00  0.00000000000E+00  0.45593999997E+02  0.45594000000E+02  0.51100000000E-03 0.  1.
         11   -1    0    0    0    0 -0.00000000000E+00 -0.00000000000E+00 -0.45593999997E+02  0.45594000000E+02  0.51100000000E-03 0. -1.
    9900012    2    1    2    0    0  0.19489564604E+02  0.22383745353E+02  0.27790137589E+02  0.50528844430E+02  0.29999953128E+02 0.  0.
         12    1    1    2    0    0 -0.19489564604E+02 -0.22383745353E+02 -0.27790137589E+02  0.40659155570E+02  0.00000000000E+00 0. -1.
         11    1    3    3    0    0  0.30534899281E+01  0.65268574434E+01  0.29457437516E+01  0.77846692504E+01  0.51100000000E-03 0. -1.
        -11    1    3    3    0    0  0.20938115771E+02  0.10594968488E+02  0.26728077943E+02  0.35567516080E+02  0.51100000000E-03 0.  1.
        -12    1    3    3    0    0 -0.45020410948E+01  0.52619194218E+01 -0.18836841057E+01  0.71766590995E+01  0.00000000000E+00 0.  1.
</event>
<event>
 7    1  0.5748623E-013  0.5052886E+02  0.7816164E-02  0.1300439E+00
        -11   -1    0    0    0    0  0.00000000000E+00  0.00000000000E+00  0.45593999997E+02  0.45594000000E+02  0.51100000000E-03 0. -1.
         11   -1    0    0    0    0 -0.00000000000E+00 -0.00000000000E+00 -0.45593999997E+02  0.45594000000E+02  0.51100000000E-03 0.  1.
    9900012    2    1    2    0    0  0.29944163510E+01 -0.17028565441E+02 -0.36799819389E+02  0.50528864774E+02  0.30000014969E+02 0.  0.
         12    1    1    2    0    0 -0.29944163510E+01  0.17028565441E+02  0.36799819389E+02  0.40659135226E+02  0.00000000000E+00 0. -1.
         11    1    3    3    0    0  0.12995348473E+02 -0.94722986901E+01 -0.16639781178E+02  0.23140567026E+02  0.51100000000E-03 0.  1.
        -11    1    3    3    0    0 -0.10199016828E+02 -0.74528425095E+01 -0.74274129934E+01  0.14653711808E+02  0.51100000000E-03 0. -1.
         12    1    3    3    0    0  0.19808470655E+00 -0.10342424116E+00 -0.12732625218E+02  0.12734585940E+02  0.00000000000E+00 0. -1.
</event>
<event>
 7    1  0.5748623E-013  0.5052884E+02  0.7816164E-02  0.1300439E+00
        -11   -1    0    0    0    0  0.00000000000E+00  0.00000000000E+00  0.45593999997E+02  0.45594000000E+02  0.51100000000E-03 0.  1.
         11   -1    0    0    0    0 -0.00000000000E+00 -0.00000000000E+00 -0.45593999997E+02  0.45594000000E+02  0.51100000000E-03 0. -1.
    9900012    2    1    2    0    0  0.30764513530E+02  0.13575154234E+02  0.22856658862E+02  0.50528844087E+02  0.29999952085E+02 0.  0.
         12    1    1    2    0    0 -0.30764513530E+02 -0.13575154234E+02 -0.22856658862E+02  0.40659155913E+02  0.00000000000E+00 0. -1.
         11    1    3    3    0    0  0.97042465777E+01  0.67657732340E+01 -0.57974156626E+01  0.13174145806E+02  0.51100000000E-03 0. -1.
        -11    1    3    3    0    0  0.83120926274E+01  0.70758209392E+01  0.16171335122E+02  0.19510771530E+02  0.51100000000E-03 0.  1.
         12    1    3    3    0    0  0.12748174325E+02 -0.26643993902E+00  0.12482739403E+02  0.17843926751E+02  0.00000000000E+00 0. -1.
</event>
<event>
 7    1  0.5748623E-013  0.5052884E+02  0.7816164E-02  0.1300439E+00
        -11   -1    0    0    0    0  0.00000000000E+00  0.00000000000E+00  0.45593999997E+02  0.45594000000E+02  0.51100000000E-03 0.  1.
         11   -1    0    0    0    0 -0.00000000000E+00 -0.00000000000E+00 -0.45593999997E+02  0.45594000000E+02  0.51100000000E-03 0. -1.
    9900012    2    1    2    0    0  0.47458222035E+01  0.17571301719E+02  0.36357859376E+02  0.50528838536E+02  0.29999935215E+02 0.  0.
         12    1    1    2    0    0 -0.47458222035E+01 -0.17571301719E+02 -0.36357859376E+02  0.40659161464E+02  0.00000000000E+00 0. -1.
         11    1    3    3    0    0  0.83561653745E+00  0.14393911037E+02  0.18304218295E+01  0.14533869900E+02  0.51100000000E-03 0. -1.
        -11    1    3    3    0    0 -0.12207787923E+01  0.37685849597E+01  0.23327640489E+02  0.23661600633E+02  0.51100000000E-03 0.  1.
         12    1    3    3    0    0  0.51309844583E+01 -0.59119427716E+00  0.11199797058E+02  0.12333368004E+02  0.00000000000E+00 0. -1.
</event>
<event>
 7    1  0.5748623E-013  0.5052886E+02  0.7816164E-02  0.1300439E+00
        -11   -1    0    0    0    0  0.00000000000E+00  0.00000000000E+00  0.45593999997E+02  0.45594000000E+02  0.51100000000E-03 0.  1.
         11   -1    0    0    0    0 -0.00000000000E+00 -0.00000000000E+00 -0.45593999997E+02  0.45594000000E+02  0.51100000000E-03 0. -1.
    9900012    2    1    2    0    0  0.20743949299E+01  0.15759131779E+02  0.37423420708E+02  0.50528858762E+02  0.29999996693E+02 0.  0.
         12    1    1    2    0    0 -0.20743949299E+01 -0.15759131779E+02 -0.37423420708E+02  0.40659141238E+02  0.00000000000E+00 0. -1.
         11    1    3    3    0    0  0.40914500165E+01 -0.57945885737E+01  0.53869342635E+00  0.71138885882E+01  0.51100000000E-03 0. -1.
        -11    1    3    3    0    0  0.89106443035E+00  0.18797629609E+02  0.29004264845E+02  0.34574445103E+02  0.51100000000E-03 0.  1.
        -12    1    3    3    0    0 -0.29081195170E+01  0.27560907435E+01  0.78804624363E+01  0.88405250704E+01  0.00000000000E+00 0.  1.
</event>
<event>
 7    1  0.5748623E-013  0.5052886E+02  0.7816164E-02  0.1300439E+00
        -11   -1    0    0    0    0  0.00000000000E+00  0.00000000000E+00  0.45593999997E+02  0.45594000000E+02  0.51100000000E-03 0.  1.
         11   -1    0    0    0    0 -0.00000000000E+00 -0.00000000000E+00 -0.45593999997E+02  0.45594000000E+02  0.51100000000E-03 0. -1.
    9900012    2    1    2    0    0  0.34098573990E+02  0.15350364039E+02 -0.15963064578E+02  0.50528857670E+02  0.29999993375E+02 0.  0.
         12    1    1    2    0    0 -0.34098573990E+02 -0.15350364039E+02  0.15963064578E+02  0.40659142330E+02  0.00000000000E+00 0. -1.
         11    1    3    3    0    0 -0.10671342082E+01 -0.46401246226E+00 -0.87732103386E+01  0.88500453609E+01  0.51100000000E-03 0. -1.
        -11    1    3    3    0    0  0.12226049294E+02 -0.12673943785E+01 -0.38668395814E+01  0.12885457635E+02  0.51100000000E-03 0.  1.
         12    1    3    3    0    0  0.22939658904E+02  0.17081770879E+02 -0.33230146580E+01  0.28793354675E+02  0.00000000000E+00 0. -1.
</event>
<event>
 7    1  0.5748623E-013  0.5052889E+02  0.7816164E-02  0.1300439E+00
        -11   -1    0    0    0    0  0.00000000000E+00  0.00000000000E+00  0.45593999997E+02  0.45594000000E+02  0.51100000000E-03 0.  1.
         11   -1    0    0    0    0 -0.00000000000E+00 -0.00000000000E+00 -0.45593999997E+02  0.45594000000E+02  0.51100000000E-03 0. -1.
    9900012    2    1    2    0    0  0.33590673695E+02  0.21314243965E+02  0.83984053120E+01  0.50528885808E+02  0.30000078901E+02 0.  0.
         12    1    1    2    0    0 -0.33590673695E+02 -0.21314243965E+02 -0.83984053120E+01  0.40659114192E+02  0.00000000000E+00 0. -1.
         11    1    3    3    0    0  0.17882935253E+02  0.25442592810E+01 -0.64063618261E+01  0.19165440268E+02  0.51100000000E-03 0. -1.
        -11    1    3    3    0    0  0.15963324814E+02  0.19785950452E+02  0.11511304253E+02  0.27907377165E+02  0.51100000000E-03 0.  1.
         12    1    3    3    0    0 -0.25558637195E+00 -0.10159657671E+01  0.32934628851E+01  0.34560683745E+01  0.00000000000E+00 0. -1.
</event>
<event>
 7    1  0.5748623E-013  0.5052884E+02  0.7816164E-02  0.1300439E+00
        -11   -1    0    0    0    0  0.00000000000E+00  0.00000000000E+00  0.45593999997E+02  0.45594000000E+02  0.51100000000E-03 0.  1.
         11   -1    0    0    0    0 -0.00000000000E+00 -0.00000000000E+00 -0.45593999997E+02  0.45594000000E+02  0.51100000000E-03 0. -1.
    9900012    2    1    2    0    0  0.26599786157E+02 -0.26816561291E+02  0.15049604777E+02  0.50528841290E+02  0.29999943584E+02 0.  0.
         12    1    1    2    0    0 -0.26599786157E+02  0.26816561291E+02 -0.15049604777E+02  0.40659158710E+02  0.00000000000E+00 0. -1.
         11    1    3    3    0    0  0.21585431942E+00 -0.19446578009E+01  0.41958184218E+01  0.46295982050E+01  0.51100000000E-03 0. -1.
        -11    1    3    3    0    0  0.31680492087E+02 -0.21132307240E+02  0.86563099024E+01  0.39053292941E+02  0.51100000000E-03 0.  1.
        -12    1    3    3    0    0 -0.52965602503E+01 -0.37395962509E+01  0.21974764529E+01  0.68459501434E+01  0.00000000000E+00 0.  1.
</event>
<event>
 7    1  0.5748623E-013  0.5052886E+02  0.7816164E-02  0.1300439E+00
        -11   -1    0    0    0    0  0.00000000000E+00  0.00000000000E+00  0.45593999997E+02  0.45594000000E+02  0.51100000000E-03 0.  1.
         11   -1    0    0    0    0 -0.00000000000E+00 -0.00000000000E+00 -0.45593999997E+02  0.45594000000E+02  0.51100000000E-03 0. -1.
    9900012    2    1    2    0    0  0.71637504988E+00  0.82657369044E+01  0.39803642106E+02  0.50528861733E+02  0.30000005722E+02 0.  0.
         12    1    1    2    0    0 -0.71637504988E+00 -0.82657369044E+01 -0.39803642106E+02  0.40659138267E+02  0.00000000000E+00 0. -1.
         11    1    3    3    0    0 -0.68545746914E+01  0.15510443219E+02  0.14141868241E+02  0.22080567942E+02  0.51100000000E-03 0. -1.
        -11    1    3    3    0    0  0.27348310772E+01 -0.68408825017E+01  0.14082830639E+02  0.15893492174E+02  0.51100000000E-03 0.  1.
         12    1    3    3    0    0  0.48361186642E+01 -0.40382381262E+00  0.11578943226E+02  0.12554801617E+02  0.00000000000E+00 0. -1.
</event>
<event>
 7    1  0.5748623E-013  0.5052888E+02  0.7816164E-02  0.1300439E+00
        -11   -1    0    0    0    0  0.00000000000E+00  0.00000000000E+00  0.45593999997E+02  0.45594000000E+02  0.51100000000E-03 0.  1.
         11   -1    0    0    0    0 -0.00000000000E+00 -0.00000000000E+00 -0.45593999997E+02  0.45594000000E+02  0.51100000000E-03 0. -1.
    9900012    2    1    2    0    0  0.28940951456E+02 -0.13983571334E+02  0.24900712082E+02  0.50528875555E+02  0.30000047738E+02 0.  0.
         12    1    1    2    0    0 -0.28940951456E+02  0.13983571334E+02 -0.24900712082E+02  0.40659124445E+02  0.00000000000E+00 0. -1.
         11    1    3    3    0    0  0.11553614082E+02 -0.52736103909E+01  0.12565491954E+00  0.12700895808E+02  0.51100000000E-03 0. -1.
        -11    1    3    3    0    0  0.16112850317E+02 -0.68471724031E+01  0.28514489390E+02  0.33460182616E+02  0.51100000000E-03 0.  1.
        -12    1    3    3    0    0  0.12744870567E+01 -0.18627885400E+01 -0.37394322270E+01  0.43677971316E+01  0.00000000000E+00 0.  1.
</event>
<event>
 7    1  0.5748623E-013  0.5052885E+02  0.7816164E-02  0.1300439E+00
        -11   -1    0    0    0    0  0.00000000000E+00  0.00000000000E+00  0.45593999997E+02  0.45594000000E+02  0.51100000000E-03 0.  1.
         11   -1    0    0    0    0 -0.00000000000E+00 -0.00000000000E+00 -0.45593999997E+02  0.45594000000E+02  0.51100000000E-03 0. -1.
    9900012    2    1    2    0    0 -0.37813908785E+02 -0.92972649265E+01  0.11697672518E+02  0.50528851275E+02  0.29999973934E+02 0.  0.
         12    1    1    2    0    0  0.37813908785E+02  0.92972649265E+01 -0.11697672518E+02  0.40659148725E+02  0.00000000000E+00 0. -1.
         11    1    3    3    0    0 -0.81322698859E+01  0.76619690936E+01 -0.26956829623E+01  0.11493750075E+02  0.51100000000E-03 0. -1.
        -11    1    3    3    0    0 -0.11498129771E+02 -0.12564417284E+02  0.10238955572E+02  0.19872286767E+02  0.51100000000E-03 0.  1.
         12    1    3    3    0    0 -0.18183509128E+02 -0.43948167365E+01  0.41543999088E+01  0.19162814432E+02  0.00000000000E+00 0. -1.
</event>
<event>
 7    1  0.5748623E-013  0.5052888E+02  0.7816164E-02  0.1300439E+00
        -11   -1    0    0    0    0  0.00000000000E+00  0.00000000000E+00  0.45593999997E+02  0.45594000000E+02  0.51100000000E-03 0. -1.
         11   -1    0    0    0    0 -0.00000000000E+00 -0.00000000000E+00 -0.45593999997E+02  0.45594000000E+02  0.51100000000E-03 0.  1.
    9900012    2    1    2    0    0 -0.40343762672E+02 -0.44986695031E+01 -0.23037157474E+01  0.50528876546E+02  0.30000050749E+02 0.  0.
         12    1    1    2    0    0  0.40343762672E+02  0.44986695031E+01  0.23037157474E+01  0.40659123454E+02  0.00000000000E+00 0. -1.
         11    1    3    3    0    0 -0.66617798051E+01  0.70571151248E+01  0.80349353684E+01  0.12599300405E+02  0.51100000000E-03 0. -1.
        -11    1    3    3    0    0 -0.19175069888E+02 -0.93788784784E+01 -0.30944338959E+01  0.21569009901E+02  0.51100000000E-03 0.  1.
         12    1    3    3    0    0 -0.14506912979E+02 -0.21769061495E+01 -0.72442172199E+01  0.16360566240E+02  0.00000000000E+00 0. -1.
</event>
<event>
 7    1  0.5748623E-013  0.5052884E+02  0.7816164E-02  0.1300439E+00
        -11   -1    0    0    0    0  0.00000000000E+00  0.00000000000E+00  0.45593999997E+02  0.45594000000E+02  0.51100000000E-03 0.  1.
         11   -1    0    0    0    0 -0.00000000000E+00 -0.00000000000E+00 -0.45593999997E+02  0.45594000000E+02  0.51100000000E-03 0. -1.
    9900012    2    1    2    0    0  0.36736012152E+01  0.15262752615E+02  0.37506266307E+02  0.50528843890E+02  0.29999951488E+02 0.  0.
         12    1    1    2    0    0 -0.36736012152E+01 -0.15262752615E+02 -0.37506266307E+02  0.40659156110E+02  0.00000000000E+00 0. -1.
         11    1    3    3    0    0 -0.63611360071E+01 -0.10923940674E+01  0.54707683683E+00  0.64773968094E+01  0.51100000000E-03 0. -1.
        -11    1    3    3    0    0  0.11383206695E+02  0.83579074005E+01  0.30748536954E+02  0.33836437990E+02  0.51100000000E-03 0.  1.
        -12    1    3    3    0    0 -0.13484694730E+01  0.79972392814E+01  0.62106525164E+01  0.10215009091E+02  0.00000000000E+00 0.  1.
</event>
<event>
 7    1  0.5748623E-013  0.5052883E+02  0.7816164E-02  0.1300439E+00
        -11   -1    0    0    0    0  0.00000000000E+00  0.00000000000E+00  0.45593999997E+02  0.45594000000E+02  0.51100000000E-03 0. -1.
         11   -1    0    0    0    0 -0.00000000000E+00 -0.00000000000E+00 -0.45593999997E+02  0.45594000000E+02  0.51100000000E-03 0.  1.
    9900012    2    1    2    0    0 -0.17831531766E+02 -0.36460659870E+02  0.24133985585E+01  0.50528834540E+02  0.29999923068E+02 0.  0.
         12    1    1    2    0    0  0.17831531766E+02  0.36460659870E+02 -0.24133985585E+01  0.40659165460E+02  0.00000000000E+00 0. -1.
         11    1    3    3    0    0  0.26384565674E+01  0.76392780287E+00  0.44908557906E+01  0.52642971743E+01  0.51100000000E-03 0. -1.
        -11    1    3    3    0    0 -0.17639644763E+02 -0.16094916061E+02 -0.17613041839E+01  0.23943800514E+02  0.51100000000E-03 0.  1.
        -12    1    3    3    0    0 -0.28303435709E+01 -0.21129671612E+02 -0.31615304826E+00  0.21320736852E+02  0.00000000000E+00 0.  1.
</event>
<event>
 7    1  0.5748623E-013  0.5052886E+02  0.7816164E-02  0.1300439E+00
        -11   -1    0    0    0    0  0.00000000000E+00  0.00000000000E+00  0.45593999997E+02  0.45594000000E+02  0.51100000000E-03 0. -1.
         11   -1    0    0    0    0 -0.00000000000E+00 -0.00000000000E+00 -0.45593999997E+02  0.45594000000E+02  0.51100000000E-03 0.  1.
    9900012    2    1    2    0    0 -0.23129761358E+02 -0.29944379693E+02  0.14883345681E+02  0.50528859400E+02  0.29999998633E+02 0.  0.
         12    1    1    2    0    0  0.23129761358E+02  0.29944379693E+02 -0.14883345681E+02  0.40659140600E+02  0.00000000000E+00 0. -1.
         11    1    3    3    0    0 -0.31587472967E+01 -0.22831140027E+02  0.42430102969E+01  0.23435907835E+02  0.51100000000E-03 0. -1.
        -11    1    3    3    0    0 -0.11954402174E+02 -0.32224461506E+01 -0.10137046648E+01  0.12422539513E+02  0.51100000000E-03 0.  1.
         12    1    3    3    0    0 -0.80166118871E+01 -0.38907935150E+01  0.11654040049E+02  0.14670412052E+02  0.00000000000E+00 0. -1.
</event>
<event>
 7    1  0.5748623E-013  0.5052885E+02  0.7816164E-02  0.1300439E+00
        -11   -1    0    0    0    0  0.00000000000E+00  0.00000000000E+00  0.45593999997E+02  0.45594000000E+02  0.51100000000E-03 0. -1.
         11   -1    0    0    0    0 -0.00000000000E+00 -0.00000000000E+00 -0.45593999997E+02  0.45594000000E+02  0.51100000000E-03 0.  1.
    9900012    2    1    2    0    0  0.17590135868E+02 -0.12481153807E+02 -0.34467000023E+02  0.50528853787E+02  0.29999981571E+02 0.  0.
         12    1    1    2    0    0 -0.17590135868E+02  0.12481153807E+02  0.34467000023E+02  0.40659146213E+02  0.00000000000E+00 0. -1.
         11    1    3    3    0    0  0.55781436489E+01  0.53792955043E+01 -0.14415937241E+02  0.16366788123E+02  0.51100000000E-03 0. -1.
        -11    1    3    3    0    0  0.40476260080E+01 -0.14281431800E+02 -0.20625412615E+02  0.25411615777E+02  0.51100000000E-03 0.  1.
         12    1    3    3    0    0  0.79643662112E+01 -0.35790175109E+01  0.57434983340E+00  0.87504498868E+01  0.00000000000E+00 0. -1.
</event>
<event>
 7    1  0.5748623E-013  0.5052887E+02  0.7816164E-02  0.1300439E+00
        -11   -1    0    0    0    0  0.00000000000E+00  0.00000000000E+00  0.45593999997E+02  0.45594000000E+02  0.51100000000E-03 0. -1.
         11   -1    0    0    0    0 -0.00000000000E+00 -0.00000000000E+00 -0.45593999997E+02  0.45594000000E+02  0.51100000000E-03 0.  1.
    9900012    2    1    2    0    0  0.19938983200E+02  0.54433589310E+01 -0.35013875870E+02  0.50528871739E+02  0.30000036138E+02 0.  0.
         12    1    1    2    0    0 -0.19938983200E+02 -0.54433589310E+01  0.35013875870E+02  0.40659128261E+02  0.00000000000E+00 0. -1.
         11    1    3    3    0    0 -0.73166910471E+00  0.36375106918E+01 -0.35783160781E+01  0.51547230699E+01  0.51100000000E-03 0. -1.
        -11    1    3    3    0    0  0.12723430750E+02 -0.11545280910E+02 -0.16248729272E+02  0.23647418560E+02  0.51100000000E-03 0.  1.
        -12    1    3    3    0    0  0.79472215542E+01  0.13351129149E+02 -0.15186830520E+02  0.21726730109E+02  0.00000000000E+00 0.  1.
</event>
<event>
 7    1  0.5748623E-013  0.5052880E+02  0.7816164E-02  0.1300439E+00
        -11   -1    0    0    0    0  0.00000000000E+00  0.00000000000E+00  0.45593999997E+02  0.45594000000E+02  0.51100000000E-03 0.  1.
         11   -1    0    0    0    0 -0.00000000000E+00 -0.00000000000E+00 -0.45593999997E+02  0.45594000000E+02  0.51100000000E-03 0. -1.
    9900012    2    1    2    0    0 -0.18922052993E+02 -0.30215052344E+02  0.19549341591E+02  0.50528803816E+02  0.29999829680E+02 0.  0.
         12    1    1    2    0    0  0.18922052993E+02  0.30215052344E+02 -0.19549341591E+02  0.40659196184E+02  0.00000000000E+00 0. -1.
         11    1    3    3    0    0 -0.36392989931E+01  0.34730416019E+00 -0.42759524125E+01  0.56257343197E+01  0.51100000000E-03 0. -1.
        -11    1    3    3    0    0 -0.13785264716E+02 -0.31319062136E+02  0.17647158557E+02  0.38501160785E+02  0.51100000000E-03 0.  1.
         12    1    3    3    0    0 -0.14974892841E+01  0.75670563106E+00  0.61781354461E+01  0.64019087121E+01  0.00000000000E+00 0. -1.
</event>
<event>
 7    1  0.5748623E-013  0.5052885E+02  0.7816164E-02  0.1300439E+00
        -11   -1    0    0    0    0  0.00000000000E+00  0.00000000000E+00  0.45593999997E+02  0.45594000000E+02  0.51100000000E-03 0.  1.
         11   -1    0    0    0    0 -0.00000000000E+00 -0.00000000000E+00 -0.45593999997E+02  0.45594000000E+02  0.51100000000E-03 0. -1.
    9900012    2    1    2    0    0  0.19185032778E+02 -0.34017515969E+02  0.11309726815E+02  0.50528846098E+02  0.29999958199E+02 0.  0.
         12    1    1    2    0    0 -0.19185032778E+02  0.34017515969E+02 -0.11309726815E+02  0.40659153902E+02  0.00000000000E+00 0. -1.
         11    1    3    3    0    0  0.63558138227E+01 -0.43237984817E+01  0.12043418834E+01  0.77808767047E+01  0.51100000000E-03 0. -1.
        -11    1    3    3    0    0 -0.29259055906E+01 -0.24521685576E+02  0.83681093882E+01  0.26074877603E+02  0.51100000000E-03 0.  1.
        -12    1    3    3    0    0  0.15755124546E+02 -0.51720319118E+01  0.17372755429E+01  0.16673091791E+02  0.00000000000E+00 0.  1.
</event>
<event>
 7    1  0.5748623E-013  0.5052887E+02  0.7816164E-02  0.1300439E+00
        -11   -1    0    0    0    0  0.00000000000E+00  0.00000000000E+00  0.45593999997E+02  0.45594000000E+02  0.51100000000E-03 0.  1.
         11   -1    0    0    0    0 -0.00000000000E+00 -0.00000000000E+00 -0.45593999997E+02  0.45594000000E+02  0.51100000000E-03 0. -1.
    9900012    2    1    2    0    0  0.34659393713E+02 -0.13039192159E+02  0.16789014460E+02  0.50528866816E+02  0.30000021174E+02 0.  0.
         12    1    1    2    0    0 -0.34659393713E+02  0.13039192159E+02 -0.16789014460E+02  0.40659133184E+02  0.00000000000E+00 0. -1.
         11    1    3    3    0    0 -0.18513858495E+01 -0.13140503228E+01 -0.16931356968E-02  0.22703217707E+01  0.51100000000E-03 0. -1.
        -11    1    3    3    0    0  0.24327287675E+02 -0.59263995152E+01  0.22447380467E+02  0.33627727056E+02  0.51100000000E-03 0.  1.
        -12    1    3    3    0    0  0.12183491888E+02 -0.57987423207E+01 -0.56566728708E+01  0.14630817990E+02  0.00000000000E+00 0.  1.
</event>
<event>
 7    1  0.5748623E-013  0.5052885E+02  0.7816164E-02  0.1300439E+00
        -11   -1    0    0    0    0  0.00000000000E+00  0.00000000000E+00  0.45593999997E+02  0.45594000000E+02  0.51100000000E-03 0. -1.
         11   -1    0    0    0    0 -0.00000000000E+00 -0.00000000000E+00 -0.45593999997E+02  0.45594000000E+02  0.51100000000E-03 0.  1.
    9900012    2    1    2    0    0 -0.37253516277E+02 -0.14126778480E+02 -0.81102639976E+01  0.50528846943E+02  0.29999960767E+02 0.  0.
         12    1    1    2    0    0  0.37253516277E+02  0.14126778480E+02  0.81102639976E+01  0.40659153057E+02  0.00000000000E+00 0. -1.
         11    1    3    3    0    0 -0.20819745825E+01  0.39880087733E+01  0.12770415628E+01  0.46765016360E+01  0.51100000000E-03 0. -1.
        -11    1    3    3    0    0 -0.26529647266E+02 -0.97562164038E+01 -0.15635521709E+02  0.32302871110E+02  0.51100000000E-03 0.  1.
        -12    1    3    3    0    0 -0.86418944285E+01 -0.83585708498E+01  0.62482161489E+01  0.13549474197E+02  0.00000000000E+00 0.  1.
</event>
<event>
 7    1  0.5748623E-013  0.5052886E+02  0.7816164E-02  0.1300439E+00
        -11   -1    0    0    0    0  0.00000000000E+00  0.00000000000E+00  0.45593999997E+02  0.45594000000E+02  0.51100000000E-03 0.  1.
         11   -1    0    0    0    0 -0.00000000000E+00 -0.00000000000E+00 -0.45593999997E+02  0.45594000000E+02  0.51100000000E-03 0. -1.
    9900012    2    1    2    0    0  0.17252796332E+02  0.63083063204E+01  0.36272742545E+02  0.50528861278E+02  0.30000004340E+02 0.  0.
         12    1    1    2    0    0 -0.17252796332E+02 -0.63083063204E+01 -0.36272742545E+02  0.40659138722E+02  0.00000000000E+00 0. -1.
         11    1    3    3    0    0  0.13690153597E+02 -0.96816271498E+01  0.19252999271E+02  0.25531004504E+02  0.51100000000E-03 0. -1.
        -11    1    3    3    0    0  0.27463741548E+00  0.42409241274E+01  0.10132633964E+02  0.10987772043E+02  0.51100000000E-03 0.  1.
         12    1    3    3    0    0  0.32880053192E+01  0.11749009343E+02  0.68871093098E+01  0.14010084731E+02  0.00000000000E+00 0. -1.
</event>
<event>
 7    1  0.5748623E-013  0.5052886E+02  0.7816164E-02  0.1300439E+00
        -11   -1    0    0    0    0  0.00000000000E+00  0.00000000000E+00  0.45593999997E+02  0.45594000000E+02  0.51100000000E-03 0. -1.
         11   -1    0    0    0    0 -0.00000000000E+00 -0.00000000000E+00 -0.45593999997E+02  0.45594000000E+02  0.51100000000E-03 0.  1.
    9900012    2    1    2    0    0  0.16545670826E+02 -0.26358823108E+02 -0.26165224686E+02  0.50528858818E+02  0.29999996865E+02 0.  0.
         12    1    1    2    0    0 -0.16545670826E+02  0.26358823108E+02  0.26165224686E+02  0.40659141182E+02  0.00000000000E+00 0. -1.
         11    1    3    3    0    0 -0.43495094499E+01 -0.14874451588E+02 -0.79807330551E+01  0.17431570292E+02  0.51100000000E-03 0. -1.
        -11    1    3    3    0    0  0.79136334353E+01  0.27499102255E+01 -0.59533458341E+01  0.10277642107E+02  0.51100000000E-03 0.  1.
        -12    1    3    3    0    0  0.12981546840E+02 -0.14234281746E+02 -0.12231145797E+02  0.22819646419E+02  0.00000000000E+00 0.  1.
</event>
<event>
 7    1  0.5748623E-013  0.5052886E+02  0.7816164E-02  0.1300439E+00
        -11   -1    0    0    0    0  0.00000000000E+00  0.00000000000E+00  0.45593999997E+02  0.45594000000E+02  0.51100000000E-03 0. -1.
         11   -1    0    0    0    0 -0.00000000000E+00 -0.00000000000E+00 -0.45593999997E+02  0.45594000000E+02  0.51100000000E-03 0.  1.
    9900012    2    1    2    0    0 -0.38574813557E+02 -0.91825233203E+01 -0.89905787981E+01  0.50528862250E+02  0.30000007294E+02 0.  0.
         12    1    1    2    0    0  0.38574813557E+02  0.91825233203E+01  0.89905787981E+01  0.40659137750E+02  0.00000000000E+00 0. -1.
         11    1    3    3    0    0 -0.94817499119E+01  0.58677206829E+01 -0.17551090270E+01  0.11287787000E+02  0.51100000000E-03 0. -1.
        -11    1    3    3    0    0 -0.27623370141E+02 -0.16428234011E+02 -0.11811612730E+02  0.34241081265E+02  0.51100000000E-03 0.  1.
        -12    1    3    3    0    0 -0.14696935041E+01  0.13779900080E+01  0.45761429592E+01  0.49999939841E+01  0.00000000000E+00 0.  1.
</event>
<event>
 7    1  0.5748623E-013  0.5052887E+02  0.7816164E-02  0.1300439E+00
        -11   -1    0    0    0    0  0.00000000000E+00  0.00000000000E+00  0.45593999997E+02  0.45594000000E+02  0.51100000000E-03 0. -1.
         11   -1    0    0    0    0 -0.00000000000E+00 -0.00000000000E+00 -0.45593999997E+02  0.45594000000E+02  0.51100000000E-03 0.  1.
    9900012    2    1    2    0    0 -0.24859108613E+02  0.37537068662E+01 -0.31954646600E+02  0.50528867747E+02  0.30000024003E+02 0.  0.
         12    1    1    2    0    0  0.24859108613E+02 -0.37537068662E+01  0.31954646600E+02  0.40659132253E+02  0.00000000000E+00 0. -1.
         11    1    3    3    0    0 -0.81468294578E+01  0.82022444196E+01  0.23769504545E+01  0.11802437776E+02  0.51100000000E-03 0. -1.
        -11    1    3    3    0    0 -0.94994709303E+01 -0.40391166692E+01 -0.16207737647E+02  0.19215753207E+02  0.51100000000E-03 0.  1.
         12    1    3    3    0    0 -0.72128082251E+01 -0.40942088420E+00 -0.18123859408E+02  0.19510676764E+02  0.00000000000E+00 0. -1.
</event>
<event>
 7    1  0.5748623E-013  0.5052886E+02  0.7816164E-02  0.1300439E+00
        -11   -1    0    0    0    0  0.00000000000E+00  0.00000000000E+00  0.45593999997E+02  0.45594000000E+02  0.51100000000E-03 0.  1.
         11   -1    0    0    0    0 -0.00000000000E+00 -0.00000000000E+00 -0.45593999997E+02  0.45594000000E+02  0.51100000000E-03 0. -1.
    9900012    2    1    2    0    0  0.29532093924E+02 -0.10678764079E+02  0.25826060348E+02  0.50528856294E+02  0.29999989191E+02 0.  0.
         12    1    1    2    0    0 -0.29532093924E+02  0.10678764079E+02 -0.25826060348E+02  0.40659143706E+02  0.00000000000E+00 0. -1.
         11    1    3    3    0    0  0.63534531580E+01 -0.15693372597E+02  0.43335696545E+01  0.17476502417E+02  0.51100000000E-03 0. -1.
        -11    1    3    3    0    0  0.22145160845E+01  0.25086509133E+01  0.59811286518E+01  0.68535619282E+01  0.51100000000E-03 0.  1.
         12    1    3    3    0    0  0.20964124682E+02  0.25059576048E+01  0.15511362042E+02  0.26198791949E+02  0.00000000000E+00 0. -1.
</event>
<event>
 7    1  0.5748623E-013  0.5052897E+02  0.7816164E-02  0.1300438E+00
        -11   -1    0    0    0    0  0.00000000000E+00  0.00000000000E+00  0.45593999997E+02  0.45594000000E+02  0.51100000000E-03 0.  1.
         11   -1    0    0    0    0 -0.00000000000E+00 -0.00000000000E+00 -0.45593999997E+02  0.45594000000E+02  0.51100000000E-03 0. -1.
    9900012    2    1    2    0    0  0.11694309373E+02 -0.14157752263E+02  0.36276134555E+02  0.50528969526E+02  0.30000333368E+02 0.  0.
         12    1    1    2    0    0 -0.11694309373E+02  0.14157752263E+02 -0.36276134555E+02  0.40659030474E+02  0.00000000000E+00 0. -1.
         11    1    3    3    0    0  0.93612099963E+01  0.44566449155E+01  0.11690105847E+02  0.15625380363E+02  0.51100000000E-03 0. -1.
        -11    1    3    3    0    0 -0.39436111684E+01 -0.11394537796E+02  0.21845142211E+02  0.24951909729E+02  0.51100000000E-03 0.  1.
         12    1    3    3    0    0  0.62767105453E+01 -0.72198593824E+01  0.27408864972E+01  0.99516794342E+01  0.00000000000E+00 0. -1.
</event>
<event>
 7    1  0.5748623E-013  0.5052886E+02  0.7816164E-02  0.1300439E+00
        -11   -1    0    0    0    0  0.00000000000E+00  0.00000000000E+00  0.45593999997E+02  0.45594000000E+02  0.51100000000E-03 0.  1.
         11   -1    0    0    0    0 -0.00000000000E+00 -0.00000000000E+00 -0.45593999997E+02  0.45594000000E+02  0.51100000000E-03 0. -1.
    9900012    2    1    2    0    0 -0.13364388919E+02 -0.65638455134E+01  0.37834838190E+02  0.50528856625E+02  0.29999990197E+02 0.  0.
         12    1    1    2    0    0  0.13364388919E+02  0.65638455134E+01 -0.37834838190E+02  0.40659143375E+02  0.00000000000E+00 0. -1.
         11    1    3    3    0    0 -0.42201100350E+01  0.29842804394E+01  0.32236587789E+00  0.51787236332E+01  0.51100000000E-03 0. -1.
        -11    1    3    3    0    0 -0.14582350767E+02 -0.34493603149E+01  0.32437049931E+02  0.35731012425E+02  0.51100000000E-03 0.  1.
        -12    1    3    3    0    0  0.54380718835E+01 -0.60987656378E+01  0.50754223819E+01  0.96191205663E+01  0.00000000000E+00 0.  1.
</event>
<event>
 7    1  0.5748623E-013  0.5052886E+02  0.7816164E-02  0.1300439E+00
        -11   -1    0    0    0    0  0.00000000000E+00  0.00000000000E+00  0.45593999997E+02  0.45594000000E+02  0.51100000000E-03 0.  1.
         11   -1    0    0    0    0 -0.00000000000E+00 -0.00000000000E+00 -0.45593999997E+02  0.45594000000E+02  0.51100000000E-03 0. -1.
    9900012    2    1    2    0    0  0.37074903919E+02  0.86825800430E+01  0.14255880325E+02  0.50528858093E+02  0.29999994658E+02 0.  0.
         12    1    1    2    0    0 -0.37074903919E+02 -0.86825800430E+01 -0.14255880325E+02  0.40659141907E+02  0.00000000000E+00 0. -1.
         11    1    3    3    0    0  0.77001992839E+00  0.82626517827E-01  0.67199788976E+01  0.67644567023E+01  0.51100000000E-03 0. -1.
        -11    1    3    3    0    0  0.27395619466E+02  0.15826867387E+02  0.55765868002E+01  0.32126437988E+02  0.51100000000E-03 0.  1.
        -12    1    3    3    0    0  0.89092645253E+01 -0.72269138619E+01  0.19593146267E+01  0.11637963402E+02  0.00000000000E+00 0.  1.
</event>
<event>
 7    1  0.5748623E-013  0.5052885E+02  0.7816164E-02  0.1300439E+00
        -11   -1    0    0    0    0  0.00000000000E+00  0.00000000000E+00  0.45593999997E+02  0.45594000000E+02  0.51100000000E-03 0. -1.
         11   -1    0    0    0    0 -0.00000000000E+00 -0.00000000000E+00 -0.45593999997E+02  0.45594000000E+02  0.51100000000E-03 0.  1.
    9900012    2    1    2    0    0 -0.26331406720E+02 -0.19258943886E+02 -0.24267598918E+02  0.50528852730E+02  0.29999978359E+02 0.  0.
         12    1    1    2    0    0  0.26331406720E+02  0.19258943886E+02  0.24267598918E+02  0.40659147270E+02  0.00000000000E+00 0. -1.
         11    1    3    3    0    0 -0.12273766961E+02 -0.18544756737E+02 -0.27035443373E+01  0.22402288055E+02  0.51100000000E-03 0. -1.
        -11    1    3    3    0    0 -0.11290671808E+02 -0.40776059315E+01 -0.20313231511E+02  0.23595201094E+02  0.51100000000E-03 0.  1.
        -12    1    3    3    0    0 -0.27669679513E+01  0.33634187826E+01 -0.12508230700E+01  0.45313635810E+01  0.00000000000E+00 0.  1.
</event>
<event>
 7    1  0.5748623E-013  0.5052886E+02  0.7816164E-02  0.1300439E+00
        -11   -1    0    0    0    0  0.00000000000E+00  0.00000000000E+00  0.45593999997E+02  0.45594000000E+02  0.51100000000E-03 0.  1.
         11   -1    0    0    0    0 -0.00000000000E+00 -0.00000000000E+00 -0.45593999997E+02  0.45594000000E+02  0.51100000000E-03 0. -1.
    9900012    2    1    2    0    0 -0.11849390985E+00 -0.13710111297E+02  0.38277726519E+02  0.50528861543E+02  0.30000005146E+02 0.  0.
         12    1    1    2    0    0  0.11849390985E+00  0.13710111297E+02 -0.38277726519E+02  0.40659138457E+02  0.00000000000E+00 0. -1.
         11    1    3    3    0    0 -0.13155321914E+01  0.55251183446E+01  0.17638511898E+02  0.18530371284E+02  0.51100000000E-03 0. -1.
        -11    1    3    3    0    0  0.24861257929E+01 -0.14194556714E+02  0.45853289071E+01  0.15122549495E+02  0.51100000000E-03 0.  1.
        -12    1    3    3    0    0 -0.12890875114E+01 -0.50406729276E+01  0.16053885714E+02  0.16875940765E+02  0.00000000000E+00 0.  1.
</event>
<event>
 7    1  0.5748623E-013  0.5052885E+02  0.7816164E-02  0.1300439E+00
        -11   -1    0    0    0    0  0.00000000000E+00  0.00000000000E+00  0.45593999997E+02  0.45594000000E+02  0.51100000000E-03 0. -1.
         11   -1    0    0    0    0 -0.00000000000E+00 -0.00000000000E+00 -0.45593999997E+02  0.45594000000E+02  0.51100000000E-03 0.  1.
    9900012    2    1    2    0    0 -0.19572871692E+02 -0.18042590596E+02 -0.30733270572E+02  0.50528852177E+02  0.29999976676E+02 0.  0.
         12    1    1    2    0    0  0.19572871692E+02  0.18042590596E+02  0.30733270572E+02  0.40659147823E+02  0.00000000000E+00 0. -1.
         11    1    3    3    0    0 -0.41410443949E+01 -0.35100297181E+01 -0.22944984534E+02  0.23578398436E+02  0.51100000000E-03 0. -1.
        -11    1    3    3    0    0 -0.17693651458E+02 -0.15237190414E+02 -0.76726813335E+01  0.24578594604E+02  0.51100000000E-03 0.  1.
         12    1    3    3    0    0  0.22618241603E+01  0.70462953567E+00 -0.11560470451E+00  0.23718591363E+01  0.00000000000E+00 0. -1.
</event>
<event>
 7    1  0.5748623E-013  0.5052886E+02  0.7816164E-02  0.1300439E+00
        -11   -1    0    0    0    0  0.00000000000E+00  0.00000000000E+00  0.45593999997E+02  0.45594000000E+02  0.51100000000E-03 0.  1.
         11   -1    0    0    0    0 -0.00000000000E+00 -0.00000000000E+00 -0.45593999997E+02  0.45594000000E+02  0.51100000000E-03 0. -1.
    9900012    2    1    2    0    0 -0.35517930110E+02 -0.17639086378E+02  0.89724479759E+01  0.50528861418E+02  0.30000004766E+02 0.  0.
         12    1    1    2    0    0  0.35517930110E+02  0.17639086378E+02 -0.89724479759E+01  0.40659138582E+02  0.00000000000E+00 0. -1.
         11    1    3    3    0    0 -0.22767507083E+02 -0.12891454500E+02  0.18509612965E+02  0.32049255066E+02  0.51100000000E-03 0.  1.
        -11    1    3    3    0    0  0.24609762580E+00 -0.26526734033E+01 -0.16231302884E+01  0.31195820907E+01  0.51100000000E-03 0. -1.
         12    1    3    3    0    0 -0.12996520652E+02 -0.20949584753E+01 -0.79140347002E+01  0.15360024262E+02  0.00000000000E+00 0. -1.
</event>
<event>
 7    1  0.5748623E-013  0.5052886E+02  0.7816164E-02  0.1300439E+00
        -11   -1    0    0    0    0  0.00000000000E+00  0.00000000000E+00  0.45593999997E+02  0.45594000000E+02  0.51100000000E-03 0. -1.
         11   -1    0    0    0    0 -0.00000000000E+00 -0.00000000000E+00 -0.45593999997E+02  0.45594000000E+02  0.51100000000E-03 0.  1.
    9900012    2    1    2    0    0 -0.36441387601E+02 -0.10041949745E+02 -0.14978330870E+02  0.50528857356E+02  0.29999992418E+02 0.  0.
         12    1    1    2    0    0  0.36441387601E+02  0.10041949745E+02  0.14978330870E+02  0.40659142644E+02  0.00000000000E+00 0. -1.
         11    1    3    3    0    0 -0.61442866612E+01  0.51484195568E+00  0.95848494940E-01  0.61665637116E+01  0.51100000000E-03 0. -1.
        -11    1    3    3    0    0 -0.15680934111E+02 -0.91789995211E+01 -0.21659908065E+02  0.28271847207E+02  0.51100000000E-03 0.  1.
        -12    1    3    3    0    0 -0.14616166828E+02 -0.13777921791E+01  0.65857287008E+01  0.16090446437E+02  0.00000000000E+00 0.  1.
</event>
<event>
 7    1  0.5748623E-013  0.5052886E+02  0.7816164E-02  0.1300439E+00
        -11   -1    0    0    0    0  0.00000000000E+00  0.00000000000E+00  0.45593999997E+02  0.45594000000E+02  0.51100000000E-03 0.  1.
         11   -1    0    0    0    0 -0.00000000000E+00 -0.00000000000E+00 -0.45593999997E+02  0.45594000000E+02  0.51100000000E-03 0. -1.
    9900012    2    1    2    0    0  0.26359358316E+02 -0.16369091540E+02  0.26275515873E+02  0.50528860030E+02  0.30000000548E+02 0.  0.
         12    1    1    2    0    0 -0.26359358316E+02  0.16369091540E+02 -0.26275515873E+02  0.40659139970E+02  0.00000000000E+00 0. -1.
         11    1    3    3    0    0  0.54255231387E+01  0.38389132217E+01  0.88215382773E+01  0.11045048388E+02  0.51100000000E-03 0. -1.
        -11    1    3    3    0    0  0.12800341528E+02 -0.19542837293E+02  0.39322781255E+01  0.23690378726E+02  0.51100000000E-03 0.  1.
        -12    1    3    3    0    0  0.81334936499E+01 -0.66516746877E+00  0.13521699470E+02  0.15793432916E+02  0.00000000000E+00 0.  1.
</event>
<event>
 7    1  0.5748623E-013  0.5052886E+02  0.7816164E-02  0.1300439E+00
        -11   -1    0    0    0    0  0.00000000000E+00  0.00000000000E+00  0.45593999997E+02  0.45594000000E+02  0.51100000000E-03 0.  1.
         11   -1    0    0    0    0 -0.00000000000E+00 -0.00000000000E+00 -0.45593999997E+02  0.45594000000E+02  0.51100000000E-03 0. -1.
    9900012    2    1    2    0    0  0.15538144374E+02  0.12380624750E+02  0.35474667471E+02  0.50528857954E+02  0.29999994237E+02 0.  0.
         12    1    1    2    0    0 -0.15538144374E+02 -0.12380624750E+02 -0.35474667471E+02  0.40659142046E+02  0.00000000000E+00 0. -1.
         11    1    3    3    0    0 -0.62220425601E+01  0.77811224515E+00  0.55732487364E+00  0.62952270460E+01  0.51100000000E-03 0. -1.
        -11    1    3    3    0    0  0.18399214746E+02  0.12715913111E+02  0.33783246512E+02  0.40515840047E+02  0.51100000000E-03 0.  1.
         12    1    3    3    0    0  0.33609721878E+01 -0.11134006066E+01  0.11340960848E+01  0.37177908612E+01  0.00000000000E+00 0. -1.
</event>
<event>
 7    1  0.5748623E-013  0.5052886E+02  0.7816164E-02  0.1300439E+00
        -11   -1    0    0    0    0  0.00000000000E+00  0.00000000000E+00  0.45593999997E+02  0.45594000000E+02  0.51100000000E-03 0.  1.
         11   -1    0    0    0    0 -0.00000000000E+00 -0.00000000000E+00 -0.45593999997E+02  0.45594000000E+02  0.51100000000E-03 0. -1.
    9900012    2    1    2    0    0 -0.29561580602E+02  0.23251969270E+02  0.15447467860E+02  0.50528863439E+02  0.30000010908E+02 0.  0.
         12    1    1    2    0    0  0.29561580602E+02 -0.23251969270E+02 -0.15447467860E+02  0.40659136561E+02  0.00000000000E+00 0. -1.
         11    1    3    3    0    0 -0.50643897420E+00  0.24604673709E+00 -0.97012939716E+00  0.11216821028E+01  0.51100000000E-03 0. -1.
        -11    1    3    3    0    0 -0.19828801564E+02  0.27380167175E+02  0.51412598481E+01  0.34194845797E+02  0.51100000000E-03 0.  1.
        -12    1    3    3    0    0 -0.92263400639E+01 -0.43742446422E+01  0.11276337409E+02  0.15212335538E+02  0.00000000000E+00 0.  1.
</event>
<event>
 7    1  0.5748623E-013  0.5052887E+02  0.7816164E-02  0.1300439E+00
        -11   -1    0    0    0    0  0.00000000000E+00  0.00000000000E+00  0.45593999997E+02  0.45594000000E+02  0.51100000000E-03 0. -1.
         11   -1    0    0    0    0 -0.00000000000E+00 -0.00000000000E+00 -0.45593999997E+02  0.45594000000E+02  0.51100000000E-03 0.  1.
    9900012    2    1    2    0    0  0.91037037317E+01  0.39246709010E+02 -0.54756870145E+01  0.50528871406E+02  0.30000035125E+02 0.  0.
         12    1    1    2    0    0 -0.91037037317E+01 -0.39246709010E+02  0.54756870145E+01  0.40659128594E+02  0.00000000000E+00 0. -1.
         11    1    3    3    0    0  0.82292111638E+01  0.84268064045E+01  0.19814472445E+01  0.11943915438E+02  0.51100000000E-03 0. -1.
        -11    1    3    3    0    0 -0.36047197378E+01 -0.22784651442E+01 -0.21158574230E+01  0.47604895439E+01  0.51100000000E-03 0.  1.
        -12    1    3    3    0    0  0.44792123058E+01  0.33098367750E+02 -0.53412768361E+01  0.33824466423E+02  0.00000000000E+00 0.  1.
</event>
<event>
 7    1  0.5748623E-013  0.5052885E+02  0.7816164E-02  0.1300439E+00
        -11   -1    0    0    0    0  0.00000000000E+00  0.00000000000E+00  0.45593999997E+02  0.45594000000E+02  0.51100000000E-03 0.  1.
         11   -1    0    0    0    0 -0.00000000000E+00 -0.00000000000E+00 -0.45593999997E+02  0.45594000000E+02  0.51100000000E-03 0. -1.
    9900012    2    1    2    0    0 -0.87856994282E+01  0.14432686293E+02  0.36982093026E+02  0.50528854010E+02  0.29999982248E+02 0.  0.
         12    1    1    2    0    0  0.87856994282E+01 -0.14432686293E+02 -0.36982093026E+02  0.40659145990E+02  0.00000000000E+00 0. -1.
         11    1    3    3    0    0 -0.14856181590E+01 -0.48672635070E+01  0.12339522023E+02  0.13347700903E+02  0.51100000000E-03 0. -1.
        -11    1    3    3    0    0 -0.62003360319E-01  0.15404979251E+02  0.55153946057E+01  0.16362665066E+02  0.51100000000E-03 0.  1.
        -12    1    3    3    0    0 -0.72380779088E+01  0.38949705484E+01  0.19127176397E+02  0.20818488041E+02  0.00000000000E+00 0.  1.
</event>
<event>
 7    1  0.5748623E-013  0.5052886E+02  0.7816164E-02  0.1300439E+00
        -11   -1    0    0    0    0  0.00000000000E+00  0.00000000000E+00  0.45593999997E+02  0.45594000000E+02  0.51100000000E-03 0.  1.
         11   -1    0    0    0    0 -0.00000000000E+00 -0.00000000000E+00 -0.45593999997E+02  0.45594000000E+02  0.51100000000E-03 0. -1.
    9900012    2    1    2    0    0 -0.62258680148E+01 -0.22390034480E+02  0.33363016742E+02  0.50528856346E+02  0.29999989351E+02 0.  0.
         12    1    1    2    0    0  0.62258680148E+01  0.22390034480E+02 -0.33363016742E+02  0.40659143654E+02  0.00000000000E+00 0. -1.
         11    1    3    3    0    0 -0.19233773918E+00  0.24003413469E+01  0.26847964317E+01  0.36064892248E+01  0.51100000000E-03 0. -1.
        -11    1    3    3    0    0  0.11608474521E+01 -0.26878075243E+02  0.18590026935E+02  0.32701186481E+02  0.51100000000E-03 0.  1.
        -12    1    3    3    0    0 -0.71943777277E+01  0.20876994164E+01  0.12088193375E+02  0.14221180641E+02  0.00000000000E+00 0.  1.
</event>
<event>
 7    1  0.5748623E-013  0.5052886E+02  0.7816164E-02  0.1300439E+00
        -11   -1    0    0    0    0  0.00000000000E+00  0.00000000000E+00  0.45593999997E+02  0.45594000000E+02  0.51100000000E-03 0. -1.
         11   -1    0    0    0    0 -0.00000000000E+00 -0.00000000000E+00 -0.45593999997E+02  0.45594000000E+02  0.51100000000E-03 0.  1.
    9900012    2    1    2    0    0 -0.27985058773E+02 -0.10573447516E+01 -0.29476841384E+02  0.50528859940E+02  0.30000000273E+02 0.  0.
         12    1    1    2    0    0  0.27985058773E+02  0.10573447516E+01  0.29476841384E+02  0.40659140060E+02  0.00000000000E+00 0. -1.
         11    1    3    3    0    0  0.41089441382E+01  0.49430250504E+01 -0.61081126701E+01  0.88671280148E+01  0.51100000000E-03 0. -1.
        -11    1    3    3    0    0 -0.32932189386E+02 -0.58703153563E+01 -0.23382561012E+02  0.40813402945E+02  0.51100000000E-03 0.  1.
        -12    1    3    3    0    0  0.83818647523E+00 -0.13005444560E+00  0.13832298280E-01  0.84832898014E+00  0.00000000000E+00 0.  1.
</event>
<event>
 7    1  0.5748623E-013  0.5052886E+02  0.7816164E-02  0.1300439E+00
        -11   -1    0    0    0    0  0.00000000000E+00  0.00000000000E+00  0.45593999997E+02  0.45594000000E+02  0.51100000000E-03 0.  1.
         11   -1    0    0    0    0 -0.00000000000E+00 -0.00000000000E+00 -0.45593999997E+02  0.45594000000E+02  0.51100000000E-03 0. -1.
    9900012    2    1    2    0    0 -0.25110881997E+02  0.18009556386E+02  0.26424710649E+02  0.50528857747E+02  0.29999993606E+02 0.  0.
         12    1    1    2    0    0  0.25110881997E+02 -0.18009556386E+02 -0.26424710649E+02  0.40659142253E+02  0.00000000000E+00 0. -1.
         11    1    3    3    0    0 -0.16121003458E+02  0.49983184553E+01  0.68477795168E+01  0.18214335685E+02  0.51100000000E-03 0. -1.
        -11    1    3    3    0    0 -0.26359101965E+01  0.15198998380E+02  0.49216555885E+01  0.16191981606E+02  0.51100000000E-03 0.  1.
        -12    1    3    3    0    0 -0.63539683423E+01 -0.21877604494E+01  0.14655275544E+02  0.16122540456E+02  0.00000000000E+00 0.  1.
</event>
<event>
 7    1  0.5748623E-013  0.5052886E+02  0.7816164E-02  0.1300439E+00
        -11   -1    0    0    0    0  0.00000000000E+00  0.00000000000E+00  0.45593999997E+02  0.45594000000E+02  0.51100000000E-03 0.  1.
         11   -1    0    0    0    0 -0.00000000000E+00 -0.00000000000E+00 -0.45593999997E+02  0.45594000000E+02  0.51100000000E-03 0. -1.
    9900012    2    1    2    0    0  0.25783913459E+02 -0.20689809590E+02  0.23670389967E+02  0.50528858650E+02  0.29999996352E+02 0.  0.
         12    1    1    2    0    0 -0.25783913459E+02  0.20689809590E+02 -0.23670389967E+02  0.40659141350E+02  0.00000000000E+00 0. -1.
         11    1    3    3    0    0  0.71044994195E+01 -0.27366758360E+01 -0.41403315765E+01  0.86663517386E+01  0.51100000000E-03 0. -1.
        -11    1    3    3    0    0  0.75072567226E+01  0.53783920213E+00  0.14904251853E+02  0.16696852939E+02  0.51100000000E-03 0.  1.
         12    1    3    3    0    0  0.11172157317E+02 -0.18490972956E+02  0.12906469691E+02  0.25165653973E+02  0.00000000000E+00 0. -1.
</event>
<event>
 7    1  0.5748623E-013  0.5052886E+02  0.7816164E-02  0.1300439E+00
        -11   -1    0    0    0    0  0.00000000000E+00  0.00000000000E+00  0.45593999997E+02  0.45594000000E+02  0.51100000000E-03 0.  1.
         11   -1    0    0    0    0 -0.00000000000E+00 -0.00000000000E+00 -0.45593999997E+02  0.45594000000E+02  0.51100000000E-03 0. -1.
    9900012    2    1    2    0    0 -0.11017575767E+00 -0.16613629469E+02  0.37109853380E+02  0.50528855387E+02  0.29999986433E+02 0.  0.
         12    1    1    2    0    0  0.11017575767E+00  0.16613629469E+02 -0.37109853380E+02  0.40659144613E+02  0.00000000000E+00 0. -1.
         11    1    3    3    0    0  0.11436118964E+02 -0.97901081637E+01  0.13860902173E+02  0.20463519837E+02  0.51100000000E-03 0. -1.
        -11    1    3    3    0    0 -0.10783908604E+02 -0.24767192448E+01  0.23141755712E+02  0.25650880700E+02  0.51100000000E-03 0.  1.
        -12    1    3    3    0    0 -0.76238611753E+00 -0.43468020607E+01  0.10719549503E+00  0.44144548498E+01  0.00000000000E+00 0.  1.
</event>
<event>
 7    1  0.5748623E-013  0.5052887E+02  0.7816164E-02  0.1300439E+00
        -11   -1    0    0    0    0  0.00000000000E+00  0.00000000000E+00  0.45593999997E+02  0.45594000000E+02  0.51100000000E-03 0.  1.
         11   -1    0    0    0    0 -0.00000000000E+00 -0.00000000000E+00 -0.45593999997E+02  0.45594000000E+02  0.51100000000E-03 0. -1.
    9900012    2    1    2    0    0  0.32272172774E+02  0.10203706714E+02  0.22529006918E+02  0.50528869181E+02  0.30000028362E+02 0.  0.
         12    1    1    2    0    0 -0.32272172774E+02 -0.10203706714E+02 -0.22529006918E+02  0.40659130819E+02  0.00000000000E+00 0. -1.
         11    1    3    3    0    0  0.96699467993E+01  0.11735547869E+02 -0.26257357117E+01  0.15431313722E+02  0.51100000000E-03 0. -1.
        -11    1    3    3    0    0  0.60654376110E+01  0.31497226078E+01  0.43051367754E+01  0.80774060710E+01  0.51100000000E-03 0.  1.
         12    1    3    3    0    0  0.16536788364E+02 -0.46815637633E+01  0.20849605854E+02  0.27020149388E+02  0.00000000000E+00 0. -1.
</event>
<event>
 7    1  0.5748623E-013  0.5052878E+02  0.7816164E-02  0.1300439E+00
        -11   -1    0    0    0    0  0.00000000000E+00  0.00000000000E+00  0.45593999997E+02  0.45594000000E+02  0.51100000000E-03 0.  1.
         11   -1    0    0    0    0 -0.00000000000E+00 -0.00000000000E+00 -0.45593999997E+02  0.45594000000E+02  0.51100000000E-03 0. -1.
    9900012    2    1    2    0    0 -0.21989673431E+02 -0.25497009920E+02  0.22793178596E+02  0.50528779115E+02  0.29999754596E+02 0.  0.
         12    1    1    2    0    0  0.21989673431E+02  0.25497009920E+02 -0.22793178596E+02  0.40659220885E+02  0.00000000000E+00 0. -1.
         11    1    3    3    0    0 -0.50160296426E+01 -0.12728283861E+02 -0.58282275938E+00  0.13693408854E+02  0.51100000000E-03 0. -1.
        -11    1    3    3    0    0 -0.17359251327E+02 -0.37167900480E+01  0.20941825349E+02  0.27453928391E+02  0.51100000000E-03 0.  1.
        -12    1    3    3    0    0  0.38560753802E+00 -0.90519360111E+01  0.24341760073E+01  0.93814418698E+01  0.00000000000E+00 0.  1.
</event>
<event>
 7    1  0.5748623E-013  0.5052885E+02  0.7816164E-02  0.1300439E+00
        -11   -1    0    0    0    0  0.00000000000E+00  0.00000000000E+00  0.45593999997E+02  0.45594000000E+02  0.51100000000E-03 0. -1.
         11   -1    0    0    0    0 -0.00000000000E+00 -0.00000000000E+00 -0.45593999997E+02  0.45594000000E+02  0.51100000000E-03 0.  1.
    9900012    2    1    2    0    0 -0.15983673789E+02  0.32573932973E+02 -0.18347406663E+02  0.50528852587E+02  0.29999977922E+02 0.  0.
         12    1    1    2    0    0  0.15983673789E+02 -0.32573932973E+02  0.18347406663E+02  0.40659147413E+02  0.00000000000E+00 0. -1.
         11    1    3    3    0    0 -0.17773022240E+02  0.17830023147E+02 -0.13926365131E+02  0.28770361329E+02  0.51100000000E-03 0. -1.
        -11    1    3    3    0    0  0.51736423181E+01  0.16423081350E+02 -0.50148784413E+01  0.17934134546E+02  0.51100000000E-03 0.  1.
        -12    1    3    3    0    0 -0.33842938671E+01 -0.16791715239E+01  0.59383690907E+00  0.38243567119E+01  0.00000000000E+00 0.  1.
</event>
<event>
 7    1  0.5748623E-013  0.5052886E+02  0.7816164E-02  0.1300439E+00
        -11   -1    0    0    0    0  0.00000000000E+00  0.00000000000E+00  0.45593999997E+02  0.45594000000E+02  0.51100000000E-03 0.  1.
         11   -1    0    0    0    0 -0.00000000000E+00 -0.00000000000E+00 -0.45593999997E+02  0.45594000000E+02  0.51100000000E-03 0. -1.
    9900012    2    1    2    0    0 -0.32091335226E+02  0.45652048225E+01  0.24545285891E+02  0.50528856488E+02  0.29999989782E+02 0.  0.
         12    1    1    2    0    0  0.32091335226E+02 -0.45652048225E+01 -0.24545285891E+02  0.40659143512E+02  0.00000000000E+00 0. -1.
         11    1    3    3    0    0 -0.16082498931E+02  0.36193280657E+01  0.25825428458E+02  0.30638196141E+02  0.51100000000E-03 0. -1.
        -11    1    3    3    0    0 -0.11689620640E+02 -0.12517897338E+01  0.42833648930E+01  0.12512450732E+02  0.51100000000E-03 0.  1.
         12    1    3    3    0    0 -0.43192156547E+01  0.21976664906E+01 -0.55635074597E+01  0.73782096155E+01  0.00000000000E+00 0. -1.
</event>
<event>
 7    1  0.5748623E-013  0.5052883E+02  0.7816164E-02  0.1300439E+00
        -11   -1    0    0    0    0  0.00000000000E+00  0.00000000000E+00  0.45593999997E+02  0.45594000000E+02  0.51100000000E-03 0. -1.
         11   -1    0    0    0    0 -0.00000000000E+00 -0.00000000000E+00 -0.45593999997E+02  0.45594000000E+02  0.51100000000E-03 0.  1.
    9900012    2    1    2    0    0  0.20168017525E+02 -0.27277524400E+02 -0.22413288388E+02  0.50528834187E+02  0.29999921995E+02 0.  0.
         12    1    1    2    0    0 -0.20168017525E+02  0.27277524400E+02  0.22413288388E+02  0.40659165813E+02  0.00000000000E+00 0. -1.
         11    1    3    3    0    0 -0.24798236413E+01 -0.10921739537E+02 -0.15149299775E+02  0.18839724089E+02  0.51100000000E-03 0. -1.
        -11    1    3    3    0    0  0.18880705888E+02 -0.12595849705E+02 -0.10964870448E+02  0.25206444986E+02  0.51100000000E-03 0.  1.
         12    1    3    3    0    0  0.37671352783E+01 -0.37599351571E+01  0.37008818362E+01  0.64826651121E+01  0.00000000000E+00 0. -1.
</event>
<event>
 7    1  0.5748623E-013  0.5052886E+02  0.7816164E-02  0.1300439E+00
        -11   -1    0    0    0    0  0.00000000000E+00  0.00000000000E+00  0.45593999997E+02  0.45594000000E+02  0.51100000000E-03 0.  1.
         11   -1    0    0    0    0 -0.00000000000E+00 -0.00000000000E+00 -0.45593999997E+02  0.45594000000E+02  0.51100000000E-03 0. -1.
    9900012    2    1    2    0    0  0.14815633872E+02  0.35631706850E+02  0.12807957086E+02  0.50528864436E+02  0.30000013941E+02 0.  0.
         12    1    1    2    0    0 -0.14815633872E+02 -0.35631706850E+02 -0.12807957086E+02  0.40659135564E+02  0.00000000000E+00 0. -1.
         11    1    3    3    0    0 -0.19990483279E+01 -0.29471657500E+01 -0.13938500958E+01  0.38242382936E+01  0.51100000000E-03 0. -1.
        -11    1    3    3    0    0  0.16412799575E+02  0.24381868733E+02  0.50861120741E+01  0.29828242474E+02  0.51100000000E-03 0.  1.
        -12    1    3    3    0    0  0.40188262514E+00  0.14197003867E+02  0.91156951075E+01  0.16876383669E+02  0.00000000000E+00 0.  1.
</event>
<event>
 7    1  0.5748623E-013  0.5052886E+02  0.7816164E-02  0.1300439E+00
        -11   -1    0    0    0    0  0.00000000000E+00  0.00000000000E+00  0.45593999997E+02  0.45594000000E+02  0.51100000000E-03 0.  1.
         11   -1    0    0    0    0 -0.00000000000E+00 -0.00000000000E+00 -0.45593999997E+02  0.45594000000E+02  0.51100000000E-03 0. -1.
    9900012    2    1    2    0    0 -0.11521932376E+02 -0.24239956079E+02  0.30542353192E+02  0.50528859147E+02  0.29999997863E+02 0.  0.
         12    1    1    2    0    0  0.11521932376E+02  0.24239956079E+02 -0.30542353192E+02  0.40659140853E+02  0.00000000000E+00 0. -1.
         11    1    3    3    0    0  0.14102095947E+01 -0.17781701761E+02  0.12282890080E+02  0.21657492874E+02  0.51100000000E-03 0. -1.
        -11    1    3    3    0    0 -0.15052375594E+02 -0.15849849233E+01  0.18045377946E+02  0.23552533913E+02  0.51100000000E-03 0.  1.
        -12    1    3    3    0    0  0.21202336241E+01 -0.48732693948E+01  0.21408516621E+00  0.53188323600E+01  0.00000000000E+00 0.  1.
</event>
<event>
 7    1  0.5748623E-013  0.5052886E+02  0.7816164E-02  0.1300439E+00
        -11   -1    0    0    0    0  0.00000000000E+00  0.00000000000E+00  0.45593999997E+02  0.45594000000E+02  0.51100000000E-03 0.  1.
         11   -1    0    0    0    0 -0.00000000000E+00 -0.00000000000E+00 -0.45593999997E+02  0.45594000000E+02  0.51100000000E-03 0. -1.
    9900012    2    1    2    0    0  0.75497697490E+01  0.28799184455E+02  0.27690677504E+02  0.50528859955E+02  0.30000000320E+02 0.  0.
         12    1    1    2    0    0 -0.75497697490E+01 -0.28799184455E+02 -0.27690677504E+02  0.40659140045E+02  0.00000000000E+00 0. -1.
         11    1    3    3    0    0 -0.42501465690E+01  0.47896908473E+01  0.13660188701E+02  0.15086604650E+02  0.51100000000E-03 0. -1.
        -11    1    3    3    0    0  0.86979033220E+01  0.34033860516E+01 -0.14913724258E+01  0.94583693514E+01  0.51100000000E-03 0.  1.
        -12    1    3    3    0    0  0.31020129961E+01  0.20606107556E+02  0.15521861229E+02  0.25983885954E+02  0.00000000000E+00 0.  1.
</event>
<event>
 7    1  0.5748623E-013  0.5052887E+02  0.7816164E-02  0.1300439E+00
        -11   -1    0    0    0    0  0.00000000000E+00  0.00000000000E+00  0.45593999997E+02  0.45594000000E+02  0.51100000000E-03 0.  1.
         11   -1    0    0    0    0 -0.00000000000E+00 -0.00000000000E+00 -0.45593999997E+02  0.45594000000E+02  0.51100000000E-03 0. -1.
    9900012    2    1    2    0    0 -0.18948169690E+01 -0.14376415299E+02  0.37985431604E+02  0.50528872337E+02  0.30000037955E+02 0.  0.
         12    1    1    2    0    0  0.18948169690E+01  0.14376415299E+02 -0.37985431604E+02  0.40659127663E+02  0.00000000000E+00 0. -1.
         11    1    3    3    0    0 -0.93834819273E+01 -0.68656282054E+01  0.27934185450E+01  0.11957833046E+02  0.51100000000E-03 0. -1.
        -11    1    3    3    0    0  0.59083663208E+01  0.14069831321E+01  0.19817137430E+02  0.20726971083E+02  0.51100000000E-03 0.  1.
         12    1    3    3    0    0  0.15802986375E+01 -0.89177702256E+01  0.15374875629E+02  0.17844068207E+02  0.00000000000E+00 0. -1.
</event>
<event>
 7    1  0.5748623E-013  0.5052887E+02  0.7816164E-02  0.1300439E+00
        -11   -1    0    0    0    0  0.00000000000E+00  0.00000000000E+00  0.45593999997E+02  0.45594000000E+02  0.51100000000E-03 0.  1.
         11   -1    0    0    0    0 -0.00000000000E+00 -0.00000000000E+00 -0.45593999997E+02  0.45594000000E+02  0.51100000000E-03 0. -1.
    9900012    2    1    2    0    0 -0.95605359623E+01  0.26609675136E+02  0.29217915599E+02  0.50528865101E+02  0.30000015962E+02 0.  0.
         12    1    1    2    0    0  0.95605359623E+01 -0.26609675136E+02 -0.29217915599E+02  0.40659134899E+02  0.00000000000E+00 0. -1.
         11    1    3    3    0    0 -0.92904858277E+01  0.64778932797E+01  0.24908454016E+02  0.27362516514E+02  0.51100000000E-03 0. -1.
        -11    1    3    3    0    0  0.60040769583E+00  0.16547587557E+02  0.76038677623E+01  0.18220920629E+02  0.51100000000E-03 0.  1.
         12    1    3    3    0    0 -0.87045783040E+00  0.35841943000E+01 -0.32944061794E+01  0.49454279582E+01  0.00000000000E+00 0. -1.
</event>
<event>
 7    1  0.5748623E-013  0.5052886E+02  0.7816164E-02  0.1300439E+00
        -11   -1    0    0    0    0  0.00000000000E+00  0.00000000000E+00  0.45593999997E+02  0.45594000000E+02  0.51100000000E-03 0.  1.
         11   -1    0    0    0    0 -0.00000000000E+00 -0.00000000000E+00 -0.45593999997E+02  0.45594000000E+02  0.51100000000E-03 0. -1.
    9900012    2    1    2    0    0 -0.31402750993E+02  0.25437675039E+02  0.44673582532E+01  0.50528863621E+02  0.30000011463E+02 0.  0.
         12    1    1    2    0    0  0.31402750993E+02 -0.25437675039E+02 -0.44673582532E+01  0.40659136379E+02  0.00000000000E+00 0. -1.
         11    1    3    3    0    0 -0.32024842785E+02  0.20554388367E+02  0.12108016478E+02  0.39933413326E+02  0.51100000000E-03 0.  1.
        -11    1    3    3    0    0  0.18416835438E+01  0.10769579474E+01 -0.58288730351E+01  0.62070442093E+01  0.51100000000E-03 0. -1.
        -12    1    3    3    0    0 -0.12195917514E+01  0.38063287248E+01 -0.18117851898E+01  0.43884060860E+01  0.00000000000E+00 0.  1.
</event>
<event>
 7    1  0.5748623E-013  0.5052885E+02  0.7816164E-02  0.1300439E+00
        -11   -1    0    0    0    0  0.00000000000E+00  0.00000000000E+00  0.45593999997E+02  0.45594000000E+02  0.51100000000E-03 0.  1.
         11   -1    0    0    0    0 -0.00000000000E+00 -0.00000000000E+00 -0.45593999997E+02  0.45594000000E+02  0.51100000000E-03 0. -1.
    9900012    2    1    2    0    0 -0.38483148073E+01 -0.40475091052E+02  0.35159519579E+00  0.50528854144E+02  0.29999982656E+02 0.  0.
         12    1    1    2    0    0  0.38483148073E+01  0.40475091052E+02 -0.35159519579E+00  0.40659145856E+02  0.00000000000E+00 0. -1.
         11    1    3    3    0    0  0.60733866657E+01  0.26168317028E+00 -0.40091623805E+01  0.72820249194E+01  0.51100000000E-03 0. -1.
        -11    1    3    3    0    0 -0.95103445769E+01 -0.19037553510E+02  0.31190122170E+01  0.21508215525E+02  0.51100000000E-03 0.  1.
        -12    1    3    3    0    0 -0.41135689611E+00 -0.21699220713E+02  0.12417453593E+01  0.21738613699E+02  0.00000000000E+00 0.  1.
</event>
<event>
 7    1  0.5748623E-013  0.5052888E+02  0.7816164E-02  0.1300439E+00
        -11   -1    0    0    0    0  0.00000000000E+00  0.00000000000E+00  0.45593999997E+02  0.45594000000E+02  0.51100000000E-03 0.  1.
         11   -1    0    0    0    0 -0.00000000000E+00 -0.00000000000E+00 -0.45593999997E+02  0.45594000000E+02  0.51100000000E-03 0. -1.
    9900012    2    1    2    0    0 -0.72713411234E+01  0.33224298722E+02  0.22280883050E+02  0.50528878307E+02  0.30000056103E+02 0.  0.
         12    1    1    2    0    0  0.72713411234E+01 -0.33224298722E+02 -0.22280883050E+02  0.40659121693E+02  0.00000000000E+00 0. -1.
         11    1    3    3    0    0  0.99166507945E+00 -0.54365206044E+01  0.29280761389E+01  0.62540215900E+01  0.51100000000E-03 0. -1.
        -11    1    3    3    0    0 -0.28731103554E+01  0.24097772418E+02  0.11043930708E+02  0.26663191939E+02  0.51100000000E-03 0.  1.
         12    1    3    3    0    0 -0.53898958475E+01  0.14563046909E+02  0.83088762034E+01  0.17611664779E+02  0.00000000000E+00 0. -1.
</event>
<event>
 7    1  0.5748623E-013  0.5052888E+02  0.7816164E-02  0.1300439E+00
        -11   -1    0    0    0    0  0.00000000000E+00  0.00000000000E+00  0.45593999997E+02  0.45594000000E+02  0.51100000000E-03 0.  1.
         11   -1    0    0    0    0 -0.00000000000E+00 -0.00000000000E+00 -0.45593999997E+02  0.45594000000E+02  0.51100000000E-03 0. -1.
    9900012    2    1    2    0    0  0.25278953268E+02 -0.27161782061E+02  0.16624563473E+02  0.50528880559E+02  0.30000062947E+02 0.  0.
         12    1    1    2    0    0 -0.25278953268E+02  0.27161782061E+02 -0.16624563473E+02  0.40659119441E+02  0.00000000000E+00 0. -1.
         11    1    3    3    0    0  0.12804232870E+02 -0.71330355189E+01 -0.62133327041E+01  0.15919613019E+02  0.51100000000E-03 0. -1.
        -11    1    3    3    0    0  0.78242752068E+01 -0.13237544162E+02  0.21244535162E+02  0.26225600707E+02  0.51100000000E-03 0.  1.
        -12    1    3    3    0    0  0.46504451909E+01 -0.67912023802E+01  0.15933610150E+01  0.83836668330E+01  0.00000000000E+00 0.  1.
</event>
<event>
 7    1  0.5748623E-013  0.5052887E+02  0.7816164E-02  0.1300439E+00
        -11   -1    0    0    0    0  0.00000000000E+00  0.00000000000E+00  0.45593999997E+02  0.45594000000E+02  0.51100000000E-03 0.  1.
         11   -1    0    0    0    0 -0.00000000000E+00 -0.00000000000E+00 -0.45593999997E+02  0.45594000000E+02  0.51100000000E-03 0. -1.
    9900012    2    1    2    0    0 -0.39256830470E+02  0.86244907206E+01  0.61387810881E+01  0.50528865577E+02  0.30000017409E+02 0.  0.
         12    1    1    2    0    0  0.39256830470E+02 -0.86244907206E+01 -0.61387810881E+01  0.40659134423E+02  0.00000000000E+00 0. -1.
         11    1    3    3    0    0 -0.23203421761E+02 -0.57040917467E+01  0.10392866667E+02  0.26056613784E+02  0.51100000000E-03 0. -1.
        -11    1    3    3    0    0 -0.81335439226E+01  0.12978620945E+02  0.13542502574E+00  0.15317228162E+02  0.51100000000E-03 0.  1.
        -12    1    3    3    0    0 -0.79198647862E+01  0.13499615228E+01 -0.43895106043E+01  0.91550236314E+01  0.00000000000E+00 0.  1.
</event>
<event>
 7    1  0.5748623E-013  0.5052886E+02  0.7816164E-02  0.1300439E+00
        -11   -1    0    0    0    0  0.00000000000E+00  0.00000000000E+00  0.45593999997E+02  0.45594000000E+02  0.51100000000E-03 0.  1.
         11   -1    0    0    0    0 -0.00000000000E+00 -0.00000000000E+00 -0.45593999997E+02  0.45594000000E+02  0.51100000000E-03 0. -1.
    9900012    2    1    2    0    0 -0.20799686197E+02  0.34917542511E+02  0.11417553820E+01  0.50528864172E+02  0.30000013138E+02 0.  0.
         12    1    1    2    0    0  0.20799686197E+02 -0.34917542511E+02 -0.11417553820E+01  0.40659135828E+02  0.00000000000E+00 0. -1.
         11    1    3    3    0    0  0.24401888144E+01  0.54723562386E+01  0.62637739798E+01  0.86681064243E+01  0.51100000000E-03 0. -1.
        -11    1    3    3    0    0 -0.53617022671E+01  0.92366410883E+01 -0.97781959947E+01  0.14480210874E+02  0.51100000000E-03 0.  1.
        -12    1    3    3    0    0 -0.17878172744E+02  0.20208545184E+02  0.46561773969E+01  0.27380546873E+02  0.00000000000E+00 0.  1.
</event>
<event>
 7    1  0.5748623E-013  0.5052886E+02  0.7816164E-02  0.1300439E+00
        -11   -1    0    0    0    0  0.00000000000E+00  0.00000000000E+00  0.45593999997E+02  0.45594000000E+02  0.51100000000E-03 0. -1.
         11   -1    0    0    0    0 -0.00000000000E+00 -0.00000000000E+00 -0.45593999997E+02  0.45594000000E+02  0.51100000000E-03 0.  1.
    9900012    2    1    2    0    0  0.15193434904E+02  0.29390610080E+02 -0.23632973507E+02  0.50528857586E+02  0.29999993119E+02 0.  0.
         12    1    1    2    0    0 -0.15193434904E+02 -0.29390610080E+02  0.23632973507E+02  0.40659142414E+02  0.00000000000E+00 0. -1.
         11    1    3    3    0    0  0.91816482852E+01  0.11352021579E+01 -0.41988600356E+01  0.10159811762E+02  0.51100000000E-03 0. -1.
        -11    1    3    3    0    0  0.97172179152E+01  0.21195186215E+02 -0.21934960343E+02  0.32012540172E+02  0.51100000000E-03 0.  1.
        -12    1    3    3    0    0 -0.37054312968E+01  0.70602217069E+01  0.25008468724E+01  0.83565056528E+01  0.00000000000E+00 0.  1.
</event>
<event>
 7    1  0.5748623E-013  0.5052889E+02  0.7816164E-02  0.1300439E+00
        -11   -1    0    0    0    0  0.00000000000E+00  0.00000000000E+00  0.45593999997E+02  0.45594000000E+02  0.51100000000E-03 0. -1.
         11   -1    0    0    0    0 -0.00000000000E+00 -0.00000000000E+00 -0.45593999997E+02  0.45594000000E+02  0.51100000000E-03 0.  1.
    9900012    2    1    2    0    0 -0.36876993410E+02  0.69589725147E+01 -0.15646832368E+02  0.50528889033E+02  0.30000088706E+02 0.  0.
         12    1    1    2    0    0  0.36876993410E+02 -0.69589725147E+01  0.15646832368E+02  0.40659110967E+02  0.00000000000E+00 0. -1.
         11    1    3    3    0    0 -0.17965796331E+01 -0.46258049349E+01 -0.11755650810E+02  0.12760136986E+02  0.51100000000E-03 0. -1.
        -11    1    3    3    0    0 -0.18098007704E+02  0.42123188758E+01 -0.49343153427E+01  0.19225737471E+02  0.51100000000E-03 0.  1.
         12    1    3    3    0    0 -0.16982406074E+02  0.73724585738E+01  0.10431337847E+01  0.18543014576E+02  0.00000000000E+00 0. -1.
</event>
<event>
 7    1  0.5748623E-013  0.5052886E+02  0.7816164E-02  0.1300439E+00
        -11   -1    0    0    0    0  0.00000000000E+00  0.00000000000E+00  0.45593999997E+02  0.45594000000E+02  0.51100000000E-03 0. -1.
         11   -1    0    0    0    0 -0.00000000000E+00 -0.00000000000E+00 -0.45593999997E+02  0.45594000000E+02  0.51100000000E-03 0.  1.
    9900012    2    1    2    0    0  0.51758237511E+01  0.29293066058E+02 -0.27718091416E+02  0.50528862499E+02  0.30000008053E+02 0.  0.
         12    1    1    2    0    0 -0.51758237511E+01 -0.29293066058E+02  0.27718091416E+02  0.40659137501E+02  0.00000000000E+00 0. -1.
         11    1    3    3    0    0 -0.49127810644E+01  0.18574686687E+02 -0.89946525191E+01  0.21214574649E+02  0.51100000000E-03 0. -1.
        -11    1    3    3    0    0  0.10129133583E+02 -0.14452001601E+01 -0.10303798149E+02  0.14520888651E+02  0.51100000000E-03 0.  1.
        -12    1    3    3    0    0 -0.40528767869E-01  0.12163579530E+02 -0.84196407471E+01  0.14793399200E+02  0.00000000000E+00 0.  1.
</event>
<event>
 7    1  0.5748623E-013  0.5052886E+02  0.7816164E-02  0.1300439E+00
        -11   -1    0    0    0    0  0.00000000000E+00  0.00000000000E+00  0.45593999997E+02  0.45594000000E+02  0.51100000000E-03 0.  1.
         11   -1    0    0    0    0 -0.00000000000E+00 -0.00000000000E+00 -0.45593999997E+02  0.45594000000E+02  0.51100000000E-03 0. -1.
    9900012    2    1    2    0    0  0.75304295850E+01 -0.28630411829E+02  0.27870380188E+02  0.50528856587E+02  0.29999990083E+02 0.  0.
         12    1    1    2    0    0 -0.75304295850E+01  0.28630411829E+02 -0.27870380188E+02  0.40659143413E+02  0.00000000000E+00 0. -1.
         11    1    3    3    0    0  0.10305767062E+02 -0.16094831319E+01  0.34071550163E+01  0.10973056833E+02  0.51100000000E-03 0. -1.
        -11    1    3    3    0    0  0.34700096038E+01 -0.15726415046E+02  0.20470356948E+02  0.26046047890E+02  0.51100000000E-03 0.  1.
         12    1    3    3    0    0 -0.62453470809E+01 -0.11294513651E+02  0.39928682230E+01  0.13509751864E+02  0.00000000000E+00 0. -1.
</event>
<event>
 7    1  0.5748623E-013  0.5052886E+02  0.7816164E-02  0.1300439E+00
        -11   -1    0    0    0    0  0.00000000000E+00  0.00000000000E+00  0.45593999997E+02  0.45594000000E+02  0.51100000000E-03 0.  1.
         11   -1    0    0    0    0 -0.00000000000E+00 -0.00000000000E+00 -0.45593999997E+02  0.45594000000E+02  0.51100000000E-03 0. -1.
    9900012    2    1    2    0    0  0.24271205963E+02 -0.96360284785E+01  0.31164422858E+02  0.50528859136E+02  0.29999997830E+02 0.  0.
         12    1    1    2    0    0 -0.24271205963E+02  0.96360284785E+01 -0.31164422858E+02  0.40659140864E+02  0.00000000000E+00 0. -1.
         11    1    3    3    0    0  0.37688566154E+01 -0.86298760203E+01 -0.28652009399E+01  0.98431914032E+01  0.51100000000E-03 0. -1.
        -11    1    3    3    0    0  0.83280698309E+01  0.38644127870E+01  0.13514099327E+02  0.16337726714E+02  0.51100000000E-03 0.  1.
        -12    1    3    3    0    0  0.12174279517E+02 -0.48705652452E+01  0.20515524470E+02  0.24347941019E+02  0.00000000000E+00 0.  1.
</event>
<event>
 7    1  0.5748623E-013  0.5052886E+02  0.7816164E-02  0.1300439E+00
        -11   -1    0    0    0    0  0.00000000000E+00  0.00000000000E+00  0.45593999997E+02  0.45594000000E+02  0.51100000000E-03 0.  1.
         11   -1    0    0    0    0 -0.00000000000E+00 -0.00000000000E+00 -0.45593999997E+02  0.45594000000E+02  0.51100000000E-03 0. -1.
    9900012    2    1    2    0    0 -0.13320654942E+02 -0.25984495949E+02  0.28293671483E+02  0.50528859284E+02  0.29999998279E+02 0.  0.
         12    1    1    2    0    0  0.13320654942E+02  0.25984495949E+02 -0.28293671483E+02  0.40659140716E+02  0.00000000000E+00 0. -1.
         11    1    3    3    0    0  0.64855256193E+00  0.50861844898E+01  0.36540732501E+01  0.62962008122E+01  0.51100000000E-03 0. -1.
        -11    1    3    3    0    0 -0.60963831299E+01 -0.25713194990E+02  0.21906653489E+02  0.34325438835E+02  0.51100000000E-03 0.  1.
         12    1    3    3    0    0 -0.78728243737E+01 -0.53574854491E+01  0.27329447441E+01  0.99072196367E+01  0.00000000000E+00 0. -1.
</event>
<event>
 7    1  0.5748623E-013  0.5052890E+02  0.7816164E-02  0.1300439E+00
        -11   -1    0    0    0    0  0.00000000000E+00  0.00000000000E+00  0.45593999997E+02  0.45594000000E+02  0.51100000000E-03 0.  1.
         11   -1    0    0    0    0 -0.00000000000E+00 -0.00000000000E+00 -0.45593999997E+02  0.45594000000E+02  0.51100000000E-03 0. -1.
    9900012    2    1    2    0    0  0.59819974766E+01 -0.63455571948E+01  0.39712870175E+02  0.50528899574E+02  0.30000120745E+02 0.  0.
         12    1    1    2    0    0 -0.59819974766E+01  0.63455571948E+01 -0.39712870175E+02  0.40659100426E+02  0.00000000000E+00 0. -1.
         11    1    3    3    0    0 -0.78751486292E+01  0.72059693929E+01  0.18292540142E+02  0.21179258390E+02  0.51100000000E-03 0. -1.
        -11    1    3    3    0    0  0.46557793622E+01 -0.39068660013E+01  0.34942419358E+01  0.70106783116E+01  0.51100000000E-03 0.  1.
         12    1    3    3    0    0  0.92013667436E+01 -0.96446605865E+01  0.17926088097E+02  0.22338962873E+02  0.00000000000E+00 0. -1.
</event>
<event>
 7    1  0.5748623E-013  0.5052885E+02  0.7816164E-02  0.1300439E+00
        -11   -1    0    0    0    0  0.00000000000E+00  0.00000000000E+00  0.45593999997E+02  0.45594000000E+02  0.51100000000E-03 0.  1.
         11   -1    0    0    0    0 -0.00000000000E+00 -0.00000000000E+00 -0.45593999997E+02  0.45594000000E+02  0.51100000000E-03 0. -1.
    9900012    2    1    2    0    0  0.32541771601E+02 -0.71377518312E+01  0.23307763086E+02  0.50528853178E+02  0.29999979721E+02 0.  0.
         12    1    1    2    0    0 -0.32541771601E+02  0.71377518312E+01 -0.23307763086E+02  0.40659146822E+02  0.00000000000E+00 0. -1.
         11    1    3    3    0    0  0.11341602995E+02  0.77135698528E+01  0.17824377084E+02  0.22490876752E+02  0.51100000000E-03 0. -1.
        -11    1    3    3    0    0  0.19748620086E+02 -0.11609180662E+02  0.73066617417E+01  0.24045132086E+02  0.51100000000E-03 0.  1.
         12    1    3    3    0    0  0.14515485200E+01 -0.32421410216E+01 -0.18232757391E+01  0.39928443409E+01  0.00000000000E+00 0. -1.
</event>
<event>
 7    1  0.5748623E-013  0.5052883E+02  0.7816164E-02  0.1300439E+00
        -11   -1    0    0    0    0  0.00000000000E+00  0.00000000000E+00  0.45593999997E+02  0.45594000000E+02  0.51100000000E-03 0.  1.
         11   -1    0    0    0    0 -0.00000000000E+00 -0.00000000000E+00 -0.45593999997E+02  0.45594000000E+02  0.51100000000E-03 0. -1.
    9900012    2    1    2    0    0 -0.31408755169E+02  0.17631202421E+02  0.18862624202E+02  0.50528833852E+02  0.29999920977E+02 0.  0.
         12    1    1    2    0    0  0.31408755169E+02 -0.17631202421E+02 -0.18862624202E+02  0.40659166148E+02  0.00000000000E+00 0. -1.
         11    1    3    3    0    0  0.32315230184E+01  0.68380131361E+01 -0.21762167542E+01  0.78700117084E+01  0.51100000000E-03 0. -1.
        -11    1    3    3    0    0 -0.23955171948E+02  0.41175931229E+01  0.15941131548E+02  0.29067585236E+02  0.51100000000E-03 0.  1.
        -12    1    3    3    0    0 -0.10685106239E+02  0.66755961621E+01  0.50977094084E+01  0.13591236908E+02  0.00000000000E+00 0.  1.
</event>
<event>
 7    1  0.5748623E-013  0.5052886E+02  0.7816164E-02  0.1300439E+00
        -11   -1    0    0    0    0  0.00000000000E+00  0.00000000000E+00  0.45593999997E+02  0.45594000000E+02  0.51100000000E-03 0.  1.
         11   -1    0    0    0    0 -0.00000000000E+00 -0.00000000000E+00 -0.45593999997E+02  0.45594000000E+02  0.51100000000E-03 0. -1.
    9900012    2    1    2    0    0 -0.23318542789E+02 -0.64839225262E+01  0.32670631896E+02  0.50528857392E+02  0.29999992530E+02 0.  0.
         12    1    1    2    0    0  0.23318542789E+02  0.64839225262E+01 -0.32670631896E+02  0.40659142608E+02  0.00000000000E+00 0. -1.
         11    1    3    3    0    0 -0.13652266368E+02  0.50379736827E+01  0.25635416515E+01  0.14776241128E+02  0.51100000000E-03 0. -1.
        -11    1    3    3    0    0  0.20230476726E+01 -0.58577269113E+01  0.11443640388E+02  0.13013938376E+02  0.51100000000E-03 0.  1.
        -12    1    3    3    0    0 -0.11689324093E+02 -0.56641692976E+01  0.18663449856E+02  0.22738677889E+02  0.00000000000E+00 0.  1.
</event>
<event>
 7    1  0.5748623E-013  0.5052886E+02  0.7816164E-02  0.1300439E+00
        -11   -1    0    0    0    0  0.00000000000E+00  0.00000000000E+00  0.45593999997E+02  0.45594000000E+02  0.51100000000E-03 0. -1.
         11   -1    0    0    0    0 -0.00000000000E+00 -0.00000000000E+00 -0.45593999997E+02  0.45594000000E+02  0.51100000000E-03 0.  1.
    9900012    2    1    2    0    0 -0.11946851049E+01 -0.35596073109E+02  0.19612698752E+02  0.50528860245E+02  0.30000001202E+02 0.  0.
         12    1    1    2    0    0  0.11946851049E+01  0.35596073109E+02 -0.19612698752E+02  0.40659139755E+02  0.00000000000E+00 0. -1.
         11    1    3    3    0    0 -0.88832993800E+00 -0.30347252082E+02  0.22068043410E+02  0.37533230333E+02  0.51100000000E-03 0. -1.
        -11    1    3    3    0    0  0.18919994654E+01 -0.35326989534E+01 -0.67646662618E+01  0.78625907795E+01  0.51100000000E-03 0.  1.
        -12    1    3    3    0    0 -0.21983546323E+01 -0.17161220737E+01  0.43093216035E+01  0.51330391332E+01  0.00000000000E+00 0.  1.
</event>
<event>
 7    1  0.5748623E-013  0.5052886E+02  0.7816164E-02  0.1300439E+00
        -11   -1    0    0    0    0  0.00000000000E+00  0.00000000000E+00  0.45593999997E+02  0.45594000000E+02  0.51100000000E-03 0.  1.
         11   -1    0    0    0    0 -0.00000000000E+00 -0.00000000000E+00 -0.45593999997E+02  0.45594000000E+02  0.51100000000E-03 0. -1.
    9900012    2    1    2    0    0  0.19115448583E+02  0.24462117310E+02  0.26255855843E+02  0.50528861742E+02  0.30000005752E+02 0.  0.
         12    1    1    2    0    0 -0.19115448583E+02 -0.24462117310E+02 -0.26255855843E+02  0.40659138258E+02  0.00000000000E+00 0. -1.
         11    1    3    3    0    0 -0.55128498515E+01  0.11405513287E+02  0.28847693057E+01  0.12992272358E+02  0.51100000000E-03 0. -1.
        -11    1    3    3    0    0  0.50353423029E+01 -0.50556774961E+00  0.69511925083E+01  0.85982177459E+01  0.51100000000E-03 0.  1.
         12    1    3    3    0    0  0.19592956132E+02  0.13562171773E+02  0.16419894029E+02  0.28938371639E+02  0.00000000000E+00 0. -1.
</event>
<event>
 7    1  0.5748623E-013  0.5052879E+02  0.7816164E-02  0.1300439E+00
        -11   -1    0    0    0    0  0.00000000000E+00  0.00000000000E+00  0.45593999997E+02  0.45594000000E+02  0.51100000000E-03 0.  1.
         11   -1    0    0    0    0 -0.00000000000E+00 -0.00000000000E+00 -0.45593999997E+02  0.45594000000E+02  0.51100000000E-03 0. -1.
    9900012    2    1    2    0    0  0.24304776090E+02  0.30740425669E+02 -0.10838594177E+02  0.50528793972E+02  0.29999799756E+02 0.  0.
         12    1    1    2    0    0 -0.24304776090E+02 -0.30740425669E+02  0.10838594177E+02  0.40659206028E+02  0.00000000000E+00 0. -1.
         11    1    3    3    0    0  0.12007718280E+02  0.25692897714E+02 -0.16914854032E+02  0.33021547184E+02  0.51100000000E-03 0. -1.
        -11    1    3    3    0    0  0.12487872340E+02  0.11908053838E+01  0.49393160729E+01  0.13481907008E+02  0.51100000000E-03 0.  1.
         12    1    3    3    0    0 -0.19081453008E+00  0.38567225717E+01  0.11369437820E+01  0.40253397798E+01  0.00000000000E+00 0. -1.
</event>
<event>
 7    1  0.6830726E-013  0.5052887E+02  0.7816164E-02  0.1300439E+00
        -11   -1    0    0    0    0  0.00000000000E+00  0.00000000000E+00  0.45593999997E+02  0.45594000000E+02  0.51100000000E-03 0. -1.
         11   -1    0    0    0    0 -0.00000000000E+00 -0.00000000000E+00 -0.45593999997E+02  0.45594000000E+02  0.51100000000E-03 0.  1.
    9900012    2    1    2    0    0 -0.11353316865E+02  0.26505857829E+02 -0.28665428514E+02  0.50528867017E+02  0.30000021784E+02 0.  0.
         12    1    1    2    0    0  0.11353316865E+02 -0.26505857829E+02  0.28665428514E+02  0.40659132983E+02  0.00000000000E+00 0. -1.
         11    1    3    3    0    0  0.49560219370E+01  0.10374919705E+02 -0.57514108062E+01  0.12856120677E+02  0.51100000000E-03 0. -1.
        -11    1    3    3    0    0 -0.16452509789E+02  0.16648484396E+02 -0.11202718629E+02  0.25949142875E+02  0.51100000000E-03 0.  1.
        -12    1    3    3    0    0  0.14317098674E+00 -0.51754627240E+00 -0.11711299079E+02  0.11723603465E+02  0.00000000000E+00 0.  1.
</event>
<event>
 7    1  0.5748623E-013  0.5052889E+02  0.7816164E-02  0.1300439E+00
        -11   -1    0    0    0    0  0.00000000000E+00  0.00000000000E+00  0.45593999997E+02  0.45594000000E+02  0.51100000000E-03 0.  1.
         11   -1    0    0    0    0 -0.00000000000E+00 -0.00000000000E+00 -0.45593999997E+02  0.45594000000E+02  0.51100000000E-03 0. -1.
    9900012    2    1    2    0    0 -0.33411844663E+02 -0.22059750334E+02  0.70837364818E+01  0.50528889444E+02  0.30000089955E+02 0.  0.
         12    1    1    2    0    0  0.33411844663E+02  0.22059750334E+02 -0.70837364818E+01  0.40659110556E+02  0.00000000000E+00 0. -1.
         11    1    3    3    0    0 -0.31304707015E+02 -0.21397826883E+02 -0.44160326512E+01  0.38175293336E+02  0.51100000000E-03 0. -1.
        -11    1    3    3    0    0 -0.22458223255E+01  0.72092888915E+00  0.34158638381E+01  0.41510941211E+01  0.51100000000E-03 0.  1.
         12    1    3    3    0    0  0.13868467750E+00 -0.13828523402E+01  0.80839052949E+01  0.82025019873E+01  0.00000000000E+00 0. -1.
</event>
<event>
 7    1  0.5748623E-013  0.5052885E+02  0.7816164E-02  0.1300439E+00
        -11   -1    0    0    0    0  0.00000000000E+00  0.00000000000E+00  0.45593999997E+02  0.45594000000E+02  0.51100000000E-03 0.  1.
         11   -1    0    0    0    0 -0.00000000000E+00 -0.00000000000E+00 -0.45593999997E+02  0.45594000000E+02  0.51100000000E-03 0. -1.
    9900012    2    1    2    0    0 -0.40571721880E+02 -0.26602199083E+01  0.15854714002E+00  0.50528849450E+02  0.29999968387E+02 0.  0.
         12    1    1    2    0    0  0.40571721880E+02  0.26602199083E+01 -0.15854714002E+00  0.40659150550E+02  0.00000000000E+00 0. -1.
         11    1    3    3    0    0 -0.23795018767E+02  0.15282477028E+01 -0.12986972791E+02  0.27151425776E+02  0.51100000000E-03 0. -1.
        -11    1    3    3    0    0 -0.63582573151E+01 -0.39768708122E+01  0.99857178090E+01  0.12488294438E+02  0.51100000000E-03 0.  1.
         12    1    3    3    0    0 -0.10418445798E+02 -0.21159679896E+00  0.31598021221E+01  0.10889129236E+02  0.00000000000E+00 0. -1.
</event>
<event>
 7    1  0.5748623E-013  0.5052884E+02  0.7816164E-02  0.1300439E+00
        -11   -1    0    0    0    0  0.00000000000E+00  0.00000000000E+00  0.45593999997E+02  0.45594000000E+02  0.51100000000E-03 0.  1.
         11   -1    0    0    0    0 -0.00000000000E+00 -0.00000000000E+00 -0.45593999997E+02  0.45594000000E+02  0.51100000000E-03 0. -1.
    9900012    2    1    2    0    0 -0.14123122045E+02 -0.35618868827E+01  0.37960734390E+02  0.50528843960E+02  0.29999951699E+02 0.  0.
         12    1    1    2    0    0  0.14123122045E+02  0.35618868827E+01 -0.37960734390E+02  0.40659156040E+02  0.00000000000E+00 0. -1.
         11    1    3    3    0    0  0.19711993401E+01 -0.69876247813E+01 -0.33724073494E+00  0.72681674786E+01  0.51100000000E-03 0. -1.
        -11    1    3    3    0    0 -0.59527381733E+01 -0.26764411733E+00  0.26944868213E+02  0.27595881004E+02  0.51100000000E-03 0.  1.
         12    1    3    3    0    0 -0.10141583212E+02  0.36933820160E+01  0.11353106912E+02  0.15664795477E+02  0.00000000000E+00 0. -1.
</event>
<event>
 7    1  0.5748623E-013  0.5052886E+02  0.7816164E-02  0.1300439E+00
        -11   -1    0    0    0    0  0.00000000000E+00  0.00000000000E+00  0.45593999997E+02  0.45594000000E+02  0.51100000000E-03 0.  1.
         11   -1    0    0    0    0 -0.00000000000E+00 -0.00000000000E+00 -0.45593999997E+02  0.45594000000E+02  0.51100000000E-03 0. -1.
    9900012    2    1    2    0    0  0.33956334050E+02  0.10384356183E+02  0.19806517257E+02  0.50528860790E+02  0.30000002858E+02 0.  0.
         12    1    1    2    0    0 -0.33956334050E+02 -0.10384356183E+02 -0.19806517257E+02  0.40659139210E+02  0.00000000000E+00 0. -1.
         11    1    3    3    0    0  0.67837439124E+00  0.97348319565E+00  0.86194562024E+01  0.87007405910E+01  0.51100000000E-03 0. -1.
        -11    1    3    3    0    0  0.29248730193E+02 -0.16372412872E+00  0.48184435352E+01  0.29643421223E+02  0.51100000000E-03 0.  1.
        -12    1    3    3    0    0  0.40292294659E+01  0.95745971162E+01  0.63686175192E+01  0.12184698976E+02  0.00000000000E+00 0.  1.
</event>
<event>
 7    1  0.5748623E-013  0.5052885E+02  0.7816164E-02  0.1300439E+00
        -11   -1    0    0    0    0  0.00000000000E+00  0.00000000000E+00  0.45593999997E+02  0.45594000000E+02  0.51100000000E-03 0. -1.
         11   -1    0    0    0    0 -0.00000000000E+00 -0.00000000000E+00 -0.45593999997E+02  0.45594000000E+02  0.51100000000E-03 0.  1.
    9900012    2    1    2    0    0 -0.44821755268E+01 -0.37277515024E+02 -0.15603305358E+02  0.50528853896E+02  0.29999981902E+02 0.  0.
         12    1    1    2    0    0  0.44821755268E+01  0.37277515024E+02  0.15603305358E+02  0.40659146104E+02  0.00000000000E+00 0. -1.
         11    1    3    3    0    0 -0.10262261309E+02 -0.42387666729E+01 -0.58689267760E+00  0.11118704662E+02  0.51100000000E-03 0. -1.
        -11    1    3    3    0    0  0.60851985592E+01 -0.24850726148E+02 -0.43375102223E+01  0.25949994736E+02  0.51100000000E-03 0.  1.
         12    1    3    3    0    0 -0.30511277675E+00 -0.81880222027E+01 -0.10678902458E+02  0.13460154498E+02  0.00000000000E+00 0. -1.
</event>
<event>
 7    1  0.5748623E-013  0.5052886E+02  0.7816164E-02  0.1300439E+00
        -11   -1    0    0    0    0  0.00000000000E+00  0.00000000000E+00  0.45593999997E+02  0.45594000000E+02  0.51100000000E-03 0.  1.
         11   -1    0    0    0    0 -0.00000000000E+00 -0.00000000000E+00 -0.45593999997E+02  0.45594000000E+02  0.51100000000E-03 0. -1.
    9900012    2    1    2    0    0 -0.10219012098E+00  0.12903736512E+02  0.38557084631E+02  0.50528860387E+02  0.30000001633E+02 0.  0.
         12    1    1    2    0    0  0.10219012098E+00 -0.12903736512E+02 -0.38557084631E+02  0.40659139613E+02  0.00000000000E+00 0. -1.
         11    1    3    3    0    0  0.10293080167E+02  0.32617062894E+01  0.18833803427E+01  0.10960535982E+02  0.51100000000E-03 0. -1.
        -11    1    3    3    0    0 -0.18419909350E+01  0.10181396373E+01  0.10564910812E+02  0.10772505728E+02  0.51100000000E-03 0.  1.
         12    1    3    3    0    0 -0.85532793529E+01  0.86238905849E+01  0.26108793476E+02  0.28795818677E+02  0.00000000000E+00 0. -1.
</event>
<event>
 7    1  0.5748623E-013  0.5052886E+02  0.7816164E-02  0.1300439E+00
        -11   -1    0    0    0    0  0.00000000000E+00  0.00000000000E+00  0.45593999997E+02  0.45594000000E+02  0.51100000000E-03 0.  1.
         11   -1    0    0    0    0 -0.00000000000E+00 -0.00000000000E+00 -0.45593999997E+02  0.45594000000E+02  0.51100000000E-03 0. -1.
    9900012    2    1    2    0    0  0.13866690864E+02  0.18343753951E+02  0.33531882497E+02  0.50528861195E+02  0.30000004089E+02 0.  0.
         12    1    1    2    0    0 -0.13866690864E+02 -0.18343753951E+02 -0.33531882497E+02  0.40659138805E+02  0.00000000000E+00 0. -1.
         11    1    3    3    0    0 -0.32688613983E+01 -0.98239953495E+00 -0.23718941568E+01  0.41564944171E+01  0.51100000000E-03 0. -1.
        -11    1    3    3    0    0  0.70744104276E+01  0.73483326762E+01  0.25818324261E+02  0.27760243946E+02  0.51100000000E-03 0.  1.
        -12    1    3    3    0    0  0.10061141835E+02  0.11977820809E+02  0.10085452393E+02  0.18612122833E+02  0.00000000000E+00 0.  1.
</event>
<event>
 7    1  0.5748623E-013  0.5052887E+02  0.7816164E-02  0.1300439E+00
        -11   -1    0    0    0    0  0.00000000000E+00  0.00000000000E+00  0.45593999997E+02  0.45594000000E+02  0.51100000000E-03 0.  1.
         11   -1    0    0    0    0 -0.00000000000E+00 -0.00000000000E+00 -0.45593999997E+02  0.45594000000E+02  0.51100000000E-03 0. -1.
    9900012    2    1    2    0    0  0.11694134445E+02  0.38228880765E+02  0.74138434199E+01  0.50528865980E+02  0.30000018633E+02 0.  0.
         12    1    1    2    0    0 -0.11694134445E+02 -0.38228880765E+02 -0.74138434199E+01  0.40659134020E+02  0.00000000000E+00 0. -1.
         11    1    3    3    0    0  0.91574339708E-01  0.24031746894E+01  0.40580424635E+01  0.47171329581E+01  0.51100000000E-03 0. -1.
        -11    1    3    3    0    0  0.12247160995E+02  0.26356002245E+02 -0.88218546410E+01  0.30371976003E+02  0.51100000000E-03 0.  1.
        -12    1    3    3    0    0 -0.64460088958E+00  0.94697038306E+01  0.12177655597E+02  0.15439757019E+02  0.00000000000E+00 0.  1.
</event>
<event>
 7    1  0.5748623E-013  0.5052884E+02  0.7816164E-02  0.1300439E+00
        -11   -1    0    0    0    0  0.00000000000E+00  0.00000000000E+00  0.45593999997E+02  0.45594000000E+02  0.51100000000E-03 0.  1.
         11   -1    0    0    0    0 -0.00000000000E+00 -0.00000000000E+00 -0.45593999997E+02  0.45594000000E+02  0.51100000000E-03 0. -1.
    9900012    2    1    2    0    0 -0.28855150962E+02 -0.28538451560E+02  0.24706141150E+01  0.50528844960E+02  0.29999954741E+02 0.  0.
         12    1    1    2    0    0  0.28855150962E+02  0.28538451560E+02 -0.24706141150E+01  0.40659155040E+02  0.00000000000E+00 0. -1.
         11    1    3    3    0    0 -0.15888137894E+02 -0.28416383613E+02 -0.20235631865E+01  0.32619297840E+02  0.51100000000E-03 0. -1.
        -11    1    3    3    0    0 -0.91650894046E+01 -0.41361583657E+00  0.84086326039E+01  0.12444880248E+02  0.51100000000E-03 0.  1.
        -12    1    3    3    0    0 -0.38019236627E+01  0.29154788970E+00 -0.39144553024E+01  0.54646668721E+01  0.00000000000E+00 0.  1.
</event>
<event>
 7    1  0.5748623E-013  0.5052886E+02  0.7816164E-02  0.1300439E+00
        -11   -1    0    0    0    0  0.00000000000E+00  0.00000000000E+00  0.45593999997E+02  0.45594000000E+02  0.51100000000E-03 0.  1.
         11   -1    0    0    0    0 -0.00000000000E+00 -0.00000000000E+00 -0.45593999997E+02  0.45594000000E+02  0.51100000000E-03 0. -1.
    9900012    2    1    2    0    0 -0.24527254113E+01 -0.40529060787E+02 -0.21318378715E+01  0.50528863722E+02  0.30000011769E+02 0.  0.
         12    1    1    2    0    0  0.24527254113E+01  0.40529060787E+02  0.21318378715E+01  0.40659136278E+02  0.00000000000E+00 0. -1.
         11    1    3    3    0    0  0.20953033682E+01  0.39922724728E+01  0.11724051930E+01  0.46586553746E+01  0.51100000000E-03 0. -1.
        -11    1    3    3    0    0 -0.61751424012E+01 -0.24252731774E+02  0.11550429173E+01  0.25053173583E+02  0.51100000000E-03 0.  1.
         12    1    3    3    0    0  0.16271136217E+01 -0.20268601485E+02 -0.44592859819E+01  0.20817034764E+02  0.00000000000E+00 0. -1.
</event>
<event>
 7    1  0.5748623E-013  0.5052886E+02  0.7816164E-02  0.1300439E+00
        -11   -1    0    0    0    0  0.00000000000E+00  0.00000000000E+00  0.45593999997E+02  0.45594000000E+02  0.51100000000E-03 0.  1.
         11   -1    0    0    0    0 -0.00000000000E+00 -0.00000000000E+00 -0.45593999997E+02  0.45594000000E+02  0.51100000000E-03 0. -1.
    9900012    2    1    2    0    0  0.42694532688E+01  0.71046352157E+01  0.39805292479E+02  0.50528863486E+02  0.30000011051E+02 0.  0.
         12    1    1    2    0    0 -0.42694532688E+01 -0.71046352157E+01 -0.39805292479E+02  0.40659136514E+02  0.00000000000E+00 0. -1.
         11    1    3    3    0    0 -0.63822713885E+00  0.20221448173E+00  0.76906370582E+01  0.77197230002E+01  0.51100000000E-03 0. -1.
        -11    1    3    3    0    0 -0.58269231790E+01  0.14183124717E+02  0.17684218625E+02  0.23406102818E+02  0.51100000000E-03 0.  1.
        -12    1    3    3    0    0  0.10734603587E+02 -0.72807039825E+01  0.14430436795E+02  0.19403037668E+02  0.00000000000E+00 0.  1.
</event>
<event>
 7    1  0.5748623E-013  0.5052886E+02  0.7816164E-02  0.1300439E+00
        -11   -1    0    0    0    0  0.00000000000E+00  0.00000000000E+00  0.45593999997E+02  0.45594000000E+02  0.51100000000E-03 0.  1.
         11   -1    0    0    0    0 -0.00000000000E+00 -0.00000000000E+00 -0.45593999997E+02  0.45594000000E+02  0.51100000000E-03 0. -1.
    9900012    2    1    2    0    0 -0.29037450764E+02  0.20903030237E+01  0.28383495106E+02  0.50528859478E+02  0.29999998868E+02 0.  0.
         12    1    1    2    0    0  0.29037450764E+02 -0.20903030237E+01 -0.28383495106E+02  0.40659140522E+02  0.00000000000E+00 0. -1.
         11    1    3    3    0    0 -0.29087821897E+01  0.49036961345E+01  0.16365499564E+02  0.17330228672E+02  0.51100000000E-03 0.  1.
        -11    1    3    3    0    0 -0.22461708856E+02  0.42724618531E+01  0.76970357301E+01  0.24125228586E+02  0.51100000000E-03 0. -1.
         12    1    3    3    0    0 -0.36669597179E+01 -0.70858549640E+01  0.43209598124E+01  0.90734022198E+01  0.00000000000E+00 0. -1.
</event>
<event>
 7    1  0.5748623E-013  0.5052887E+02  0.7816164E-02  0.1300439E+00
        -11   -1    0    0    0    0  0.00000000000E+00  0.00000000000E+00  0.45593999997E+02  0.45594000000E+02  0.51100000000E-03 0.  1.
         11   -1    0    0    0    0 -0.00000000000E+00 -0.00000000000E+00 -0.45593999997E+02  0.45594000000E+02  0.51100000000E-03 0. -1.
    9900012    2    1    2    0    0 -0.19695391850E+02 -0.14569258110E+02  0.32449861082E+02  0.50528865402E+02  0.30000016876E+02 0.  0.
         12    1    1    2    0    0  0.19695391850E+02  0.14569258110E+02 -0.32449861082E+02  0.40659134598E+02  0.00000000000E+00 0. -1.
         11    1    3    3    0    0 -0.73067273921E+01  0.27734768105E+01  0.82508149676E+00  0.78588293364E+01  0.51100000000E-03 0. -1.
        -11    1    3    3    0    0  0.44517192467E+01 -0.84485070656E+01  0.93711011486E+01  0.13379559518E+02  0.51100000000E-03 0.  1.
         12    1    3    3    0    0 -0.16840383704E+02 -0.88942278549E+01  0.22253678437E+02  0.29290476548E+02  0.00000000000E+00 0. -1.
</event>
<event>
 7    1  0.5748623E-013  0.5052885E+02  0.7816164E-02  0.1300439E+00
        -11   -1    0    0    0    0  0.00000000000E+00  0.00000000000E+00  0.45593999997E+02  0.45594000000E+02  0.51100000000E-03 0.  1.
         11   -1    0    0    0    0 -0.00000000000E+00 -0.00000000000E+00 -0.45593999997E+02  0.45594000000E+02  0.51100000000E-03 0. -1.
    9900012    2    1    2    0    0  0.33897718395E+02  0.22393066376E+02  0.16313649168E+01  0.50528854835E+02  0.29999984756E+02 0.  0.
         12    1    1    2    0    0 -0.33897718395E+02 -0.22393066376E+02 -0.16313649168E+01  0.40659145165E+02  0.00000000000E+00 0. -1.
         11    1    3    3    0    0  0.15319549677E+02  0.15654033028E+02 -0.69349972968E+01  0.22974584656E+02  0.51100000000E-03 0. -1.
        -11    1    3    3    0    0  0.12327331610E+01 -0.37899901030E+01  0.58553204944E+01  0.70829679077E+01  0.51100000000E-03 0.  1.
        -12    1    3    3    0    0  0.17345435556E+02  0.10529023451E+02  0.27110417191E+01  0.20471302271E+02  0.00000000000E+00 0.  1.
</event>
<event>
 7    1  0.5748623E-013  0.5052885E+02  0.7816164E-02  0.1300439E+00
        -11   -1    0    0    0    0  0.00000000000E+00  0.00000000000E+00  0.45593999997E+02  0.45594000000E+02  0.51100000000E-03 0.  1.
         11   -1    0    0    0    0 -0.00000000000E+00 -0.00000000000E+00 -0.45593999997E+02  0.45594000000E+02  0.51100000000E-03 0. -1.
    9900012    2    1    2    0    0 -0.14949316612E+02 -0.12153035370E+02  0.35804856954E+02  0.50528854444E+02  0.29999983568E+02 0.  0.
         12    1    1    2    0    0  0.14949316612E+02  0.12153035370E+02 -0.35804856954E+02  0.40659145556E+02  0.00000000000E+00 0. -1.
         11    1    3    3    0    0 -0.29235517589E+01  0.41500737936E+01  0.44998204210E+01  0.67837048478E+01  0.51100000000E-03 0. -1.
        -11    1    3    3    0    0 -0.10327228700E+02 -0.16072705981E+02  0.85582580141E+01  0.20933879494E+02  0.51100000000E-03 0.  1.
        -12    1    3    3    0    0 -0.16985361528E+01 -0.23040318184E+00  0.22746778519E+02  0.22811270102E+02  0.00000000000E+00 0.  1.
</event>
<event>
 7    1  0.5748623E-013  0.5052886E+02  0.7816164E-02  0.1300439E+00
        -11   -1    0    0    0    0  0.00000000000E+00  0.00000000000E+00  0.45593999997E+02  0.45594000000E+02  0.51100000000E-03 0.  1.
         11   -1    0    0    0    0 -0.00000000000E+00 -0.00000000000E+00 -0.45593999997E+02  0.45594000000E+02  0.51100000000E-03 0. -1.
    9900012    2    1    2    0    0  0.23026374251E+02  0.11913576997E+02  0.31321212543E+02  0.50528861013E+02  0.30000003534E+02 0.  0.
         12    1    1    2    0    0 -0.23026374251E+02 -0.11913576997E+02 -0.31321212543E+02  0.40659138987E+02  0.00000000000E+00 0. -1.
         11    1    3    3    0    0  0.15985584119E+02 -0.38485087629E+01  0.44556354719E+01  0.17035334075E+02  0.51100000000E-03 0. -1.
        -11    1    3    3    0    0  0.40173240853E+01  0.16164009557E+02  0.24537847528E+02  0.29656703446E+02  0.51100000000E-03 0.  1.
        -12    1    3    3    0    0  0.30234660469E+01 -0.40192379704E+00  0.23277295436E+01  0.38368234913E+01  0.00000000000E+00 0.  1.
</event>
<event>
 7    1  0.5748623E-013  0.5052890E+02  0.7816164E-02  0.1300439E+00
        -11   -1    0    0    0    0  0.00000000000E+00  0.00000000000E+00  0.45593999997E+02  0.45594000000E+02  0.51100000000E-03 0.  1.
         11   -1    0    0    0    0 -0.00000000000E+00 -0.00000000000E+00 -0.45593999997E+02  0.45594000000E+02  0.51100000000E-03 0. -1.
    9900012    2    1    2    0    0  0.38269038552E+02 -0.13694567875E+02  0.10496719467E+01  0.50528901238E+02  0.30000125803E+02 0.  0.
         12    1    1    2    0    0 -0.38269038552E+02  0.13694567875E+02 -0.10496719467E+01  0.40659098762E+02  0.00000000000E+00 0. -1.
         11    1    3    3    0    0  0.78782257140E+01  0.38373394923E+00  0.78654564844E+01  0.11139079770E+02  0.51100000000E-03 0. -1.
        -11    1    3    3    0    0  0.13519191580E+02 -0.11516962834E+02 -0.12141249825E+02  0.21513226663E+02  0.51100000000E-03 0.  1.
        -12    1    3    3    0    0  0.16871621258E+02 -0.25613389895E+01  0.53254652873E+01  0.17876594805E+02  0.00000000000E+00 0.  1.
</event>
<event>
 7    1  0.5748623E-013  0.5052885E+02  0.7816164E-02  0.1300439E+00
        -11   -1    0    0    0    0  0.00000000000E+00  0.00000000000E+00  0.45593999997E+02  0.45594000000E+02  0.51100000000E-03 0.  1.
         11   -1    0    0    0    0 -0.00000000000E+00 -0.00000000000E+00 -0.45593999997E+02  0.45594000000E+02  0.51100000000E-03 0. -1.
    9900012    2    1    2    0    0  0.22232192594E+01 -0.40120050551E+02 -0.62133155347E+01  0.50528850353E+02  0.29999971134E+02 0.  0.
         12    1    1    2    0    0 -0.22232192594E+01  0.40120050551E+02  0.62133155347E+01  0.40659149647E+02  0.00000000000E+00 0. -1.
         11    1    3    3    0    0 -0.82143545134E+01 -0.31084681244E+02  0.22461487377E+01  0.32230082416E+02  0.51100000000E-03 0. -1.
        -11    1    3    3    0    0  0.71705317814E+01 -0.71987993826E+01 -0.99911454391E+01  0.14249990387E+02  0.51100000000E-03 0.  1.
         12    1    3    3    0    0  0.32670419913E+01 -0.18365699242E+01  0.15316811667E+01  0.40487775508E+01  0.00000000000E+00 0. -1.
</event>
<event>
 7    1  0.5748623E-013  0.5052886E+02  0.7816164E-02  0.1300439E+00
        -11   -1    0    0    0    0  0.00000000000E+00  0.00000000000E+00  0.45593999997E+02  0.45594000000E+02  0.51100000000E-03 0.  1.
         11   -1    0    0    0    0 -0.00000000000E+00 -0.00000000000E+00 -0.45593999997E+02  0.45594000000E+02  0.51100000000E-03 0. -1.
    9900012    2    1    2    0    0 -0.14955361469E+02 -0.37409371535E+02  0.54810478497E+01  0.50528858337E+02  0.29999995400E+02 0.  0.
         12    1    1    2    0    0  0.14955361469E+02  0.37409371535E+02 -0.54810478497E+01  0.40659141663E+02  0.00000000000E+00 0. -1.
         11    1    3    3    0    0  0.44787908979E+01 -0.27413922380E+01 -0.43421195856E+01  0.68138683628E+01  0.51100000000E-03 0. -1.
        -11    1    3    3    0    0 -0.20093760620E+02 -0.22545756678E+02  0.48129438740E+01  0.30581608673E+02  0.51100000000E-03 0.  1.
        -12    1    3    3    0    0  0.65960825335E+00 -0.12122222618E+02  0.50102235613E+01  0.13133381301E+02  0.00000000000E+00 0.  1.
</event>
<event>
 7    1  0.5748623E-013  0.5052885E+02  0.7816164E-02  0.1300439E+00
        -11   -1    0    0    0    0  0.00000000000E+00  0.00000000000E+00  0.45593999997E+02  0.45594000000E+02  0.51100000000E-03 0.  1.
         11   -1    0    0    0    0 -0.00000000000E+00 -0.00000000000E+00 -0.45593999997E+02  0.45594000000E+02  0.51100000000E-03 0. -1.
    9900012    2    1    2    0    0 -0.36252308581E+02  0.18399396156E+02  0.63125286544E+00  0.50528854208E+02  0.29999982851E+02 0.  0.
         12    1    1    2    0    0  0.36252308581E+02 -0.18399396156E+02 -0.63125286544E+00  0.40659145792E+02  0.00000000000E+00 0. -1.
         11    1    3    3    0    0 -0.68171361687E+01  0.30012950477E+01  0.70008517929E+01  0.10222183895E+02  0.51100000000E-03 0. -1.
        -11    1    3    3    0    0 -0.10315975906E+02  0.17310668510E+02 -0.62268491899E+01  0.21091520909E+02  0.51100000000E-03 0.  1.
        -12    1    3    3    0    0 -0.19119196506E+02 -0.19125674013E+01 -0.14274973754E+00  0.19215149404E+02  0.00000000000E+00 0.  1.
</event>
<event>
 7    1  0.5748623E-013  0.5052886E+02  0.7816164E-02  0.1300439E+00
        -11   -1    0    0    0    0  0.00000000000E+00  0.00000000000E+00  0.45593999997E+02  0.45594000000E+02  0.51100000000E-03 0.  1.
         11   -1    0    0    0    0 -0.00000000000E+00 -0.00000000000E+00 -0.45593999997E+02  0.45594000000E+02  0.51100000000E-03 0. -1.
    9900012    2    1    2    0    0 -0.50693509768E+01 -0.23116852495E+02  0.33061736006E+02  0.50528861097E+02  0.30000003790E+02 0.  0.
         12    1    1    2    0    0  0.50693509768E+01  0.23116852495E+02 -0.33061736006E+02  0.40659138903E+02  0.00000000000E+00 0. -1.
         11    1    3    3    0    0  0.28970934428E+01  0.39258886429E+01 -0.64715961550E+00  0.49218459831E+01  0.51100000000E-03 0. -1.
        -11    1    3    3    0    0 -0.10730963443E+02 -0.21994131806E+02  0.23736963741E+02  0.34093091063E+02  0.51100000000E-03 0.  1.
         12    1    3    3    0    0  0.27645190233E+01 -0.50486093321E+01  0.99719318809E+01  0.11513924051E+02  0.00000000000E+00 0. -1.
</event>
<event>
 7    1  0.5748623E-013  0.5052886E+02  0.7816164E-02  0.1300439E+00
        -11   -1    0    0    0    0  0.00000000000E+00  0.00000000000E+00  0.45593999997E+02  0.45594000000E+02  0.51100000000E-03 0. -1.
         11   -1    0    0    0    0 -0.00000000000E+00 -0.00000000000E+00 -0.45593999997E+02  0.45594000000E+02  0.51100000000E-03 0.  1.
    9900012    2    1    2    0    0  0.21656123129E+02 -0.33960311227E+02 -0.55565737165E+01  0.50528856882E+02  0.29999990979E+02 0.  0.
         12    1    1    2    0    0 -0.21656123129E+02  0.33960311227E+02  0.55565737165E+01  0.40659143118E+02  0.00000000000E+00 0. -1.
         11    1    3    3    0    0 -0.61867699343E+01 -0.76558664429E+01  0.34210979596E+01  0.10420764114E+02  0.51100000000E-03 0. -1.
        -11    1    3    3    0    0  0.31443212185E+01 -0.20924989565E+00 -0.95938262423E+00  0.32940790404E+01  0.51100000000E-03 0.  1.
         12    1    3    3    0    0  0.24698571845E+02 -0.26095194888E+02 -0.80182890519E+01  0.36814013728E+02  0.00000000000E+00 0. -1.
</event>
<event>
 7    1  0.5748623E-013  0.5052886E+02  0.7816164E-02  0.1300439E+00
        -11   -1    0    0    0    0  0.00000000000E+00  0.00000000000E+00  0.45593999997E+02  0.45594000000E+02  0.51100000000E-03 0. -1.
         11   -1    0    0    0    0 -0.00000000000E+00 -0.00000000000E+00 -0.45593999997E+02  0.45594000000E+02  0.51100000000E-03 0.  1.
    9900012    2    1    2    0    0 -0.40411420816E+02  0.19324345468E+01 -0.40433300273E+01  0.50528858920E+02  0.29999997174E+02 0.  0.
         12    1    1    2    0    0  0.40411420816E+02 -0.19324345468E+01  0.40433300273E+01  0.40659141080E+02  0.00000000000E+00 0. -1.
         11    1    3    3    0    0  0.26960075252E+01 -0.83933913108E+00 -0.15994043574E+01  0.32451565929E+01  0.51100000000E-03 0. -1.
        -11    1    3    3    0    0 -0.32699700074E+02  0.26988958508E+01 -0.10137029236E+02  0.34341138387E+02  0.51100000000E-03 0.  1.
        -12    1    3    3    0    0 -0.10407728267E+02  0.72877827051E-01  0.76931035659E+01  0.12942563940E+02  0.00000000000E+00 0.  1.
</event>
<event>
 7    1  0.5748623E-013  0.5052887E+02  0.7816164E-02  0.1300439E+00
        -11   -1    0    0    0    0  0.00000000000E+00  0.00000000000E+00  0.45593999997E+02  0.45594000000E+02  0.51100000000E-03 0.  1.
         11   -1    0    0    0    0 -0.00000000000E+00 -0.00000000000E+00 -0.45593999997E+02  0.45594000000E+02  0.51100000000E-03 0. -1.
    9900012    2    1    2    0    0  0.43487606338E+01  0.58962755015E+01  0.39993589720E+02  0.50528868153E+02  0.30000025239E+02 0.  0.
         12    1    1    2    0    0 -0.43487606338E+01 -0.58962755015E+01 -0.39993589720E+02  0.40659131847E+02  0.00000000000E+00 0. -1.
         11    1    3    3    0    0  0.73200177433E+01 -0.11894589526E+01 -0.13206877710E+01  0.75327079336E+01  0.51100000000E-03 0. -1.
        -11    1    3    3    0    0  0.88684882252E+00  0.23293699604E+01  0.30229053109E+02  0.30331635587E+02  0.51100000000E-03 0.  1.
         12    1    3    3    0    0 -0.38581059321E+01  0.47563644937E+01  0.11085224382E+02  0.12664524633E+02  0.00000000000E+00 0. -1.
</event>
<event>
 7    1  0.5748623E-013  0.5052886E+02  0.7816164E-02  0.1300439E+00
        -11   -1    0    0    0    0  0.00000000000E+00  0.00000000000E+00  0.45593999997E+02  0.45594000000E+02  0.51100000000E-03 0. -1.
         11   -1    0    0    0    0 -0.00000000000E+00 -0.00000000000E+00 -0.45593999997E+02  0.45594000000E+02  0.51100000000E-03 0.  1.
    9900012    2    1    2    0    0 -0.18382049834E+01  0.76235192200E+01 -0.39895723686E+02  0.50528858208E+02  0.29999995008E+02 0.  0.
         12    1    1    2    0    0  0.18382049834E+01 -0.76235192200E+01  0.39895723686E+02  0.40659141792E+02  0.00000000000E+00 0. -1.
         11    1    3    3    0    0 -0.87639547151E+01 -0.15253973926E+00 -0.33320975212E+01  0.93772621149E+01  0.51100000000E-03 0. -1.
        -11    1    3    3    0    0  0.89922368804E+00  0.35762874050E+01 -0.32594199541E+02  0.32802138327E+02  0.51100000000E-03 0.  1.
         12    1    3    3    0    0  0.60265260436E+01  0.41997715543E+01 -0.39694266241E+01  0.83494577660E+01  0.00000000000E+00 0. -1.
</event>
<event>
 7    1  0.5748623E-013  0.5052878E+02  0.7816164E-02  0.1300439E+00
        -11   -1    0    0    0    0  0.00000000000E+00  0.00000000000E+00  0.45593999997E+02  0.45594000000E+02  0.51100000000E-03 0.  1.
         11   -1    0    0    0    0 -0.00000000000E+00 -0.00000000000E+00 -0.45593999997E+02  0.45594000000E+02  0.51100000000E-03 0. -1.
    9900012    2    1    2    0    0  0.13539725124E+02  0.85603121123E+01  0.37370697660E+02  0.50528780338E+02  0.29999758314E+02 0.  0.
         12    1    1    2    0    0 -0.13539725124E+02 -0.85603121123E+01 -0.37370697660E+02  0.40659219662E+02  0.00000000000E+00 0. -1.
         11    1    3    3    0    0 -0.93133300133E+00  0.33410376063E+01  0.18596382134E+01  0.39355009836E+01  0.51100000000E-03 0. -1.
        -11    1    3    3    0    0  0.16094829297E+02  0.42309654538E+00  0.68645727973E+01  0.17502711240E+02  0.51100000000E-03 0.  1.
        -12    1    3    3    0    0 -0.16237711717E+01  0.47961779607E+01  0.28646486650E+02  0.29090568114E+02  0.00000000000E+00 0.  1.
</event>
<event>
 7    1  0.5748623E-013  0.5052885E+02  0.7816164E-02  0.1300439E+00
        -11   -1    0    0    0    0  0.00000000000E+00  0.00000000000E+00  0.45593999997E+02  0.45594000000E+02  0.51100000000E-03 0.  1.
         11   -1    0    0    0    0 -0.00000000000E+00 -0.00000000000E+00 -0.45593999997E+02  0.45594000000E+02  0.51100000000E-03 0. -1.
    9900012    2    1    2    0    0 -0.21048752189E+02  0.34783670018E+02 -0.46115442171E+00  0.50528851804E+02  0.29999975542E+02 0.  0.
         12    1    1    2    0    0  0.21048752189E+02 -0.34783670018E+02  0.46115442171E+00  0.40659148196E+02  0.00000000000E+00 0. -1.
         11    1    3    3    0    0 -0.69098035784E+01  0.15928530953E+02 -0.77025826881E+01  0.18994558803E+02  0.51100000000E-03 0. -1.
        -11    1    3    3    0    0  0.10803045643E+01  0.12024496046E+02  0.85612198211E+01  0.14800339462E+02  0.51100000000E-03 0.  1.
        -12    1    3    3    0    0 -0.15219253175E+02  0.68306430198E+01 -0.13197915547E+01  0.16733953538E+02  0.00000000000E+00 0.  1.
</event>
<event>
 7    1  0.5748623E-013  0.5052885E+02  0.7816164E-02  0.1300439E+00
        -11   -1    0    0    0    0  0.00000000000E+00  0.00000000000E+00  0.45593999997E+02  0.45594000000E+02  0.51100000000E-03 0. -1.
         11   -1    0    0    0    0 -0.00000000000E+00 -0.00000000000E+00 -0.45593999997E+02  0.45594000000E+02  0.51100000000E-03 0.  1.
    9900012    2    1    2    0    0  0.21630083594E+02 -0.27152050057E+02  0.21167710577E+02  0.50528852079E+02  0.29999976380E+02 0.  0.
         12    1    1    2    0    0 -0.21630083594E+02  0.27152050057E+02 -0.21167710577E+02  0.40659147921E+02  0.00000000000E+00 0. -1.
         11    1    3    3    0    0  0.53615484471E+00 -0.12111160011E+02  0.93955035234E+01  0.15337638200E+02  0.51100000000E-03 0. -1.
        -11    1    3    3    0    0  0.18197978249E+02 -0.55771701094E+00  0.46347503679E+01  0.18787186374E+02  0.51100000000E-03 0.  1.
        -12    1    3    3    0    0  0.28959505000E+01 -0.14483173035E+02  0.71374566859E+01  0.16404027506E+02  0.00000000000E+00 0.  1.
</event>
<event>
 7    1  0.5748623E-013  0.5052886E+02  0.7816164E-02  0.1300439E+00
        -11   -1    0    0    0    0  0.00000000000E+00  0.00000000000E+00  0.45593999997E+02  0.45594000000E+02  0.51100000000E-03 0.  1.
         11   -1    0    0    0    0 -0.00000000000E+00 -0.00000000000E+00 -0.45593999997E+02  0.45594000000E+02  0.51100000000E-03 0. -1.
    9900012    2    1    2    0    0 -0.33818133592E+01 -0.23822187314E+02  0.32775481929E+02  0.50528862211E+02  0.30000007178E+02 0.  0.
         12    1    1    2    0    0  0.33818133592E+01  0.23822187314E+02 -0.32775481929E+02  0.40659137789E+02  0.00000000000E+00 0. -1.
         11    1    3    3    0    0 -0.33260749410E+01  0.35011132500E+01  0.27664499528E+01  0.55654123033E+01  0.51100000000E-03 0. -1.
        -11    1    3    3    0    0 -0.86561092107E+01 -0.16561878155E+02  0.11690019343E+02  0.22042699181E+02  0.51100000000E-03 0.  1.
        -12    1    3    3    0    0  0.86003707925E+01 -0.10761422409E+02  0.18319012634E+02  0.22920750728E+02  0.00000000000E+00 0.  1.
</event>
<event>
 7    1  0.5748623E-013  0.5052886E+02  0.7816164E-02  0.1300439E+00
        -11   -1    0    0    0    0  0.00000000000E+00  0.00000000000E+00  0.45593999997E+02  0.45594000000E+02  0.51100000000E-03 0. -1.
         11   -1    0    0    0    0 -0.00000000000E+00 -0.00000000000E+00 -0.45593999997E+02  0.45594000000E+02  0.51100000000E-03 0.  1.
    9900012    2    1    2    0    0  0.26864357740E+02 -0.31743119490E+01 -0.30354503739E+02  0.50528857481E+02  0.29999992798E+02 0.  0.
         12    1    1    2    0    0 -0.26864357740E+02  0.31743119490E+01  0.30354503739E+02  0.40659142519E+02  0.00000000000E+00 0. -1.
         11    1    3    3    0    0  0.24949246877E+02 -0.91555912266E+01 -0.29099507252E+02  0.39409022990E+02  0.51100000000E-03 0. -1.
        -11    1    3    3    0    0  0.51580972817E+01  0.53003080929E+01 -0.21225432399E+01  0.76944410787E+01  0.51100000000E-03 0.  1.
         12    1    3    3    0    0 -0.32429864179E+01  0.68097118472E+00  0.86754675276E+00  0.34253934123E+01  0.00000000000E+00 0. -1.
</event>
<event>
 7    1  0.5748623E-013  0.5052886E+02  0.7816164E-02  0.1300439E+00
        -11   -1    0    0    0    0  0.00000000000E+00  0.00000000000E+00  0.45593999997E+02  0.45594000000E+02  0.51100000000E-03 0. -1.
         11   -1    0    0    0    0 -0.00000000000E+00 -0.00000000000E+00 -0.45593999997E+02  0.45594000000E+02  0.51100000000E-03 0.  1.
    9900012    2    1    2    0    0 -0.33957302690E+02  0.89146987236E+01 -0.20508422209E+02  0.50528860304E+02  0.30000001380E+02 0.  0.
         12    1    1    2    0    0  0.33957302690E+02 -0.89146987236E+01  0.20508422209E+02  0.40659139696E+02  0.00000000000E+00 0. -1.
         11    1    3    3    0    0 -0.52864334788E+01 -0.48537489488E+01  0.42291877074E+00  0.71891667341E+01  0.51100000000E-03 0. -1.
        -11    1    3    3    0    0 -0.26938761213E+02  0.12811094966E+02 -0.88751800511E+01  0.31122175874E+02  0.51100000000E-03 0.  1.
        -12    1    3    3    0    0 -0.17321079983E+01  0.95735270685E+00 -0.12056160929E+02  0.12217517696E+02  0.00000000000E+00 0.  1.
</event>
<event>
 7    1  0.5748623E-013  0.5052885E+02  0.7816164E-02  0.1300439E+00
        -11   -1    0    0    0    0  0.00000000000E+00  0.00000000000E+00  0.45593999997E+02  0.45594000000E+02  0.51100000000E-03 0. -1.
         11   -1    0    0    0    0 -0.00000000000E+00 -0.00000000000E+00 -0.45593999997E+02  0.45594000000E+02  0.51100000000E-03 0.  1.
    9900012    2    1    2    0    0  0.15703453770E+02 -0.37485422981E+02  0.11877206055E+01  0.50528854945E+02  0.29999985090E+02 0.  0.
         12    1    1    2    0    0 -0.15703453770E+02  0.37485422981E+02 -0.11877206055E+01  0.40659145055E+02  0.00000000000E+00 0. -1.
         11    1    3    3    0    0  0.19279623525E+02 -0.24831214102E+02  0.83623494598E+01  0.32530323788E+02  0.51100000000E-03 0. -1.
        -11    1    3    3    0    0 -0.68641942112E+01 -0.67752680641E+01 -0.53071129175E+01  0.11008490691E+02  0.51100000000E-03 0.  1.
         12    1    3    3    0    0  0.32880244560E+01 -0.58789408155E+01 -0.18675159369E+01  0.69900404656E+01  0.00000000000E+00 0. -1.
</event>
<event>
 7    1  0.5748623E-013  0.5052885E+02  0.7816164E-02  0.1300439E+00
        -11   -1    0    0    0    0  0.00000000000E+00  0.00000000000E+00  0.45593999997E+02  0.45594000000E+02  0.51100000000E-03 0. -1.
         11   -1    0    0    0    0 -0.00000000000E+00 -0.00000000000E+00 -0.45593999997E+02  0.45594000000E+02  0.51100000000E-03 0.  1.
    9900012    2    1    2    0    0  0.33821447369E+02  0.20682502259E+02 -0.90282940891E+01  0.50528852247E+02  0.29999976890E+02 0.  0.
         12    1    1    2    0    0 -0.33821447369E+02 -0.20682502259E+02  0.90282940891E+01  0.40659147753E+02  0.00000000000E+00 0. -1.
         11    1    3    3    0    0  0.14904559144E+02  0.22040613662E+02  0.12218497923E+01  0.26635079332E+02  0.51100000000E-03 0. -1.
        -11    1    3    3    0    0  0.62594218069E+01  0.44014180195E+01 -0.30886757433E+01  0.82518337385E+01  0.51100000000E-03 0.  1.
         12    1    3    3    0    0  0.12657466419E+02 -0.57595294221E+01 -0.71614681381E+01  0.15641939177E+02  0.00000000000E+00 0. -1.
</event>
<event>
 7    1  0.5748623E-013  0.5052883E+02  0.7816164E-02  0.1300439E+00
        -11   -1    0    0    0    0  0.00000000000E+00  0.00000000000E+00  0.45593999997E+02  0.45594000000E+02  0.51100000000E-03 0. -1.
         11   -1    0    0    0    0 -0.00000000000E+00 -0.00000000000E+00 -0.45593999997E+02  0.45594000000E+02  0.51100000000E-03 0.  1.
    9900012    2    1    2    0    0 -0.22182411419E+02 -0.55749422521E+01 -0.33615895687E+02  0.50528833748E+02  0.29999920660E+02 0.  0.
         12    1    1    2    0    0  0.22182411419E+02  0.55749422521E+01  0.33615895687E+02  0.40659166252E+02  0.00000000000E+00 0. -1.
         11    1    3    3    0    0 -0.11505317499E+02 -0.89627948310E+01 -0.44727315858E+00  0.14591232829E+02  0.51100000000E-03 0. -1.
        -11    1    3    3    0    0 -0.90375084480E+01 -0.10490422786E+01 -0.22265068775E+02  0.24052241818E+02  0.51100000000E-03 0.  1.
         12    1    3    3    0    0 -0.16395854722E+01  0.44368948575E+01 -0.10903553754E+02  0.11885359101E+02  0.00000000000E+00 0. -1.
</event>
<event>
 7    1  0.5748623E-013  0.5052884E+02  0.7816164E-02  0.1300439E+00
        -11   -1    0    0    0    0  0.00000000000E+00  0.00000000000E+00  0.45593999997E+02  0.45594000000E+02  0.51100000000E-03 0. -1.
         11   -1    0    0    0    0 -0.00000000000E+00 -0.00000000000E+00 -0.45593999997E+02  0.45594000000E+02  0.51100000000E-03 0.  1.
    9900012    2    1    2    0    0  0.17433660872E+02 -0.30241839345E+02 -0.20848644495E+02  0.50528839216E+02  0.29999937281E+02 0.  0.
         12    1    1    2    0    0 -0.17433660872E+02  0.30241839345E+02  0.20848644495E+02  0.40659160784E+02  0.00000000000E+00 0. -1.
         11    1    3    3    0    0 -0.14928693479E+01 -0.69813490147E+01 -0.16921203596E+02  0.18365593493E+02  0.51100000000E-03 0. -1.
        -11    1    3    3    0    0  0.19728680133E+02 -0.21135944111E+02 -0.16696667798E+01  0.28960951998E+02  0.51100000000E-03 0.  1.
        -12    1    3    3    0    0 -0.80214991293E+00 -0.21245462197E+01 -0.22577741196E+01  0.32022937245E+01  0.00000000000E+00 0.  1.
</event>
<event>
 7    1  0.5748623E-013  0.5052885E+02  0.7816164E-02  0.1300439E+00
        -11   -1    0    0    0    0  0.00000000000E+00  0.00000000000E+00  0.45593999997E+02  0.45594000000E+02  0.51100000000E-03 0. -1.
         11   -1    0    0    0    0 -0.00000000000E+00 -0.00000000000E+00 -0.45593999997E+02  0.45594000000E+02  0.51100000000E-03 0.  1.
    9900012    2    1    2    0    0 -0.35152334592E+02  0.12245974305E+02 -0.16355902964E+02  0.50528854956E+02  0.29999985124E+02 0.  0.
         12    1    1    2    0    0  0.35152334592E+02 -0.12245974305E+02  0.16355902964E+02  0.40659145044E+02  0.00000000000E+00 0. -1.
         11    1    3    3    0    0 -0.26900786978E+02  0.32043596343E+01 -0.13685649546E+01  0.27125508862E+02  0.51100000000E-03 0. -1.
        -11    1    3    3    0    0 -0.13244524819E+01  0.96066731703E+01 -0.12915649331E+02  0.16151047696E+02  0.51100000000E-03 0.  1.
        -12    1    3    3    0    0 -0.69270951320E+01 -0.56505849936E+00 -0.20716886786E+01  0.72522983982E+01  0.00000000000E+00 0.  1.
</event>
<event>
 7    1  0.5748623E-013  0.5052885E+02  0.7816164E-02  0.1300439E+00
        -11   -1    0    0    0    0  0.00000000000E+00  0.00000000000E+00  0.45593999997E+02  0.45594000000E+02  0.51100000000E-03 0.  1.
         11   -1    0    0    0    0 -0.00000000000E+00 -0.00000000000E+00 -0.45593999997E+02  0.45594000000E+02  0.51100000000E-03 0. -1.
    9900012    2    1    2    0    0 -0.38046374284E+02  0.14181455434E+02  0.21273990462E+01  0.50528854643E+02  0.29999984174E+02 0.  0.
         12    1    1    2    0    0  0.38046374284E+02 -0.14181455434E+02 -0.21273990462E+01  0.40659145357E+02  0.00000000000E+00 0. -1.
         11    1    3    3    0    0 -0.53774229278E+01 -0.22209457632E+01  0.11360367069E+02  0.12763511180E+02  0.51100000000E-03 0. -1.
        -11    1    3    3    0    0 -0.18809698272E+02  0.10629661485E+02 -0.53567822072E+01  0.22259594971E+02  0.51100000000E-03 0.  1.
         12    1    3    3    0    0 -0.13859253084E+02  0.57727397122E+01 -0.38761858159E+01  0.15505748493E+02  0.00000000000E+00 0. -1.
</event>
<event>
 7    1  0.5748623E-013  0.5052886E+02  0.7816164E-02  0.1300439E+00
        -11   -1    0    0    0    0  0.00000000000E+00  0.00000000000E+00  0.45593999997E+02  0.45594000000E+02  0.51100000000E-03 0.  1.
         11   -1    0    0    0    0 -0.00000000000E+00 -0.00000000000E+00 -0.45593999997E+02  0.45594000000E+02  0.51100000000E-03 0. -1.
    9900012    2    1    2    0    0  0.36622781496E+02 -0.11266032778E+02  0.13601988657E+02  0.50528859398E+02  0.29999998626E+02 0.  0.
         12    1    1    2    0    0 -0.36622781496E+02  0.11266032778E+02 -0.13601988657E+02  0.40659140602E+02  0.00000000000E+00 0. -1.
         11    1    3    3    0    0  0.12779847033E+01 -0.31542592813E+01 -0.61629557033E+01  0.70402144696E+01  0.51100000000E-03 0. -1.
        -11    1    3    3    0    0  0.23653030937E+02 -0.76270096818E+01  0.19818122236E+02  0.31786712922E+02  0.51100000000E-03 0.  1.
        -12    1    3    3    0    0  0.11691765856E+02 -0.48476381491E+00 -0.53177875835E-01  0.11701932006E+02  0.00000000000E+00 0.  1.
</event>
<event>
 7    1  0.5748623E-013  0.5052886E+02  0.7816164E-02  0.1300439E+00
        -11   -1    0    0    0    0  0.00000000000E+00  0.00000000000E+00  0.45593999997E+02  0.45594000000E+02  0.51100000000E-03 0.  1.
         11   -1    0    0    0    0 -0.00000000000E+00 -0.00000000000E+00 -0.45593999997E+02  0.45594000000E+02  0.51100000000E-03 0. -1.
    9900012    2    1    2    0    0  0.34087173986E+02  0.15451644924E+02  0.15889520212E+02  0.50528860636E+02  0.30000002390E+02 0.  0.
         12    1    1    2    0    0 -0.34087173986E+02 -0.15451644924E+02 -0.15889520212E+02  0.40659139364E+02  0.00000000000E+00 0. -1.
         11    1    3    3    0    0  0.17030683758E+02 -0.38144022287E+01  0.65475381050E+01  0.18640389189E+02  0.51100000000E-03 0. -1.
        -11    1    3    3    0    0  0.19823500256E+02  0.13184400533E+02  0.73529429976E+01  0.24917169799E+02  0.51100000000E-03 0.  1.
         12    1    3    3    0    0 -0.27670100270E+01  0.60816466194E+01  0.19890391091E+01  0.69713016482E+01  0.00000000000E+00 0. -1.
</event>
<event>
 7    1  0.5748623E-013  0.5052886E+02  0.7816164E-02  0.1300439E+00
        -11   -1    0    0    0    0  0.00000000000E+00  0.00000000000E+00  0.45593999997E+02  0.45594000000E+02  0.51100000000E-03 0. -1.
         11   -1    0    0    0    0 -0.00000000000E+00 -0.00000000000E+00 -0.45593999997E+02  0.45594000000E+02  0.51100000000E-03 0.  1.
    9900012    2    1    2    0    0 -0.23282605480E+02 -0.23511051299E+02 -0.23628714842E+02  0.50528863066E+02  0.30000009775E+02 0.  0.
         12    1    1    2    0    0  0.23282605480E+02  0.23511051299E+02  0.23628714842E+02  0.40659136934E+02  0.00000000000E+00 0. -1.
         11    1    3    3    0    0 -0.32928921686E+01 -0.62680206803E+01  0.34376811360E+01  0.78707606962E+01  0.51100000000E-03 0. -1.
        -11    1    3    3    0    0 -0.12746426370E+02 -0.49288777887E+01 -0.24627118378E+02  0.28164874956E+02  0.51100000000E-03 0.  1.
        -12    1    3    3    0    0 -0.72432869415E+01 -0.12314152830E+02 -0.24392776004E+01  0.14493227413E+02  0.00000000000E+00 0.  1.
</event>
<event>
 7    1  0.5748623E-013  0.5052885E+02  0.7816164E-02  0.1300439E+00
        -11   -1    0    0    0    0  0.00000000000E+00  0.00000000000E+00  0.45593999997E+02  0.45594000000E+02  0.51100000000E-03 0.  1.
         11   -1    0    0    0    0 -0.00000000000E+00 -0.00000000000E+00 -0.45593999997E+02  0.45594000000E+02  0.51100000000E-03 0. -1.
    9900012    2    1    2    0    0  0.33672823879E+00  0.35962825587E+02 -0.18966503902E+02  0.50528849980E+02  0.29999969999E+02 0.  0.
         12    1    1    2    0    0 -0.33672823879E+00 -0.35962825587E+02  0.18966503902E+02  0.40659150020E+02  0.00000000000E+00 0. -1.
         11    1    3    3    0    0 -0.20748916698E+01  0.27843488520E+02 -0.20938192127E+01  0.27999091192E+02  0.51100000000E-03 0. -1.
        -11    1    3    3    0    0  0.61481096158E+01  0.16997611416E+01 -0.36118282233E+01  0.73303303584E+01  0.51100000000E-03 0.  1.
         12    1    3    3    0    0 -0.37364897072E+01  0.64195759255E+01 -0.13260856466E+02  0.15199428430E+02  0.00000000000E+00 0. -1.
</event>
<event>
 7    1  0.5748623E-013  0.5052889E+02  0.7816164E-02  0.1300439E+00
        -11   -1    0    0    0    0  0.00000000000E+00  0.00000000000E+00  0.45593999997E+02  0.45594000000E+02  0.51100000000E-03 0.  1.
         11   -1    0    0    0    0 -0.00000000000E+00 -0.00000000000E+00 -0.45593999997E+02  0.45594000000E+02  0.51100000000E-03 0. -1.
    9900012    2    1    2    0    0  0.30178644459E+02 -0.43517662375E+01  0.26897486983E+02  0.50528889622E+02  0.30000090494E+02 0.  0.
         12    1    1    2    0    0 -0.30178644459E+02  0.43517662375E+01 -0.26897486983E+02  0.40659110378E+02  0.00000000000E+00 0. -1.
         11    1    3    3    0    0 -0.24055226317E+00 -0.40558578054E+01  0.85097546211E+00  0.41511453151E+01  0.51100000000E-03 0. -1.
        -11    1    3    3    0    0  0.23587847189E+02  0.70142165803E+01  0.26750220610E+02  0.36347765711E+02  0.51100000000E-03 0.  1.
        -12    1    3    3    0    0  0.68313495329E+01 -0.73101250124E+01 -0.70370908930E+00  0.10029978595E+02  0.00000000000E+00 0.  1.
</event>
<event>
 7    1  0.5748623E-013  0.5052886E+02  0.7816164E-02  0.1300439E+00
        -11   -1    0    0    0    0  0.00000000000E+00  0.00000000000E+00  0.45593999997E+02  0.45594000000E+02  0.51100000000E-03 0.  1.
         11   -1    0    0    0    0 -0.00000000000E+00 -0.00000000000E+00 -0.45593999997E+02  0.45594000000E+02  0.51100000000E-03 0. -1.
    9900012    2    1    2    0    0 -0.21053001602E+02  0.67679863872E+01  0.34119367965E+02  0.50528858512E+02  0.29999995933E+02 0.  0.
         12    1    1    2    0    0  0.21053001602E+02 -0.67679863872E+01 -0.34119367965E+02  0.40659141488E+02  0.00000000000E+00 0. -1.
         11    1    3    3    0    0  0.94152842625E+00  0.11733886142E+02  0.38557566758E+01  0.12386985895E+02  0.51100000000E-03 0. -1.
        -11    1    3    3    0    0 -0.13981628688E+02 -0.12478676534E+01  0.15286299333E+02  0.20753651776E+02  0.51100000000E-03 0.  1.
         12    1    3    3    0    0 -0.80129013396E+01 -0.37180321012E+01  0.14977311956E+02  0.17388220841E+02  0.00000000000E+00 0. -1.
</event>
<event>
 7    1  0.5748623E-013  0.5052885E+02  0.7816164E-02  0.1300439E+00
        -11   -1    0    0    0    0  0.00000000000E+00  0.00000000000E+00  0.45593999997E+02  0.45594000000E+02  0.51100000000E-03 0.  1.
         11   -1    0    0    0    0 -0.00000000000E+00 -0.00000000000E+00 -0.45593999997E+02  0.45594000000E+02  0.51100000000E-03 0. -1.
    9900012    2    1    2    0    0 -0.23580543277E+02  0.17572285059E+02  0.28077377205E+02  0.50528851778E+02  0.29999975464E+02 0.  0.
         12    1    1    2    0    0  0.23580543277E+02 -0.17572285059E+02 -0.28077377205E+02  0.40659148222E+02  0.00000000000E+00 0. -1.
         11    1    3    3    0    0 -0.62460599923E+01  0.78677409307E+01 -0.23753263419E+01  0.10322634754E+02  0.51100000000E-03 0. -1.
        -11    1    3    3    0    0 -0.14346831274E+02  0.14392290610E+02  0.20880679286E+02  0.29137130338E+02  0.51100000000E-03 0.  1.
        -12    1    3    3    0    0 -0.29876520103E+01 -0.46877464813E+01  0.95720242604E+01  0.11069086685E+02  0.00000000000E+00 0.  1.
</event>
<event>
 7    1  0.5748623E-013  0.5052886E+02  0.7816164E-02  0.1300439E+00
        -11   -1    0    0    0    0  0.00000000000E+00  0.00000000000E+00  0.45593999997E+02  0.45594000000E+02  0.51100000000E-03 0.  1.
         11   -1    0    0    0    0 -0.00000000000E+00 -0.00000000000E+00 -0.45593999997E+02  0.45594000000E+02  0.51100000000E-03 0. -1.
    9900012    2    1    2    0    0  0.16708493775E+01  0.39633536421E+02  0.89194432423E+01  0.50528863086E+02  0.30000009836E+02 0.  0.
         12    1    1    2    0    0 -0.16708493775E+01 -0.39633536421E+02 -0.89194432423E+01  0.40659136914E+02  0.00000000000E+00 0. -1.
         11    1    3    3    0    0  0.10278560707E+02  0.13098882712E+02  0.65725809882E+01  0.17900512831E+02  0.51100000000E-03 0. -1.
        -11    1    3    3    0    0 -0.10705613067E+02  0.26558957647E+02 -0.10286951329E+01  0.28653910665E+02  0.51100000000E-03 0.  1.
        -12    1    3    3    0    0  0.20979017376E+01 -0.24303938887E-01  0.33755573871E+01  0.39744395901E+01  0.00000000000E+00 0.  1.
</event>
<event>
 7    1  0.5748623E-013  0.5052887E+02  0.7816164E-02  0.1300439E+00
        -11   -1    0    0    0    0  0.00000000000E+00  0.00000000000E+00  0.45593999997E+02  0.45594000000E+02  0.51100000000E-03 0. -1.
         11   -1    0    0    0    0 -0.00000000000E+00 -0.00000000000E+00 -0.45593999997E+02  0.45594000000E+02  0.51100000000E-03 0.  1.
    9900012    2    1    2    0    0 -0.10985713813E+02 -0.14972997692E+02 -0.36170273368E+02  0.50528865191E+02  0.30000016235E+02 0.  0.
         12    1    1    2    0    0  0.10985713813E+02  0.14972997692E+02  0.36170273368E+02  0.40659134809E+02  0.00000000000E+00 0. -1.
         11    1    3    3    0    0 -0.16364474192E+01 -0.96197103941E+01  0.13566154136E+01  0.98517609524E+01  0.51100000000E-03 0. -1.
        -11    1    3    3    0    0 -0.48203446817E+01 -0.83627997320E+01 -0.18218154689E+02  0.20617305904E+02  0.51100000000E-03 0.  1.
         12    1    3    3    0    0 -0.45289217123E+01  0.30095124336E+01 -0.19308734093E+02  0.20059798335E+02  0.00000000000E+00 0. -1.
</event>
<event>
 7    1  0.5748623E-013  0.5052885E+02  0.7816164E-02  0.1300439E+00
        -11   -1    0    0    0    0  0.00000000000E+00  0.00000000000E+00  0.45593999997E+02  0.45594000000E+02  0.51100000000E-03 0.  1.
         11   -1    0    0    0    0 -0.00000000000E+00 -0.00000000000E+00 -0.45593999997E+02  0.45594000000E+02  0.51100000000E-03 0. -1.
    9900012    2    1    2    0    0 -0.10666734963E+02 -0.23457491470E+01  0.39164839044E+02  0.50528851076E+02  0.29999973332E+02 0.  0.
         12    1    1    2    0    0  0.10666734963E+02  0.23457491470E+01 -0.39164839044E+02  0.40659148924E+02  0.00000000000E+00 0. -1.
         11    1    3    3    0    0 -0.75158997826E+01 -0.73016091021E+01  0.36196830873E+01  0.11086223475E+02  0.51100000000E-03 0. -1.
        -11    1    3    3    0    0 -0.92747113749E+00 -0.58292355367E+00  0.32893474150E+02  0.32911709838E+02  0.51100000000E-03 0.  1.
        -12    1    3    3    0    0 -0.22233640426E+01  0.55387835088E+01  0.26516818072E+01  0.65309177632E+01  0.00000000000E+00 0.  1.
</event>
<event>
 7    1  0.5748623E-013  0.5052887E+02  0.7816164E-02  0.1300439E+00
        -11   -1    0    0    0    0  0.00000000000E+00  0.00000000000E+00  0.45593999997E+02  0.45594000000E+02  0.51100000000E-03 0.  1.
         11   -1    0    0    0    0 -0.00000000000E+00 -0.00000000000E+00 -0.45593999997E+02  0.45594000000E+02  0.51100000000E-03 0. -1.
    9900012    2    1    2    0    0 -0.30505739356E+01 -0.90794334307E+01  0.39514846839E+02  0.50528865313E+02  0.30000016606E+02 0.  0.
         12    1    1    2    0    0  0.30505739356E+01  0.90794334307E+01 -0.39514846839E+02  0.40659134687E+02  0.00000000000E+00 0. -1.
         11    1    3    3    0    0  0.49758718312E+01  0.46198412824E+01  0.20772393517E+02  0.21853937097E+02  0.51100000000E-03 0. -1.
        -11    1    3    3    0    0 -0.75187519330E+01 -0.13632867503E+02  0.21122643392E+02  0.26240289082E+02  0.51100000000E-03 0.  1.
         12    1    3    3    0    0 -0.50769383383E+00 -0.66407210071E-01 -0.23801900697E+01  0.24346391343E+01  0.00000000000E+00 0. -1.
</event>
<event>
 7    1  0.5748623E-013  0.5052886E+02  0.7816164E-02  0.1300439E+00
        -11   -1    0    0    0    0  0.00000000000E+00  0.00000000000E+00  0.45593999997E+02  0.45594000000E+02  0.51100000000E-03 0.  1.
         11   -1    0    0    0    0 -0.00000000000E+00 -0.00000000000E+00 -0.45593999997E+02  0.45594000000E+02  0.51100000000E-03 0. -1.
    9900012    2    1    2    0    0  0.29296838153E+02  0.21867298782E+02  0.17795573670E+02  0.50528856822E+02  0.29999990795E+02 0.  0.
         12    1    1    2    0    0 -0.29296838153E+02 -0.21867298782E+02 -0.17795573670E+02  0.40659143178E+02  0.00000000000E+00 0. -1.
         11    1    3    3    0    0  0.27368192346E+01  0.11982241917E+02  0.16768463539E+02  0.20790518767E+02  0.51100000000E-03 0. -1.
        -11    1    3    3    0    0  0.80732992688E+01  0.44992282864E+01  0.43223358298E+01  0.10203127145E+02  0.51100000000E-03 0.  1.
         12    1    3    3    0    0  0.18486719649E+02  0.53858285786E+01 -0.32952256989E+01  0.19535210909E+02  0.00000000000E+00 0. -1.
</event>
<event>
 7    1  0.5748623E-013  0.5052886E+02  0.7816164E-02  0.1300439E+00
        -11   -1    0    0    0    0  0.00000000000E+00  0.00000000000E+00  0.45593999997E+02  0.45594000000E+02  0.51100000000E-03 0.  1.
         11   -1    0    0    0    0 -0.00000000000E+00 -0.00000000000E+00 -0.45593999997E+02  0.45594000000E+02  0.51100000000E-03 0. -1.
    9900012    2    1    2    0    0  0.34962341562E+02  0.94918239293E+01  0.18458221574E+02  0.50528855977E+02  0.29999988228E+02 0.  0.
         12    1    1    2    0    0 -0.34962341562E+02 -0.94918239293E+01 -0.18458221574E+02  0.40659144023E+02  0.00000000000E+00 0. -1.
         11    1    3    3    0    0  0.10936554825E+02  0.39546647784E+01  0.14464767353E+01  0.11719210731E+02  0.51100000000E-03 0. -1.
        -11    1    3    3    0    0  0.44724221127E+01 -0.86910881257E+01  0.10409766732E+01  0.98296085913E+01  0.51100000000E-03 0.  1.
        -12    1    3    3    0    0  0.19553364624E+02  0.14228247277E+02  0.15970768166E+02  0.28980036654E+02  0.00000000000E+00 0.  1.
</event>
<event>
 7    1  0.5748623E-013  0.5052886E+02  0.7816164E-02  0.1300439E+00
        -11   -1    0    0    0    0  0.00000000000E+00  0.00000000000E+00  0.45593999997E+02  0.45594000000E+02  0.51100000000E-03 0.  1.
         11   -1    0    0    0    0 -0.00000000000E+00 -0.00000000000E+00 -0.45593999997E+02  0.45594000000E+02  0.51100000000E-03 0. -1.
    9900012    2    1    2    0    0  0.14633439755E+02 -0.26723182360E+02  0.26923958410E+02  0.50528861163E+02  0.30000003992E+02 0.  0.
         12    1    1    2    0    0 -0.14633439755E+02  0.26723182360E+02 -0.26923958410E+02  0.40659138837E+02  0.00000000000E+00 0. -1.
         11    1    3    3    0    0 -0.56989960885E+01 -0.11710292458E+02  0.87002317534E+01  0.15662169029E+02  0.51100000000E-03 0. -1.
        -11    1    3    3    0    0  0.14082960823E+02 -0.11484974395E+02  0.20445433708E+02  0.27354162063E+02  0.51100000000E-03 0.  1.
         12    1    3    3    0    0  0.62494750200E+01 -0.35279155067E+01 -0.22217070514E+01  0.75125300712E+01  0.00000000000E+00 0. -1.
</event>
<event>
 7    1  0.5748623E-013  0.5052885E+02  0.7816164E-02  0.1300439E+00
        -11   -1    0    0    0    0  0.00000000000E+00  0.00000000000E+00  0.45593999997E+02  0.45594000000E+02  0.51100000000E-03 0.  1.
         11   -1    0    0    0    0 -0.00000000000E+00 -0.00000000000E+00 -0.45593999997E+02  0.45594000000E+02  0.51100000000E-03 0. -1.
    9900012    2    1    2    0    0  0.26977863150E+02  0.14593135263E+02  0.26690852046E+02  0.50528852445E+02  0.29999977492E+02 0.  0.
         12    1    1    2    0    0 -0.26977863150E+02 -0.14593135263E+02 -0.26690852046E+02  0.40659147555E+02  0.00000000000E+00 0. -1.
         11    1    3    3    0    0  0.28613785871E+02  0.35934378597E+01  0.22688046224E+02  0.36693445999E+02  0.51100000000E-03 0. -1.
        -11    1    3    3    0    0 -0.30718658617E+01  0.48647661191E+01  0.47890413502E+01  0.74858016659E+01  0.51100000000E-03 0.  1.
        -12    1    3    3    0    0  0.14359431411E+01  0.61349312839E+01 -0.78623552838E+00  0.63496047805E+01  0.00000000000E+00 0.  1.
</event>
<event>
 7    1  0.5748623E-013  0.5052886E+02  0.7816164E-02  0.1300439E+00
        -11   -1    0    0    0    0  0.00000000000E+00  0.00000000000E+00  0.45593999997E+02  0.45594000000E+02  0.51100000000E-03 0. -1.
         11   -1    0    0    0    0 -0.00000000000E+00 -0.00000000000E+00 -0.45593999997E+02  0.45594000000E+02  0.51100000000E-03 0.  1.
    9900012    2    1    2    0    0 -0.18047378439E+02  0.29696393133E+02 -0.21108813140E+02  0.50528860489E+02  0.30000001942E+02 0.  0.
         12    1    1    2    0    0  0.18047378439E+02 -0.29696393133E+02  0.21108813140E+02  0.40659139511E+02  0.00000000000E+00 0. -1.
         11    1    3    3    0    0 -0.44058712761E+00  0.15889877738E+02 -0.23753410486E+01  0.16072478866E+02  0.51100000000E-03 0. -1.
        -11    1    3    3    0    0 -0.10383762814E+02  0.67662323668E+01 -0.20750686125E+02  0.24170134579E+02  0.51100000000E-03 0.  1.
        -12    1    3    3    0    0 -0.72230284978E+01  0.70402830278E+01  0.20172140340E+01  0.10286247044E+02  0.00000000000E+00 0.  1.
</event>
<event>
 7    1  0.5748623E-013  0.5052885E+02  0.7816164E-02  0.1300439E+00
        -11   -1    0    0    0    0  0.00000000000E+00  0.00000000000E+00  0.45593999997E+02  0.45594000000E+02  0.51100000000E-03 0. -1.
         11   -1    0    0    0    0 -0.00000000000E+00 -0.00000000000E+00 -0.45593999997E+02  0.45594000000E+02  0.51100000000E-03 0.  1.
    9900012    2    1    2    0    0  0.36585776350E+02  0.16447376594E+02  0.66431433502E+01  0.50528848736E+02  0.29999966217E+02 0.  0.
         12    1    1    2    0    0 -0.36585776350E+02 -0.16447376594E+02 -0.66431433502E+01  0.40659151264E+02  0.00000000000E+00 0. -1.
         11    1    3    3    0    0  0.47337197083E+01 -0.95815927722E+00  0.10527807247E+02  0.11582784517E+02  0.51100000000E-03 0. -1.
        -11    1    3    3    0    0  0.24327966656E+02  0.59564278316E+01 -0.28148028429E+01  0.25204208169E+02  0.51100000000E-03 0.  1.
        -12    1    3    3    0    0  0.75240899854E+01  0.11449108040E+02 -0.10698610536E+01  0.13741856050E+02  0.00000000000E+00 0.  1.
</event>
<event>
 7    1  0.5748623E-013  0.5052886E+02  0.7816164E-02  0.1300439E+00
        -11   -1    0    0    0    0  0.00000000000E+00  0.00000000000E+00  0.45593999997E+02  0.45594000000E+02  0.51100000000E-03 0. -1.
         11   -1    0    0    0    0 -0.00000000000E+00 -0.00000000000E+00 -0.45593999997E+02  0.45594000000E+02  0.51100000000E-03 0.  1.
    9900012    2    1    2    0    0 -0.25268619515E+02  0.85941806543E+01 -0.30672502425E+02  0.50528862302E+02  0.30000007454E+02 0.  0.
         12    1    1    2    0    0  0.25268619515E+02 -0.85941806543E+01  0.30672502425E+02  0.40659137698E+02  0.00000000000E+00 0. -1.
         11    1    3    3    0    0 -0.13682588513E+02 -0.31748326649E+00 -0.64053058670E+01  0.15110988305E+02  0.51100000000E-03 0. -1.
        -11    1    3    3    0    0 -0.83760403137E+01  0.69325562857E+01 -0.28045679770E+02  0.30079536931E+02  0.51100000000E-03 0.  1.
        -12    1    3    3    0    0 -0.32099906880E+01  0.19791076351E+01  0.37784832118E+01  0.53383370660E+01  0.00000000000E+00 0.  1.
</event>
<event>
 7    1  0.5748623E-013  0.5052888E+02  0.7816164E-02  0.1300439E+00
        -11   -1    0    0    0    0  0.00000000000E+00  0.00000000000E+00  0.45593999997E+02  0.45594000000E+02  0.51100000000E-03 0.  1.
         11   -1    0    0    0    0 -0.00000000000E+00 -0.00000000000E+00 -0.45593999997E+02  0.45594000000E+02  0.51100000000E-03 0. -1.
    9900012    2    1    2    0    0 -0.34815491505E+02  0.54565638340E+01  0.20279821584E+02  0.50528884157E+02  0.30000073885E+02 0.  0.
         12    1    1    2    0    0  0.34815491505E+02 -0.54565638340E+01 -0.20279821584E+02  0.40659115843E+02  0.00000000000E+00 0. -1.
         11    1    3    3    0    0 -0.49639924396E+01  0.37359901272E+01 -0.71901579419E+00  0.62542647165E+01  0.51100000000E-03 0. -1.
        -11    1    3    3    0    0 -0.33705658700E+02 -0.95039943682E+00  0.20721530059E+02  0.39577221931E+02  0.51100000000E-03 0.  1.
        -12    1    3    3    0    0  0.38541596342E+01  0.26709731436E+01  0.27730731860E+00  0.46973975102E+01  0.00000000000E+00 0.  1.
</event>
<event>
 7    1  0.5748623E-013  0.5052885E+02  0.7816164E-02  0.1300439E+00
        -11   -1    0    0    0    0  0.00000000000E+00  0.00000000000E+00  0.45593999997E+02  0.45594000000E+02  0.51100000000E-03 0.  1.
         11   -1    0    0    0    0 -0.00000000000E+00 -0.00000000000E+00 -0.45593999997E+02  0.45594000000E+02  0.51100000000E-03 0. -1.
    9900012    2    1    2    0    0  0.17670478164E+02 -0.15606238001E+02  0.33126517559E+02  0.50528848156E+02  0.29999964456E+02 0.  0.
         12    1    1    2    0    0 -0.17670478164E+02  0.15606238001E+02 -0.33126517559E+02  0.40659151844E+02  0.00000000000E+00 0. -1.
         11    1    3    3    0    0 -0.73461732772E+01  0.46551979785E+00  0.60951716484E+01  0.95568869505E+01  0.51100000000E-03 0. -1.
        -11    1    3    3    0    0  0.14566672290E+02 -0.13427314070E+02  0.15230315445E+02  0.24988861790E+02  0.51100000000E-03 0.  1.
         12    1    3    3    0    0  0.10449979151E+02 -0.26444437289E+01  0.11801030465E+02  0.15983099416E+02  0.00000000000E+00 0. -1.
</event>
<event>
 7    1  0.5748623E-013  0.5052887E+02  0.7816164E-02  0.1300439E+00
        -11   -1    0    0    0    0  0.00000000000E+00  0.00000000000E+00  0.45593999997E+02  0.45594000000E+02  0.51100000000E-03 0.  1.
         11   -1    0    0    0    0 -0.00000000000E+00 -0.00000000000E+00 -0.45593999997E+02  0.45594000000E+02  0.51100000000E-03 0. -1.
    9900012    2    1    2    0    0 -0.27390346317E+02 -0.27521609845E+02  0.12062123276E+02  0.50528869442E+02  0.30000029155E+02 0.  0.
         12    1    1    2    0    0  0.27390346317E+02  0.27521609845E+02 -0.12062123276E+02  0.40659130558E+02  0.00000000000E+00 0. -1.
         11    1    3    3    0    0 -0.34388764963E+00 -0.11230437369E+02  0.16177588221E+01  0.11351569323E+02  0.51100000000E-03 0. -1.
        -11    1    3    3    0    0 -0.30109877589E+02 -0.16940455019E+02  0.88523432462E+01  0.35664376147E+02  0.51100000000E-03 0.  1.
        -12    1    3    3    0    0  0.30634189219E+01  0.64928254348E+00  0.15920212073E+01  0.35129239725E+01  0.00000000000E+00 0.  1.
</event>
<event>
 7    1  0.5748623E-013  0.5052886E+02  0.7816164E-02  0.1300439E+00
        -11   -1    0    0    0    0  0.00000000000E+00  0.00000000000E+00  0.45593999997E+02  0.45594000000E+02  0.51100000000E-03 0.  1.
         11   -1    0    0    0    0 -0.00000000000E+00 -0.00000000000E+00 -0.45593999997E+02  0.45594000000E+02  0.51100000000E-03 0. -1.
    9900012    2    1    2    0    0  0.30888215272E+02 -0.22805755459E+02  0.13378405937E+02  0.50528855024E+02  0.29999985331E+02 0.  0.
         12    1    1    2    0    0 -0.30888215272E+02  0.22805755459E+02 -0.13378405937E+02  0.40659144976E+02  0.00000000000E+00 0. -1.
         11    1    3    3    0    0  0.20472904706E+02 -0.22062569030E+02  0.58245728565E+01  0.30656523425E+02  0.51100000000E-03 0.  1.
        -11    1    3    3    0    0  0.14373696770E+02 -0.18193289741E+00  0.61479083677E+01  0.15634354351E+02  0.51100000000E-03 0. -1.
        -12    1    3    3    0    0 -0.39583862031E+01 -0.56125353203E+00  0.14059247124E+01  0.42379772483E+01  0.00000000000E+00 0.  1.
</event>
<event>
 7    1  0.5748623E-013  0.5052886E+02  0.7816164E-02  0.1300439E+00
        -11   -1    0    0    0    0  0.00000000000E+00  0.00000000000E+00  0.45593999997E+02  0.45594000000E+02  0.51100000000E-03 0.  1.
         11   -1    0    0    0    0 -0.00000000000E+00 -0.00000000000E+00 -0.45593999997E+02  0.45594000000E+02  0.51100000000E-03 0. -1.
    9900012    2    1    2    0    0 -0.29650419631E+02  0.19142569354E+02  0.20188612523E+02  0.50528863002E+02  0.30000009582E+02 0.  0.
         12    1    1    2    0    0  0.29650419631E+02 -0.19142569354E+02 -0.20188612523E+02  0.40659136998E+02  0.00000000000E+00 0. -1.
         11    1    3    3    0    0 -0.11002273085E+02  0.19049224018E+02  0.12793358506E+02  0.25447848059E+02  0.51100000000E-03 0. -1.
        -11    1    3    3    0    0 -0.37468990935E+01 -0.49901867051E+01  0.69357061134E+01  0.93298036271E+01  0.51100000000E-03 0.  1.
        -12    1    3    3    0    0 -0.14901247452E+02  0.50835320414E+01  0.45954790385E+00  0.15751211316E+02  0.00000000000E+00 0.  1.
</event>
<event>
 7    1  0.5748623E-013  0.5052888E+02  0.7816164E-02  0.1300439E+00
        -11   -1    0    0    0    0  0.00000000000E+00  0.00000000000E+00  0.45593999997E+02  0.45594000000E+02  0.51100000000E-03 0.  1.
         11   -1    0    0    0    0 -0.00000000000E+00 -0.00000000000E+00 -0.45593999997E+02  0.45594000000E+02  0.51100000000E-03 0. -1.
    9900012    2    1    2    0    0  0.11876228955E+02 -0.34779771491E+02  0.17392151133E+02  0.50528877528E+02  0.30000053735E+02 0.  0.
         12    1    1    2    0    0 -0.11876228955E+02  0.34779771491E+02 -0.17392151133E+02  0.40659122472E+02  0.00000000000E+00 0. -1.
         11    1    3    3    0    0  0.83220382713E+01  0.21304377771E+01  0.37936839120E+01  0.93907999657E+01  0.51100000000E-03 0. -1.
        -11    1    3    3    0    0  0.47566434280E+01 -0.22987254094E+02  0.13667326774E+02  0.27163124432E+02  0.51100000000E-03 0.  1.
         12    1    3    3    0    0 -0.12024527447E+01 -0.13922955174E+02 -0.68859552843E-01  0.13974953131E+02  0.00000000000E+00 0. -1.
</event>
<event>
 7    1  0.5748623E-013  0.5052887E+02  0.7816164E-02  0.1300439E+00
        -11   -1    0    0    0    0  0.00000000000E+00  0.00000000000E+00  0.45593999997E+02  0.45594000000E+02  0.51100000000E-03 0. -1.
         11   -1    0    0    0    0 -0.00000000000E+00 -0.00000000000E+00 -0.45593999997E+02  0.45594000000E+02  0.51100000000E-03 0.  1.
    9900012    2    1    2    0    0  0.35818968120E+00  0.40144629812E+02  0.64378286126E+01  0.50528865235E+02  0.30000016369E+02 0.  0.
         12    1    1    2    0    0 -0.35818968120E+00 -0.40144629812E+02 -0.64378286126E+01  0.40659134765E+02  0.00000000000E+00 0. -1.
         11    1    3    3    0    0  0.12017261121E+02  0.26578886722E+02  0.45342408811E+01  0.29519673522E+02  0.51100000000E-03 0.  1.
        -11    1    3    3    0    0 -0.11512848261E+02  0.66713994982E+01 -0.13685936840E+01  0.13376333402E+02  0.51100000000E-03 0. -1.
         12    1    3    3    0    0 -0.14622317803E+00  0.68943435914E+01  0.32721814155E+01  0.76328583106E+01  0.00000000000E+00 0. -1.
</event>
<event>
 7    1  0.5748623E-013  0.5052886E+02  0.7816164E-02  0.1300439E+00
        -11   -1    0    0    0    0  0.00000000000E+00  0.00000000000E+00  0.45593999997E+02  0.45594000000E+02  0.51100000000E-03 0.  1.
         11   -1    0    0    0    0 -0.00000000000E+00 -0.00000000000E+00 -0.45593999997E+02  0.45594000000E+02  0.51100000000E-03 0. -1.
    9900012    2    1    2    0    0 -0.82945497245E+01 -0.69220798285E+01  0.39197590939E+02  0.50528857366E+02  0.29999992451E+02 0.  0.
         12    1    1    2    0    0  0.82945497245E+01  0.69220798285E+01 -0.39197590939E+02  0.40659142634E+02  0.00000000000E+00 0. -1.
         11    1    3    3    0    0 -0.27665136664E+01  0.21992372889E+01 -0.28723219501E+01  0.45541712929E+01  0.51100000000E-03 0. -1.
        -11    1    3    3    0    0 -0.52122050832E+01 -0.85172748281E+01  0.43371103054E+02  0.44505770780E+02  0.51100000000E-03 0.  1.
        -12    1    3    3    0    0 -0.31583097491E+00 -0.60404228934E+00 -0.13011901653E+01  0.14689152931E+01  0.00000000000E+00 0.  1.
</event>
<event>
 7    1  0.5748623E-013  0.5052886E+02  0.7816164E-02  0.1300439E+00
        -11   -1    0    0    0    0  0.00000000000E+00  0.00000000000E+00  0.45593999997E+02  0.45594000000E+02  0.51100000000E-03 0.  1.
         11   -1    0    0    0    0 -0.00000000000E+00 -0.00000000000E+00 -0.45593999997E+02  0.45594000000E+02  0.51100000000E-03 0. -1.
    9900012    2    1    2    0    0  0.20144141070E+02  0.26700653102E+02  0.23118268853E+02  0.50528860188E+02  0.30000001026E+02 0.  0.
         12    1    1    2    0    0 -0.20144141070E+02 -0.26700653102E+02 -0.23118268853E+02  0.40659139812E+02  0.00000000000E+00 0. -1.
         11    1    3    3    0    0 -0.14248423298E+01 -0.17459376807E+01  0.12477663477E+01  0.25759260799E+01  0.51100000000E-03 0. -1.
        -11    1    3    3    0    0  0.10562186707E+02  0.27223065901E+02  0.81415227547E+01  0.30314014879E+02  0.51100000000E-03 0.  1.
        -12    1    3    3    0    0  0.11006796693E+02  0.12235248825E+01  0.13728979750E+02  0.17638919229E+02  0.00000000000E+00 0.  1.
</event>
<event>
 7    1  0.5748623E-013  0.5052887E+02  0.7816164E-02  0.1300439E+00
        -11   -1    0    0    0    0  0.00000000000E+00  0.00000000000E+00  0.45593999997E+02  0.45594000000E+02  0.51100000000E-03 0. -1.
         11   -1    0    0    0    0 -0.00000000000E+00 -0.00000000000E+00 -0.45593999997E+02  0.45594000000E+02  0.51100000000E-03 0.  1.
    9900012    2    1    2    0    0  0.10782669069E+02 -0.30402558812E+02 -0.24750424412E+02  0.50528867654E+02  0.30000023720E+02 0.  0.
         12    1    1    2    0    0 -0.10782669069E+02  0.30402558812E+02  0.24750424412E+02  0.40659132346E+02  0.00000000000E+00 0. -1.
         11    1    3    3    0    0  0.12104845557E+02 -0.47481694574E+01  0.95894601179E+00  0.13038097133E+02  0.51100000000E-03 0. -1.
        -11    1    3    3    0    0 -0.46883961540E+01 -0.17687571152E+02 -0.14584891223E+02  0.23399792392E+02  0.51100000000E-03 0.  1.
         12    1    3    3    0    0  0.33662196664E+01 -0.79668182031E+01 -0.11124479201E+02  0.14090978128E+02  0.00000000000E+00 0. -1.
</event>
<event>
 7    1  0.5748623E-013  0.5052887E+02  0.7816164E-02  0.1300439E+00
        -11   -1    0    0    0    0  0.00000000000E+00  0.00000000000E+00  0.45593999997E+02  0.45594000000E+02  0.51100000000E-03 0. -1.
         11   -1    0    0    0    0 -0.00000000000E+00 -0.00000000000E+00 -0.45593999997E+02  0.45594000000E+02  0.51100000000E-03 0.  1.
    9900012    2    1    2    0    0 -0.30275114267E+02 -0.23852824973E+02 -0.12947019256E+02  0.50528866823E+02  0.30000021197E+02 0.  0.
         12    1    1    2    0    0  0.30275114267E+02  0.23852824973E+02  0.12947019256E+02  0.40659133177E+02  0.00000000000E+00 0. -1.
         11    1    3    3    0    0 -0.28545918977E+02 -0.25274702105E+02 -0.40263009079E+01  0.38339159563E+02  0.51100000000E-03 0. -1.
        -11    1    3    3    0    0  0.20567434839E+01  0.93225754337E+00 -0.79307378442E+01  0.82459627030E+01  0.51100000000E-03 0.  1.
        -12    1    3    3    0    0 -0.37859387731E+01  0.48961958833E+00 -0.98998050365E+00  0.39437445572E+01  0.00000000000E+00 0.  1.
</event>
<event>
 7    1  0.5748623E-013  0.5052886E+02  0.7816164E-02  0.1300439E+00
        -11   -1    0    0    0    0  0.00000000000E+00  0.00000000000E+00  0.45593999997E+02  0.45594000000E+02  0.51100000000E-03 0.  1.
         11   -1    0    0    0    0 -0.00000000000E+00 -0.00000000000E+00 -0.45593999997E+02  0.45594000000E+02  0.51100000000E-03 0. -1.
    9900012    2    1    2    0    0  0.37296550896E+01 -0.27971884203E+02  0.29271639906E+02  0.50528861596E+02  0.30000005308E+02 0.  0.
         12    1    1    2    0    0 -0.37296550896E+01  0.27971884203E+02 -0.29271639906E+02  0.40659138404E+02  0.00000000000E+00 0. -1.
         11    1    3    3    0    0 -0.98476733395E+01 -0.11015663988E+02  0.17591897671E+02  0.22973819605E+02  0.51100000000E-03 0. -1.
        -11    1    3    3    0    0  0.92178747774E+01 -0.27557526087E+01  0.72727841853E+01  0.12060546336E+02  0.51100000000E-03 0.  1.
        -12    1    3    3    0    0  0.43594536517E+01 -0.14200467606E+02  0.44069580489E+01  0.15494495655E+02  0.00000000000E+00 0.  1.
</event>
<event>
 7    1  0.5748623E-013  0.5052886E+02  0.7816164E-02  0.1300439E+00
        -11   -1    0    0    0    0  0.00000000000E+00  0.00000000000E+00  0.45593999997E+02  0.45594000000E+02  0.51100000000E-03 0.  1.
         11   -1    0    0    0    0 -0.00000000000E+00 -0.00000000000E+00 -0.45593999997E+02  0.45594000000E+02  0.51100000000E-03 0. -1.
    9900012    2    1    2    0    0  0.29541279110E+02 -0.27593530329E+02  0.43675715318E+01  0.50528858733E+02  0.29999996606E+02 0.  0.
         12    1    1    2    0    0 -0.29541279110E+02  0.27593530329E+02 -0.43675715318E+01  0.40659141267E+02  0.00000000000E+00 0. -1.
         11    1    3    3    0    0 -0.34207291476E+01 -0.84999554563E+01  0.56399407371E+01  0.10759161791E+02  0.51100000000E-03 0. -1.
        -11    1    3    3    0    0  0.13325776431E+02 -0.34000216480E+01  0.34828836076E+01  0.14186858115E+02  0.51100000000E-03 0.  1.
         12    1    3    3    0    0  0.19636231826E+02 -0.15693553225E+02 -0.47552528129E+01  0.25582838828E+02  0.00000000000E+00 0. -1.
</event>
<event>
 7    1  0.5748623E-013  0.5052887E+02  0.7816164E-02  0.1300439E+00
        -11   -1    0    0    0    0  0.00000000000E+00  0.00000000000E+00  0.45593999997E+02  0.45594000000E+02  0.51100000000E-03 0. -1.
         11   -1    0    0    0    0 -0.00000000000E+00 -0.00000000000E+00 -0.45593999997E+02  0.45594000000E+02  0.51100000000E-03 0.  1.
    9900012    2    1    2    0    0 -0.40051141033E+02 -0.20055823872E+01 -0.67118343438E+01  0.50528868442E+02  0.30000026118E+02 0.  0.
         12    1    1    2    0    0  0.40051141033E+02  0.20055823872E+01  0.67118343438E+01  0.40659131558E+02  0.00000000000E+00 0. -1.
         11    1    3    3    0    0 -0.12266179092E+01 -0.55760409471E+01 -0.13392156101E+01  0.58643262912E+01  0.51100000000E-03 0. -1.
        -11    1    3    3    0    0 -0.39792814266E+02 -0.68901929760E+00 -0.60104405695E+01  0.40250070943E+02  0.51100000000E-03 0.  1.
        -12    1    3    3    0    0  0.96829114236E+00  0.42594778575E+01  0.63782183580E+00  0.44144712083E+01  0.00000000000E+00 0.  1.
</event>
<event>
 7    1  0.5748623E-013  0.5052882E+02  0.7816164E-02  0.1300439E+00
        -11   -1    0    0    0    0  0.00000000000E+00  0.00000000000E+00  0.45593999997E+02  0.45594000000E+02  0.51100000000E-03 0. -1.
         11   -1    0    0    0    0 -0.00000000000E+00 -0.00000000000E+00 -0.45593999997E+02  0.45594000000E+02  0.51100000000E-03 0.  1.
    9900012    2    1    2    0    0 -0.20239085167E+02  0.14090467297E+02 -0.32326573059E+02  0.50528816993E+02  0.29999869733E+02 0.  0.
         12    1    1    2    0    0  0.20239085167E+02 -0.14090467297E+02  0.32326573059E+02  0.40659183007E+02  0.00000000000E+00 0. -1.
         11    1    3    3    0    0 -0.52615610823E+01 -0.11646485088E+01  0.35655712849E+01  0.64617126229E+01  0.51100000000E-03 0. -1.
        -11    1    3    3    0    0 -0.46125723915E+01  0.85969710899E+01 -0.27451585871E+02  0.29133714200E+02  0.51100000000E-03 0.  1.
        -12    1    3    3    0    0 -0.10364951693E+02  0.66581447160E+01 -0.84405584728E+01  0.14933390171E+02  0.00000000000E+00 0.  1.
</event>
<event>
 7    1  0.5748623E-013  0.5052886E+02  0.7816164E-02  0.1300439E+00
        -11   -1    0    0    0    0  0.00000000000E+00  0.00000000000E+00  0.45593999997E+02  0.45594000000E+02  0.51100000000E-03 0.  1.
         11   -1    0    0    0    0 -0.00000000000E+00 -0.00000000000E+00 -0.45593999997E+02  0.45594000000E+02  0.51100000000E-03 0. -1.
    9900012    2    1    2    0    0  0.35606145102E+02  0.18719015948E+02 -0.59132649847E+01  0.50528857979E+02  0.29999994314E+02 0.  0.
         12    1    1    2    0    0 -0.35606145102E+02 -0.18719015948E+02  0.59132649847E+01  0.40659142021E+02  0.00000000000E+00 0. -1.
         11    1    3    3    0    0  0.45783957441E+01  0.80331519423E+01 -0.73493982992E+01  0.11811303626E+02  0.51100000000E-03 0. -1.
        -11    1    3    3    0    0  0.84840647750E+01 -0.55524375535E+01  0.38135812152E+01  0.10832927575E+02  0.51100000000E-03 0.  1.
        -12    1    3    3    0    0  0.22543684583E+02  0.16238301559E+02 -0.23774479007E+01  0.27884626779E+02  0.00000000000E+00 0.  1.
</event>
<event>
 7    1  0.5748623E-013  0.5052886E+02  0.7816164E-02  0.1300439E+00
        -11   -1    0    0    0    0  0.00000000000E+00  0.00000000000E+00  0.45593999997E+02  0.45594000000E+02  0.51100000000E-03 0.  1.
         11   -1    0    0    0    0 -0.00000000000E+00 -0.00000000000E+00 -0.45593999997E+02  0.45594000000E+02  0.51100000000E-03 0. -1.
    9900012    2    1    2    0    0 -0.24070073916E+02 -0.32411295894E+02  0.48274966148E+01  0.50528864699E+02  0.30000014740E+02 0.  0.
         12    1    1    2    0    0  0.24070073916E+02  0.32411295894E+02 -0.48274966148E+01  0.40659135301E+02  0.00000000000E+00 0. -1.
         11    1    3    3    0    0  0.53522772015E+01 -0.36735148845E+01  0.71473239442E+00  0.65308824446E+01  0.51100000000E-03 0. -1.
        -11    1    3    3    0    0 -0.26778470999E+02 -0.26387894369E+02 -0.12010734205E+01  0.37614492631E+02  0.51100000000E-03 0.  1.
         12    1    3    3    0    0 -0.26438801190E+01 -0.23498866397E+01  0.53138376408E+01  0.63834896237E+01  0.00000000000E+00 0. -1.
</event>
<event>
 7    1  0.5748623E-013  0.5052886E+02  0.7816164E-02  0.1300439E+00
        -11   -1    0    0    0    0  0.00000000000E+00  0.00000000000E+00  0.45593999997E+02  0.45594000000E+02  0.51100000000E-03 0. -1.
         11   -1    0    0    0    0 -0.00000000000E+00 -0.00000000000E+00 -0.45593999997E+02  0.45594000000E+02  0.51100000000E-03 0.  1.
    9900012    2    1    2    0    0 -0.14596718217E+02 -0.30630551960E+02 -0.22402465453E+02  0.50528863826E+02  0.30000012085E+02 0.  0.
         12    1    1    2    0    0  0.14596718217E+02  0.30630551960E+02  0.22402465453E+02  0.40659136174E+02  0.00000000000E+00 0. -1.
         11    1    3    3    0    0 -0.10878172092E+02 -0.47025843217E+01 -0.10601064871E+02  0.15900676213E+02  0.51100000000E-03 0. -1.
        -11    1    3    3    0    0 -0.49594228950E+01 -0.18935812256E+02  0.14141330914E+01  0.19625509775E+02  0.51100000000E-03 0.  1.
        -12    1    3    3    0    0  0.12408767698E+01 -0.69921553817E+01 -0.13215533674E+02  0.15002677838E+02  0.00000000000E+00 0.  1.
</event>
<event>
 7    1  0.5748623E-013  0.5052886E+02  0.7816164E-02  0.1300439E+00
        -11   -1    0    0    0    0  0.00000000000E+00  0.00000000000E+00  0.45593999997E+02  0.45594000000E+02  0.51100000000E-03 0.  1.
         11   -1    0    0    0    0 -0.00000000000E+00 -0.00000000000E+00 -0.45593999997E+02  0.45594000000E+02  0.51100000000E-03 0. -1.
    9900012    2    1    2    0    0 -0.31848249910E+02  0.10467567464E+02  0.23006184818E+02  0.50528861656E+02  0.30000005491E+02 0.  0.
         12    1    1    2    0    0  0.31848249910E+02 -0.10467567464E+02 -0.23006184818E+02  0.40659138344E+02  0.00000000000E+00 0. -1.
         11    1    3    3    0    0 -0.24198621402E+02 -0.63214529685E+01  0.10206174807E+02  0.27012960775E+02  0.51100000000E-03 0.  1.
        -11    1    3    3    0    0 -0.63521727302E+00  0.95766674210E+01  0.72293348942E+01  0.12015795569E+02  0.51100000000E-03 0. -1.
        -12    1    3    3    0    0 -0.70144112353E+01  0.72123530115E+01  0.55706751166E+01  0.11500105312E+02  0.00000000000E+00 0.  1.
</event>
<event>
 7    1  0.5748623E-013  0.5052887E+02  0.7816164E-02  0.1300439E+00
        -11   -1    0    0    0    0  0.00000000000E+00  0.00000000000E+00  0.45593999997E+02  0.45594000000E+02  0.51100000000E-03 0.  1.
         11   -1    0    0    0    0 -0.00000000000E+00 -0.00000000000E+00 -0.45593999997E+02  0.45594000000E+02  0.51100000000E-03 0. -1.
    9900012    2    1    2    0    0  0.17768555922E+02  0.22759803837E+02  0.28625762001E+02  0.50528874328E+02  0.30000044009E+02 0.  0.
         12    1    1    2    0    0 -0.17768555922E+02 -0.22759803837E+02 -0.28625762001E+02  0.40659125672E+02  0.00000000000E+00 0. -1.
         11    1    3    3    0    0 -0.53497017518E+01  0.78628877624E+01  0.10568715512E+02  0.14217667201E+02  0.51100000000E-03 0. -1.
        -11    1    3    3    0    0  0.13312078468E+02  0.15407688442E+02  0.70194388279E+01  0.21537892608E+02  0.51100000000E-03 0.  1.
        -12    1    3    3    0    0  0.98061792052E+01 -0.51077236732E+00  0.11037607661E+02  0.14773314519E+02  0.00000000000E+00 0.  1.
</event>
<event>
 7    1  0.5748623E-013  0.5052886E+02  0.7816164E-02  0.1300439E+00
        -11   -1    0    0    0    0  0.00000000000E+00  0.00000000000E+00  0.45593999997E+02  0.45594000000E+02  0.51100000000E-03 0.  1.
         11   -1    0    0    0    0 -0.00000000000E+00 -0.00000000000E+00 -0.45593999997E+02  0.45594000000E+02  0.51100000000E-03 0. -1.
    9900012    2    1    2    0    0  0.65952047519E+01 -0.33894150783E+01  0.39977253278E+02  0.50528860315E+02  0.30000001412E+02 0.  0.
         12    1    1    2    0    0 -0.65952047519E+01  0.33894150783E+01 -0.39977253278E+02  0.40659139685E+02  0.00000000000E+00 0. -1.
         11    1    3    3    0    0  0.28405592543E+01 -0.13082787526E+02  0.17689269698E+02  0.22184191872E+02  0.51100000000E-03 0. -1.
        -11    1    3    3    0    0  0.45233529988E-01  0.42531984534E+01  0.21258939513E+02  0.21680273352E+02  0.51100000000E-03 0.  1.
         12    1    3    3    0    0  0.37094119676E+01  0.54401739939E+01  0.10290440676E+01  0.66643950905E+01  0.00000000000E+00 0. -1.
</event>
<event>
 7    1  0.5748623E-013  0.5052886E+02  0.7816164E-02  0.1300439E+00
        -11   -1    0    0    0    0  0.00000000000E+00  0.00000000000E+00  0.45593999997E+02  0.45594000000E+02  0.51100000000E-03 0.  1.
         11   -1    0    0    0    0 -0.00000000000E+00 -0.00000000000E+00 -0.45593999997E+02  0.45594000000E+02  0.51100000000E-03 0. -1.
    9900012    2    1    2    0    0  0.71844201249E+01  0.13771630116E+02  0.37575153141E+02  0.50528858074E+02  0.29999994602E+02 0.  0.
         12    1    1    2    0    0 -0.71844201249E+01 -0.13771630116E+02 -0.37575153141E+02  0.40659141926E+02  0.00000000000E+00 0. -1.
         11    1    3    3    0    0  0.23118585584E+01  0.22414695255E+02  0.28888039782E+02  0.36637168232E+02  0.51100000000E-03 0. -1.
        -11    1    3    3    0    0  0.21538502076E+01 -0.75300555506E+01  0.69979971878E+01  0.10502988728E+02  0.51100000000E-03 0.  1.
         12    1    3    3    0    0  0.27187113590E+01 -0.11130095891E+01  0.16891161716E+01  0.33887011140E+01  0.00000000000E+00 0. -1.
</event>
<event>
 7    1  0.5748623E-013  0.5052884E+02  0.7816164E-02  0.1300439E+00
        -11   -1    0    0    0    0  0.00000000000E+00  0.00000000000E+00  0.45593999997E+02  0.45594000000E+02  0.51100000000E-03 0. -1.
         11   -1    0    0    0    0 -0.00000000000E+00 -0.00000000000E+00 -0.45593999997E+02  0.45594000000E+02  0.51100000000E-03 0.  1.
    9900012    2    1    2    0    0  0.16185971731E+02  0.20724650928E+02 -0.31010815545E+02  0.50528837223E+02  0.29999931223E+02 0.  0.
         12    1    1    2    0    0 -0.16185971731E+02 -0.20724650928E+02  0.31010815545E+02  0.40659162777E+02  0.00000000000E+00 0. -1.
         11    1    3    3    0    0  0.25779784900E+01 -0.98462749430E+00 -0.21605237986E+02  0.21780766128E+02  0.51100000000E-03 0. -1.
        -11    1    3    3    0    0  0.14199319795E+02  0.16037272318E+02 -0.67583953314E+01  0.22460870280E+02  0.51100000000E-03 0.  1.
         12    1    3    3    0    0 -0.59132655423E+00  0.56720061045E+01 -0.26471822275E+01  0.62872008150E+01  0.00000000000E+00 0. -1.
</event>
<event>
 7    1  0.5748623E-013  0.5052886E+02  0.7816164E-02  0.1300439E+00
        -11   -1    0    0    0    0  0.00000000000E+00  0.00000000000E+00  0.45593999997E+02  0.45594000000E+02  0.51100000000E-03 0.  1.
         11   -1    0    0    0    0 -0.00000000000E+00 -0.00000000000E+00 -0.45593999997E+02  0.45594000000E+02  0.51100000000E-03 0. -1.
    9900012    2    1    2    0    0 -0.22885895071E+02  0.36634086866E+01  0.33406294705E+02  0.50528864712E+02  0.30000014779E+02 0.  0.
         12    1    1    2    0    0  0.22885895071E+02 -0.36634086866E+01 -0.33406294705E+02  0.40659135288E+02  0.00000000000E+00 0. -1.
         11    1    3    3    0    0 -0.13207441499E+02  0.97311649114E+01  0.66736174914E+01  0.17710710098E+02  0.51100000000E-03 0. -1.
        -11    1    3    3    0    0 -0.11184552940E+02 -0.92344278103E+01  0.25009692131E+02  0.28911132496E+02  0.51100000000E-03 0.  1.
        -12    1    3    3    0    0  0.15060993681E+01  0.31666715855E+01  0.17229850827E+01  0.39070221182E+01  0.00000000000E+00 0.  1.
</event>
<event>
 7    1  0.5748623E-013  0.5052886E+02  0.7816164E-02  0.1300439E+00
        -11   -1    0    0    0    0  0.00000000000E+00  0.00000000000E+00  0.45593999997E+02  0.45594000000E+02  0.51100000000E-03 0.  1.
         11   -1    0    0    0    0 -0.00000000000E+00 -0.00000000000E+00 -0.45593999997E+02  0.45594000000E+02  0.51100000000E-03 0. -1.
    9900012    2    1    2    0    0  0.33064191755E+02 -0.20253085513E+01  0.23575896890E+02  0.50528861232E+02  0.30000004202E+02 0.  0.
         12    1    1    2    0    0 -0.33064191755E+02  0.20253085513E+01 -0.23575896890E+02  0.40659138768E+02  0.00000000000E+00 0. -1.
         11    1    3    3    0    0  0.18367089572E+02 -0.11604594726E+02  0.98377290022E+01  0.23849476101E+02  0.51100000000E-03 0.  1.
        -11    1    3    3    0    0 -0.27927140696E+01  0.11642730622E+01  0.38503529994E+01  0.48969380351E+01  0.51100000000E-03 0. -1.
         12    1    3    3    0    0  0.17489816252E+02  0.84150131127E+01  0.98878148887E+01  0.21782447096E+02  0.00000000000E+00 0. -1.
</event>
<event>
 7    1  0.5748623E-013  0.5052885E+02  0.7816164E-02  0.1300439E+00
        -11   -1    0    0    0    0  0.00000000000E+00  0.00000000000E+00  0.45593999997E+02  0.45594000000E+02  0.51100000000E-03 0.  1.
         11   -1    0    0    0    0 -0.00000000000E+00 -0.00000000000E+00 -0.45593999997E+02  0.45594000000E+02  0.51100000000E-03 0. -1.
    9900012    2    1    2    0    0 -0.17207208397E+02 -0.25998339027E+02  0.26099129029E+02  0.50528853562E+02  0.29999980888E+02 0.  0.
         12    1    1    2    0    0  0.17207208397E+02  0.25998339027E+02 -0.26099129029E+02  0.40659146438E+02  0.00000000000E+00 0. -1.
         11    1    3    3    0    0 -0.98200429131E+01  0.51258110043E+00  0.15514421653E+02  0.18368267792E+02  0.51100000000E-03 0. -1.
        -11    1    3    3    0    0 -0.52473344144E+01 -0.27401415372E+02  0.10593541767E+02  0.29842841860E+02  0.51100000000E-03 0.  1.
        -12    1    3    3    0    0 -0.21398310693E+01  0.89049524534E+00 -0.88343903766E-02  0.23177439103E+01  0.00000000000E+00 0.  1.
</event>
<event>
 7    1  0.5748623E-013  0.5052886E+02  0.7816164E-02  0.1300439E+00
        -11   -1    0    0    0    0  0.00000000000E+00  0.00000000000E+00  0.45593999997E+02  0.45594000000E+02  0.51100000000E-03 0.  1.
         11   -1    0    0    0    0 -0.00000000000E+00 -0.00000000000E+00 -0.45593999997E+02  0.45594000000E+02  0.51100000000E-03 0. -1.
    9900012    2    1    2    0    0  0.31205993856E+02  0.14457492742E+02  0.21687153210E+02  0.50528858798E+02  0.29999996803E+02 0.  0.
         12    1    1    2    0    0 -0.31205993856E+02 -0.14457492742E+02 -0.21687153210E+02  0.40659141202E+02  0.00000000000E+00 0. -1.
         11    1    3    3    0    0  0.32008673673E+02  0.13966964002E+02  0.17555442329E+02  0.39087399880E+02  0.51100000000E-03 0. -1.
        -11    1    3    3    0    0 -0.31951547105E+01 -0.33954029566E+01  0.49558289508E+01  0.68042645239E+01  0.51100000000E-03 0.  1.
        -12    1    3    3    0    0  0.23924748938E+01  0.38859316959E+01 -0.82411806974E+00  0.46371943949E+01  0.00000000000E+00 0.  1.
</event>
<event>
 7    1  0.5748623E-013  0.5052886E+02  0.7816164E-02  0.1300439E+00
        -11   -1    0    0    0    0  0.00000000000E+00  0.00000000000E+00  0.45593999997E+02  0.45594000000E+02  0.51100000000E-03 0.  1.
         11   -1    0    0    0    0 -0.00000000000E+00 -0.00000000000E+00 -0.45593999997E+02  0.45594000000E+02  0.51100000000E-03 0. -1.
    9900012    2    1    2    0    0 -0.25800773664E+02 -0.27884947730E+02  0.14488451266E+02  0.50528862630E+02  0.30000008449E+02 0.  0.
         12    1    1    2    0    0  0.25800773664E+02  0.27884947730E+02 -0.14488451266E+02  0.40659137370E+02  0.00000000000E+00 0. -1.
         11    1    3    3    0    0  0.32788410876E+01 -0.17217429778E+01  0.50660666134E+01  0.62753668381E+01  0.51100000000E-03 0. -1.
        -11    1    3    3    0    0 -0.12408256822E+02 -0.22930658190E+02  0.37022377484E+01  0.26334131598E+02  0.51100000000E-03 0.  1.
        -12    1    3    3    0    0 -0.16671357930E+02 -0.32325465623E+01  0.57201469042E+01  0.17919364194E+02  0.00000000000E+00 0.  1.
</event>
<event>
 7    1  0.5748623E-013  0.5052886E+02  0.7816164E-02  0.1300439E+00
        -11   -1    0    0    0    0  0.00000000000E+00  0.00000000000E+00  0.45593999997E+02  0.45594000000E+02  0.51100000000E-03 0.  1.
         11   -1    0    0    0    0 -0.00000000000E+00 -0.00000000000E+00 -0.45593999997E+02  0.45594000000E+02  0.51100000000E-03 0. -1.
    9900012    2    1    2    0    0 -0.18505481211E+02 -0.36085172982E+01  0.36023478952E+02  0.50528864892E+02  0.30000015325E+02 0.  0.
         12    1    1    2    0    0  0.18505481211E+02  0.36085172982E+01 -0.36023478952E+02  0.40659135108E+02  0.00000000000E+00 0. -1.
         11    1    3    3    0    0 -0.16755375895E+02 -0.18557391425E+00  0.16419721729E+02  0.23460271119E+02  0.51100000000E-03 0.  1.
        -11    1    3    3    0    0  0.59322751094E+01 -0.77913562661E+01  0.11133112986E+02  0.14827114536E+02  0.51100000000E-03 0. -1.
         12    1    3    3    0    0 -0.76823804255E+01  0.43684128822E+01  0.84706442374E+01  0.12241479237E+02  0.00000000000E+00 0. -1.
</event>
<event>
 7    1  0.5748623E-013  0.5052885E+02  0.7816164E-02  0.1300439E+00
        -11   -1    0    0    0    0  0.00000000000E+00  0.00000000000E+00  0.45593999997E+02  0.45594000000E+02  0.51100000000E-03 0.  1.
         11   -1    0    0    0    0 -0.00000000000E+00 -0.00000000000E+00 -0.45593999997E+02  0.45594000000E+02  0.51100000000E-03 0. -1.
    9900012    2    1    2    0    0 -0.10097342270E+02 -0.11755137647E+02  0.37590254477E+02  0.50528845881E+02  0.29999957541E+02 0.  0.
         12    1    1    2    0    0  0.10097342270E+02  0.11755137647E+02 -0.37590254477E+02  0.40659154119E+02  0.00000000000E+00 0. -1.
         11    1    3    3    0    0 -0.15345281002E+02  0.17385696332E+01  0.11105574538E+02  0.19021936270E+02  0.51100000000E-03 0. -1.
        -11    1    3    3    0    0 -0.16713403256E+01 -0.49667751246E+01  0.13617024646E+02  0.14590599511E+02  0.51100000000E-03 0.  1.
         12    1    3    3    0    0  0.69192790577E+01 -0.85269321559E+01  0.12867655293E+02  0.16916310100E+02  0.00000000000E+00 0. -1.
</event>
<event>
 7    1  0.5748623E-013  0.5052886E+02  0.7816164E-02  0.1300439E+00
        -11   -1    0    0    0    0  0.00000000000E+00  0.00000000000E+00  0.45593999997E+02  0.45594000000E+02  0.51100000000E-03 0.  1.
         11   -1    0    0    0    0 -0.00000000000E+00 -0.00000000000E+00 -0.45593999997E+02  0.45594000000E+02  0.51100000000E-03 0. -1.
    9900012    2    1    2    0    0 -0.85691907873E+01 -0.50943982195E+01  0.39418036502E+02  0.50528861720E+02  0.30000005685E+02 0.  0.
         12    1    1    2    0    0  0.85691907873E+01  0.50943982195E+01 -0.39418036502E+02  0.40659138280E+02  0.00000000000E+00 0. -1.
         11    1    3    3    0    0 -0.16327255157E+02 -0.67660415147E+01  0.25799344457E+02  0.31272428006E+02  0.51100000000E-03 0. -1.
        -11    1    3    3    0    0  0.77698554389E+01  0.56649703137E+01  0.93845695083E+01  0.13436245283E+02  0.51100000000E-03 0.  1.
         12    1    3    3    0    0 -0.11791068811E-01 -0.39933270186E+01  0.42341225371E+01  0.58201884304E+01  0.00000000000E+00 0. -1.
</event>
<event>
 7    1  0.5748623E-013  0.5052886E+02  0.7816164E-02  0.1300439E+00
        -11   -1    0    0    0    0  0.00000000000E+00  0.00000000000E+00  0.45593999997E+02  0.45594000000E+02  0.51100000000E-03 0.  1.
         11   -1    0    0    0    0 -0.00000000000E+00 -0.00000000000E+00 -0.45593999997E+02  0.45594000000E+02  0.51100000000E-03 0. -1.
    9900012    2    1    2    0    0  0.26498681606E+02 -0.18666231481E+01  0.30781503404E+02  0.50528863749E+02  0.30000011853E+02 0.  0.
         12    1    1    2    0    0 -0.26498681606E+02  0.18666231481E+01 -0.30781503404E+02  0.40659136251E+02  0.00000000000E+00 0. -1.
         11    1    3    3    0    0  0.84911445595E+01  0.12039429499E+02  0.16209848694E+02  0.21904487977E+02  0.51100000000E-03 0. -1.
        -11    1    3    3    0    0  0.32487487543E+01 -0.37524791022E+01  0.82491415456E+01  0.96272428234E+01  0.51100000000E-03 0.  1.
         12    1    3    3    0    0  0.14758788292E+02 -0.10153573544E+02  0.63225131645E+01  0.18997132949E+02  0.00000000000E+00 0. -1.
</event>
<event>
 7    1  0.5748623E-013  0.5052887E+02  0.7816164E-02  0.1300439E+00
        -11   -1    0    0    0    0  0.00000000000E+00  0.00000000000E+00  0.45593999997E+02  0.45594000000E+02  0.51100000000E-03 0. -1.
         11   -1    0    0    0    0 -0.00000000000E+00 -0.00000000000E+00 -0.45593999997E+02  0.45594000000E+02  0.51100000000E-03 0.  1.
    9900012    2    1    2    0    0  0.77772942714E+01 -0.20992157221E+02 -0.33941247464E+02  0.50528865105E+02  0.30000015974E+02 0.  0.
         12    1    1    2    0    0 -0.77772942714E+01  0.20992157221E+02  0.33941247464E+02  0.40659134895E+02  0.00000000000E+00 0. -1.
         11    1    3    3    0    0  0.93545315443E+00  0.15334312282E+01  0.36435316711E+01  0.40622416515E+01  0.51100000000E-03 0. -1.
        -11    1    3    3    0    0 -0.18233371422E+01 -0.12656621440E+02 -0.11219978150E+02  0.17011835132E+02  0.51100000000E-03 0.  1.
         12    1    3    3    0    0  0.86651782591E+01 -0.98689670085E+01 -0.26364800985E+02  0.29454788321E+02  0.00000000000E+00 0. -1.
</event>
<event>
 7    1  0.5748623E-013  0.5052888E+02  0.7816164E-02  0.1300439E+00
        -11   -1    0    0    0    0  0.00000000000E+00  0.00000000000E+00  0.45593999997E+02  0.45594000000E+02  0.51100000000E-03 0. -1.
         11   -1    0    0    0    0 -0.00000000000E+00 -0.00000000000E+00 -0.45593999997E+02  0.45594000000E+02  0.51100000000E-03 0.  1.
    9900012    2    1    2    0    0  0.30343025622E+02 -0.85512405211E+01 -0.25677646067E+02  0.50528875245E+02  0.30000046794E+02 0.  0.
         12    1    1    2    0    0 -0.30343025622E+02  0.85512405211E+01  0.25677646067E+02  0.40659124755E+02  0.00000000000E+00 0. -1.
         11    1    3    3    0    0  0.16620728947E+02 -0.31042604093E+00 -0.25888278361E+02  0.30766019434E+02  0.51100000000E-03 0. -1.
        -11    1    3    3    0    0  0.70374227066E+01 -0.87704785178E+01 -0.38946372873E+01  0.11900202168E+02  0.51100000000E-03 0.  1.
         12    1    3    3    0    0  0.66848739677E+01  0.52966403762E+00  0.41052695815E+01  0.78626536420E+01  0.00000000000E+00 0. -1.
</event>
<event>
 7    1  0.5748623E-013  0.5052886E+02  0.7816164E-02  0.1300439E+00
        -11   -1    0    0    0    0  0.00000000000E+00  0.00000000000E+00  0.45593999997E+02  0.45594000000E+02  0.51100000000E-03 0. -1.
         11   -1    0    0    0    0 -0.00000000000E+00 -0.00000000000E+00 -0.45593999997E+02  0.45594000000E+02  0.51100000000E-03 0.  1.
    9900012    2    1    2    0    0 -0.16923937290E+02  0.29170315401E+02 -0.22712088728E+02  0.50528856768E+02  0.29999990632E+02 0.  0.
         12    1    1    2    0    0  0.16923937290E+02 -0.29170315401E+02  0.22712088728E+02  0.40659143232E+02  0.00000000000E+00 0. -1.
         11    1    3    3    0    0 -0.14592684184E+02  0.31476965539E+01 -0.17759629989E+01  0.15033578088E+02  0.51100000000E-03 0. -1.
        -11    1    3    3    0    0 -0.59556996522E+01  0.15307109954E+02 -0.78705945696E+01  0.18213298236E+02  0.51100000000E-03 0.  1.
         12    1    3    3    0    0  0.36244465461E+01  0.10715508893E+02 -0.13065531159E+02  0.17281980444E+02  0.00000000000E+00 0. -1.
</event>
<event>
 7    1  0.5748623E-013  0.5052887E+02  0.7816164E-02  0.1300439E+00
        -11   -1    0    0    0    0  0.00000000000E+00  0.00000000000E+00  0.45593999997E+02  0.45594000000E+02  0.51100000000E-03 0.  1.
         11   -1    0    0    0    0 -0.00000000000E+00 -0.00000000000E+00 -0.45593999997E+02  0.45594000000E+02  0.51100000000E-03 0. -1.
    9900012    2    1    2    0    0  0.24184052985E+02 -0.32297132021E+02  0.50191657562E+01  0.50528865965E+02  0.30000018587E+02 0.  0.
         12    1    1    2    0    0 -0.24184052985E+02  0.32297132021E+02 -0.50191657562E+01  0.40659134035E+02  0.00000000000E+00 0. -1.
         11    1    3    3    0    0  0.13699487116E+02 -0.15055634686E+01  0.10208913508E+02  0.17151226891E+02  0.51100000000E-03 0. -1.
        -11    1    3    3    0    0  0.88316566772E+01 -0.26583029743E+02 -0.25153338037E+01  0.28124411716E+02  0.51100000000E-03 0.  1.
         12    1    3    3    0    0  0.16529091924E+01 -0.42085388098E+01 -0.26744139479E+01  0.52532273581E+01  0.00000000000E+00 0. -1.
</event>
<event>
 7    1  0.5748623E-013  0.5052895E+02  0.7816164E-02  0.1300438E+00
        -11   -1    0    0    0    0  0.00000000000E+00  0.00000000000E+00  0.45593999997E+02  0.45594000000E+02  0.51100000000E-03 0. -1.
         11   -1    0    0    0    0 -0.00000000000E+00 -0.00000000000E+00 -0.45593999997E+02  0.45594000000E+02  0.51100000000E-03 0.  1.
    9900012    2    1    2    0    0  0.26578038125E+02  0.13185670062E+02 -0.27801155119E+02  0.50528951419E+02  0.30000278332E+02 0.  0.
         12    1    1    2    0    0 -0.26578038125E+02 -0.13185670062E+02  0.27801155119E+02  0.40659048581E+02  0.00000000000E+00 0. -1.
         11    1    3    3    0    0  0.20604183034E+02  0.64519099835E+01 -0.19479783154E+01  0.21678425236E+02  0.51100000000E-03 0. -1.
        -11    1    3    3    0    0  0.14774372922E+01  0.73124689499E+01 -0.20612885099E+02  0.21921360712E+02  0.51100000000E-03 0.  1.
        -12    1    3    3    0    0  0.44964177989E+01 -0.57870887128E+00 -0.52402917046E+01  0.69291654713E+01  0.00000000000E+00 0.  1.
</event>
<event>
 7    1  0.5748623E-013  0.5052887E+02  0.7816164E-02  0.1300439E+00
        -11   -1    0    0    0    0  0.00000000000E+00  0.00000000000E+00  0.45593999997E+02  0.45594000000E+02  0.51100000000E-03 0. -1.
         11   -1    0    0    0    0 -0.00000000000E+00 -0.00000000000E+00 -0.45593999997E+02  0.45594000000E+02  0.51100000000E-03 0.  1.
    9900012    2    1    2    0    0  0.26612595891E+02  0.82101586126E+01 -0.29623102772E+02  0.50528865942E+02  0.30000018519E+02 0.  0.
         12    1    1    2    0    0 -0.26612595891E+02 -0.82101586126E+01  0.29623102772E+02  0.40659134058E+02  0.00000000000E+00 0. -1.
         11    1    3    3    0    0  0.11311319425E+01  0.66994103271E+01  0.24050717594E+01  0.72073524009E+01  0.51100000000E-03 0. -1.
        -11    1    3    3    0    0  0.85473526054E+01  0.17051475668E+01 -0.21943473574E+02  0.23611031268E+02  0.51100000000E-03 0.  1.
         12    1    3    3    0    0  0.16934111343E+02 -0.19439928126E+00 -0.10084700957E+02  0.19710482273E+02  0.00000000000E+00 0. -1.
</event>
<event>
 7    1  0.5748623E-013  0.5052886E+02  0.7816164E-02  0.1300439E+00
        -11   -1    0    0    0    0  0.00000000000E+00  0.00000000000E+00  0.45593999997E+02  0.45594000000E+02  0.51100000000E-03 0.  1.
         11   -1    0    0    0    0 -0.00000000000E+00 -0.00000000000E+00 -0.45593999997E+02  0.45594000000E+02  0.51100000000E-03 0. -1.
    9900012    2    1    2    0    0  0.25991132783E+02 -0.22327443413E+02  0.21888625230E+02  0.50528860472E+02  0.30000001890E+02 0.  0.
         12    1    1    2    0    0 -0.25991132783E+02  0.22327443413E+02 -0.21888625230E+02  0.40659139528E+02  0.00000000000E+00 0. -1.
         11    1    3    3    0    0 -0.23760476982E+01  0.62582796852E+00  0.14520072664E+01  0.28540477699E+01  0.51100000000E-03 0. -1.
        -11    1    3    3    0    0  0.11421186371E+02 -0.21118548698E+02  0.46765272458E+01  0.24460304670E+02  0.51100000000E-03 0.  1.
        -12    1    3    3    0    0  0.16945994110E+02 -0.18347226842E+01  0.15760090718E+02  0.23214508031E+02  0.00000000000E+00 0.  1.
</event>
<event>
 7    1  0.5748623E-013  0.5052886E+02  0.7816164E-02  0.1300439E+00
        -11   -1    0    0    0    0  0.00000000000E+00  0.00000000000E+00  0.45593999997E+02  0.45594000000E+02  0.51100000000E-03 0.  1.
         11   -1    0    0    0    0 -0.00000000000E+00 -0.00000000000E+00 -0.45593999997E+02  0.45594000000E+02  0.51100000000E-03 0. -1.
    9900012    2    1    2    0    0  0.28857966562E+02  0.28465005623E+02  0.31822699659E+01  0.50528860543E+02  0.30000002107E+02 0.  0.
         12    1    1    2    0    0 -0.28857966562E+02 -0.28465005623E+02 -0.31822699659E+01  0.40659139457E+02  0.00000000000E+00 0. -1.
         11    1    3    3    0    0  0.60640855451E+01  0.11625048062E+02 -0.95430467717E+01  0.16216800482E+02  0.51100000000E-03 0. -1.
        -11    1    3    3    0    0  0.17681208479E+02  0.19051280975E+02  0.85902051824E+01  0.27374587949E+02  0.51100000000E-03 0.  1.
         12    1    3    3    0    0  0.51126725387E+01 -0.22113234133E+01  0.41351115552E+01  0.69374721116E+01  0.00000000000E+00 0. -1.
</event>
<event>
 7    1  0.5748623E-013  0.5052885E+02  0.7816164E-02  0.1300439E+00
        -11   -1    0    0    0    0  0.00000000000E+00  0.00000000000E+00  0.45593999997E+02  0.45594000000E+02  0.51100000000E-03 0.  1.
         11   -1    0    0    0    0 -0.00000000000E+00 -0.00000000000E+00 -0.45593999997E+02  0.45594000000E+02  0.51100000000E-03 0. -1.
    9900012    2    1    2    0    0 -0.28039074044E+02  0.20067499650E+02  0.21546975740E+02  0.50528851226E+02  0.29999973788E+02 0.  0.
         12    1    1    2    0    0  0.28039074044E+02 -0.20067499650E+02 -0.21546975740E+02  0.40659148774E+02  0.00000000000E+00 0. -1.
         11    1    3    3    0    0 -0.15011326030E+02  0.11750172328E+02  0.10130282992E+02  0.21587706980E+02  0.51100000000E-03 0. -1.
        -11    1    3    3    0    0  0.25850626945E+01  0.27060215854E+01  0.11766096320E+02  0.12346907501E+02  0.51100000000E-03 0.  1.
         12    1    3    3    0    0 -0.15612810709E+02  0.56113057368E+01 -0.34940357256E+00  0.16594236745E+02  0.00000000000E+00 0. -1.
</event>
<event>
 7    1  0.5748623E-013  0.5052883E+02  0.7816164E-02  0.1300439E+00
        -11   -1    0    0    0    0  0.00000000000E+00  0.00000000000E+00  0.45593999997E+02  0.45594000000E+02  0.51100000000E-03 0. -1.
         11   -1    0    0    0    0 -0.00000000000E+00 -0.00000000000E+00 -0.45593999997E+02  0.45594000000E+02  0.51100000000E-03 0.  1.
    9900012    2    1    2    0    0  0.26718787640E+02  0.23264683522E+02 -0.19950666704E+02  0.50528828658E+02  0.29999905188E+02 0.  0.
         12    1    1    2    0    0 -0.26718787640E+02 -0.23264683522E+02  0.19950666704E+02  0.40659171342E+02  0.00000000000E+00 0. -1.
         11    1    3    3    0    0  0.10083110287E+02  0.95921843231E+01  0.69910461195E+01  0.15574140080E+02  0.51100000000E-03 0. -1.
        -11    1    3    3    0    0  0.97898309242E+01  0.67308309867E+01 -0.10580243522E+02  0.15908690346E+02  0.51100000000E-03 0.  1.
         12    1    3    3    0    0  0.68458464289E+01  0.69416682122E+01 -0.16361469302E+02  0.19045998231E+02  0.00000000000E+00 0. -1.
</event>
<event>
 7    1  0.5748623E-013  0.5052887E+02  0.7816164E-02  0.1300439E+00
        -11   -1    0    0    0    0  0.00000000000E+00  0.00000000000E+00  0.45593999997E+02  0.45594000000E+02  0.51100000000E-03 0.  1.
         11   -1    0    0    0    0 -0.00000000000E+00 -0.00000000000E+00 -0.45593999997E+02  0.45594000000E+02  0.51100000000E-03 0. -1.
    9900012    2    1    2    0    0  0.26295312784E+02 -0.16391575066E+02  0.26325611292E+02  0.50528867970E+02  0.30000024681E+02 0.  0.
         12    1    1    2    0    0 -0.26295312784E+02  0.16391575066E+02 -0.26325611292E+02  0.40659132030E+02  0.00000000000E+00 0. -1.
         11    1    3    3    0    0  0.35825704822E+01  0.71122832181E+01  0.21809416352E+01  0.82568692924E+01  0.51100000000E-03 0. -1.
        -11    1    3    3    0    0  0.81739708541E+01 -0.16778863320E+02  0.12366086905E+02  0.22388929394E+02  0.51100000000E-03 0.  1.
         12    1    3    3    0    0  0.14538771448E+02 -0.67249949644E+01  0.11778582752E+02  0.19883069283E+02  0.00000000000E+00 0. -1.
</event>
<event>
 7    1  0.5748623E-013  0.5052886E+02  0.7816164E-02  0.1300439E+00
        -11   -1    0    0    0    0  0.00000000000E+00  0.00000000000E+00  0.45593999997E+02  0.45594000000E+02  0.51100000000E-03 0. -1.
         11   -1    0    0    0    0 -0.00000000000E+00 -0.00000000000E+00 -0.45593999997E+02  0.45594000000E+02  0.51100000000E-03 0.  1.
    9900012    2    1    2    0    0 -0.20029296711E+02  0.37854172300E+01 -0.35180441014E+02  0.50528861540E+02  0.30000005138E+02 0.  0.
         12    1    1    2    0    0  0.20029296711E+02 -0.37854172300E+01  0.35180441014E+02  0.40659138460E+02  0.00000000000E+00 0. -1.
         11    1    3    3    0    0 -0.81370503886E+01  0.13041618815E+02 -0.12942552546E+02  0.20094901767E+02  0.51100000000E-03 0. -1.
        -11    1    3    3    0    0 -0.69768061444E+01 -0.25799510780E+01 -0.20707884278E+02  0.22003373448E+02  0.51100000000E-03 0.  1.
         12    1    3    3    0    0 -0.49154401779E+01 -0.66762505071E+01 -0.15300041901E+01  0.84305863259E+01  0.00000000000E+00 0. -1.
</event>
<event>
 7    1  0.5748623E-013  0.5052888E+02  0.7816164E-02  0.1300439E+00
        -11   -1    0    0    0    0  0.00000000000E+00  0.00000000000E+00  0.45593999997E+02  0.45594000000E+02  0.51100000000E-03 0. -1.
         11   -1    0    0    0    0 -0.00000000000E+00 -0.00000000000E+00 -0.45593999997E+02  0.45594000000E+02  0.51100000000E-03 0.  1.
    9900012    2    1    2    0    0 -0.13936612400E+02 -0.37970796060E+02 -0.41416761222E+01  0.50528880485E+02  0.30000062723E+02 0.  0.
         12    1    1    2    0    0  0.13936612400E+02  0.37970796060E+02  0.41416761222E+01  0.40659119515E+02  0.00000000000E+00 0. -1.
         11    1    3    3    0    0  0.59804952045E+01 -0.22522051060E+02 -0.28076169389E+01  0.23471084764E+02  0.51100000000E-03 0. -1.
        -11    1    3    3    0    0 -0.17505801295E+02 -0.12486994418E+02  0.24979207564E+01  0.21647579933E+02  0.51100000000E-03 0.  1.
        -12    1    3    3    0    0 -0.24113063088E+01 -0.29617505819E+01 -0.38319799396E+01  0.54102157888E+01  0.00000000000E+00 0.  1.
</event>
<event>
 7    1  0.5748623E-013  0.5052886E+02  0.7816164E-02  0.1300439E+00
        -11   -1    0    0    0    0  0.00000000000E+00  0.00000000000E+00  0.45593999997E+02  0.45594000000E+02  0.51100000000E-03 0.  1.
         11   -1    0    0    0    0 -0.00000000000E+00 -0.00000000000E+00 -0.45593999997E+02  0.45594000000E+02  0.51100000000E-03 0. -1.
    9900012    2    1    2    0    0  0.20721928452E+02  0.69461101481E+01  0.34285844039E+02  0.50528857529E+02  0.29999992947E+02 0.  0.
         12    1    1    2    0    0 -0.20721928452E+02 -0.69461101481E+01 -0.34285844039E+02  0.40659142471E+02  0.00000000000E+00 0. -1.
         11    1    3    3    0    0 -0.78346064194E+00  0.13629594483E+01 -0.42317208035E+01  0.45143028537E+01  0.51100000000E-03 0. -1.
        -11    1    3    3    0    0  0.19456180560E+02  0.83034665359E+01  0.36087915370E+02  0.41830947330E+02  0.51100000000E-03 0.  1.
        -12    1    3    3    0    0  0.20492085347E+01 -0.27203158362E+01  0.24296494721E+01  0.41836073458E+01  0.00000000000E+00 0.  1.
</event>
<event>
 7    1  0.5748623E-013  0.5052885E+02  0.7816164E-02  0.1300439E+00
        -11   -1    0    0    0    0  0.00000000000E+00  0.00000000000E+00  0.45593999997E+02  0.45594000000E+02  0.51100000000E-03 0.  1.
         11   -1    0    0    0    0 -0.00000000000E+00 -0.00000000000E+00 -0.45593999997E+02  0.45594000000E+02  0.51100000000E-03 0. -1.
    9900012    2    1    2    0    0 -0.18391824531E+02  0.19316725704E+02  0.30688287299E+02  0.50528854918E+02  0.29999985008E+02 0.  0.
         12    1    1    2    0    0  0.18391824531E+02 -0.19316725704E+02 -0.30688287299E+02  0.40659145082E+02  0.00000000000E+00 0. -1.
         11    1    3    3    0    0 -0.18744829802E+02  0.77158522610E+01  0.13463150847E+02  0.24334326607E+02  0.51100000000E-03 0.  1.
        -11    1    3    3    0    0  0.50571535525E+01 -0.10643230333E+01  0.13359630518E+01  0.53378256912E+01  0.51100000000E-03 0. -1.
         12    1    3    3    0    0 -0.47041482807E+01  0.12665196476E+02  0.15889173400E+02  0.20856702620E+02  0.00000000000E+00 0. -1.
</event>
<event>
 7    1  0.5748623E-013  0.5052886E+02  0.7816164E-02  0.1300439E+00
        -11   -1    0    0    0    0  0.00000000000E+00  0.00000000000E+00  0.45593999997E+02  0.45594000000E+02  0.51100000000E-03 0. -1.
         11   -1    0    0    0    0 -0.00000000000E+00 -0.00000000000E+00 -0.45593999997E+02  0.45594000000E+02  0.51100000000E-03 0.  1.
    9900012    2    1    2    0    0 -0.31531255223E+02 -0.78159198246E+01 -0.24451121585E+02  0.50528855821E+02  0.29999987753E+02 0.  0.
         12    1    1    2    0    0  0.31531255223E+02  0.78159198246E+01  0.24451121585E+02  0.40659144179E+02  0.00000000000E+00 0. -1.
         11    1    3    3    0    0 -0.61662011665E+01  0.74470573821E+01 -0.19699153448E+01  0.98671813201E+01  0.51100000000E-03 0. -1.
        -11    1    3    3    0    0 -0.13192068020E+02 -0.16350467370E+02 -0.17931633469E+02  0.27620860251E+02  0.51100000000E-03 0.  1.
         12    1    3    3    0    0 -0.12172986036E+02  0.10874901637E+01 -0.45495727712E+01  0.13040814250E+02  0.00000000000E+00 0. -1.
</event>
<event>
 7    1  0.5748623E-013  0.5052885E+02  0.7816164E-02  0.1300439E+00
        -11   -1    0    0    0    0  0.00000000000E+00  0.00000000000E+00  0.45593999997E+02  0.45594000000E+02  0.51100000000E-03 0.  1.
         11   -1    0    0    0    0 -0.00000000000E+00 -0.00000000000E+00 -0.45593999997E+02  0.45594000000E+02  0.51100000000E-03 0. -1.
    9900012    2    1    2    0    0  0.13214656506E+01  0.26279633594E+02  0.30996785271E+02  0.50528854529E+02  0.29999983825E+02 0.  0.
         12    1    1    2    0    0 -0.13214656506E+01 -0.26279633594E+02 -0.30996785271E+02  0.40659145471E+02  0.00000000000E+00 0. -1.
         11    1    3    3    0    0  0.12861620357E+02  0.17603714454E+02  0.16032903274E+02  0.27062262072E+02  0.51100000000E-03 0.  1.
        -11    1    3    3    0    0 -0.86611324557E+01  0.22274664731E+01  0.27467982357E+01  0.93553045441E+01  0.51100000000E-03 0. -1.
        -12    1    3    3    0    0 -0.28790222510E+01  0.64484526679E+01  0.12217083761E+02  0.14111287913E+02  0.00000000000E+00 0.  1.
</event>
<event>
 7    1  0.5748623E-013  0.5052885E+02  0.7816164E-02  0.1300439E+00
        -11   -1    0    0    0    0  0.00000000000E+00  0.00000000000E+00  0.45593999997E+02  0.45594000000E+02  0.51100000000E-03 0.  1.
         11   -1    0    0    0    0 -0.00000000000E+00 -0.00000000000E+00 -0.45593999997E+02  0.45594000000E+02  0.51100000000E-03 0. -1.
    9900012    2    1    2    0    0  0.21272667651E+02  0.27830868621E+02  0.20641778223E+02  0.50528847951E+02  0.29999963831E+02 0.  0.
         12    1    1    2    0    0 -0.21272667651E+02 -0.27830868621E+02 -0.20641778223E+02  0.40659152049E+02  0.00000000000E+00 0. -1.
         11    1    3    3    0    0  0.10734915504E+01  0.95929520430E+00 -0.20021361252E+01  0.24660050128E+01  0.51100000000E-03 0. -1.
        -11    1    3    3    0    0  0.25434686327E+02  0.18787876012E+02  0.21773387711E+02  0.38392550922E+02  0.51100000000E-03 0.  1.
        -12    1    3    3    0    0 -0.52355102266E+01  0.80836974040E+01  0.87052663723E+00  0.96702920162E+01  0.00000000000E+00 0.  1.
</event>
<event>
 7    1  0.5748623E-013  0.5052885E+02  0.7816164E-02  0.1300439E+00
        -11   -1    0    0    0    0  0.00000000000E+00  0.00000000000E+00  0.45593999997E+02  0.45594000000E+02  0.51100000000E-03 0.  1.
         11   -1    0    0    0    0 -0.00000000000E+00 -0.00000000000E+00 -0.45593999997E+02  0.45594000000E+02  0.51100000000E-03 0. -1.
    9900012    2    1    2    0    0 -0.15678585629E+02 -0.34922176583E+02  0.13703654379E+02  0.50528848410E+02  0.29999965228E+02 0.  0.
         12    1    1    2    0    0  0.15678585629E+02  0.34922176583E+02 -0.13703654379E+02  0.40659151590E+02  0.00000000000E+00 0. -1.
         11    1    3    3    0    0 -0.72802260667E+01 -0.11937001662E+02 -0.91095293900E+01  0.16687636927E+02  0.51100000000E-03 0. -1.
        -11    1    3    3    0    0 -0.52559640701E+01 -0.72789650603E+01  0.82152969360E+01  0.12169617688E+02  0.51100000000E-03 0.  1.
         12    1    3    3    0    0 -0.31423954922E+01 -0.15706209861E+02  0.14597886833E+02  0.21671593795E+02  0.00000000000E+00 0. -1.
</event>
<event>
 7    1  0.5748623E-013  0.5052888E+02  0.7816164E-02  0.1300439E+00
        -11   -1    0    0    0    0  0.00000000000E+00  0.00000000000E+00  0.45593999997E+02  0.45594000000E+02  0.51100000000E-03 0. -1.
         11   -1    0    0    0    0 -0.00000000000E+00 -0.00000000000E+00 -0.45593999997E+02  0.45594000000E+02  0.51100000000E-03 0.  1.
    9900012    2    1    2    0    0 -0.14046872311E+02 -0.37951334634E+02 -0.39428355691E+01  0.50528875875E+02  0.30000048711E+02 0.  0.
         12    1    1    2    0    0  0.14046872311E+02  0.37951334634E+02  0.39428355691E+01  0.40659124125E+02  0.00000000000E+00 0. -1.
         11    1    3    3    0    0 -0.64191762707E+01 -0.19227258922E+02  0.11843237858E+02  0.23476703194E+02  0.51100000000E-03 0. -1.
        -11    1    3    3    0    0 -0.40016465511E+01 -0.72491491300E+01 -0.15724482225E+01  0.84282816696E+01  0.51100000000E-03 0.  1.
         12    1    3    3    0    0 -0.36260494895E+01 -0.11474926582E+02 -0.14213625204E+02  0.18623891012E+02  0.00000000000E+00 0. -1.
</event>
<event>
 7    1  0.5748623E-013  0.5052886E+02  0.7816164E-02  0.1300439E+00
        -11   -1    0    0    0    0  0.00000000000E+00  0.00000000000E+00  0.45593999997E+02  0.45594000000E+02  0.51100000000E-03 0. -1.
         11   -1    0    0    0    0 -0.00000000000E+00 -0.00000000000E+00 -0.45593999997E+02  0.45594000000E+02  0.51100000000E-03 0.  1.
    9900012    2    1    2    0    0 -0.15869184850E+01  0.34486901303E+02 -0.21477914828E+02  0.50528862071E+02  0.30000006751E+02 0.  0.
         12    1    1    2    0    0  0.15869184850E+01 -0.34486901303E+02  0.21477914828E+02  0.40659137929E+02  0.00000000000E+00 0. -1.
         11    1    3    3    0    0  0.11465029389E+02  0.84432031347E+01 -0.97368307344E+00  0.14271742608E+02  0.51100000000E-03 0. -1.
        -11    1    3    3    0    0 -0.52050753113E+01  0.49097255480E+01 -0.32019908010E+01  0.78390662266E+01  0.51100000000E-03 0.  1.
         12    1    3    3    0    0 -0.78468725629E+01  0.21133972621E+02 -0.17302240953E+02  0.28418053237E+02  0.00000000000E+00 0. -1.
</event>
<event>
 7    1  0.5748623E-013  0.5052885E+02  0.7816164E-02  0.1300439E+00
        -11   -1    0    0    0    0  0.00000000000E+00  0.00000000000E+00  0.45593999997E+02  0.45594000000E+02  0.51100000000E-03 0.  1.
         11   -1    0    0    0    0 -0.00000000000E+00 -0.00000000000E+00 -0.45593999997E+02  0.45594000000E+02  0.51100000000E-03 0. -1.
    9900012    2    1    2    0    0 -0.40446903655E+02  0.33318925878E+01  0.24724561527E+01  0.50528848964E+02  0.29999966912E+02 0.  0.
         12    1    1    2    0    0  0.40446903655E+02 -0.33318925878E+01 -0.24724561527E+01  0.40659151036E+02  0.00000000000E+00 0. -1.
         11    1    3    3    0    0 -0.30389703143E+02 -0.97986638598E+01  0.34418443377E+01  0.32115325988E+02  0.51100000000E-03 0. -1.
        -11    1    3    3    0    0 -0.58502427740E+01  0.38098181469E+01 -0.35992593956E+01  0.78545988621E+01  0.51100000000E-03 0.  1.
         12    1    3    3    0    0 -0.42069577376E+01  0.93207383007E+01  0.26298712105E+01  0.10558924115E+02  0.00000000000E+00 0. -1.
</event>
<event>
 7    1  0.5748623E-013  0.5052885E+02  0.7816164E-02  0.1300439E+00
        -11   -1    0    0    0    0  0.00000000000E+00  0.00000000000E+00  0.45593999997E+02  0.45594000000E+02  0.51100000000E-03 0. -1.
         11   -1    0    0    0    0 -0.00000000000E+00 -0.00000000000E+00 -0.45593999997E+02  0.45594000000E+02  0.51100000000E-03 0.  1.
    9900012    2    1    2    0    0 -0.20959666614E+02 -0.32594822549E+02  0.12305942328E+02  0.50528852221E+02  0.29999976810E+02 0.  0.
         12    1    1    2    0    0  0.20959666614E+02  0.32594822549E+02 -0.12305942328E+02  0.40659147779E+02  0.00000000000E+00 0. -1.
         11    1    3    3    0    0 -0.18352666032E+02 -0.24560183459E+02  0.51781772478E+01  0.31093994305E+02  0.51100000000E-03 0.  1.
        -11    1    3    3    0    0 -0.87239169115E+00  0.47691963605E+01  0.36071605114E+01  0.60430049151E+01  0.51100000000E-03 0. -1.
        -12    1    3    3    0    0 -0.17346088908E+01 -0.12803835451E+02  0.35206045685E+01  0.13391853000E+02  0.00000000000E+00 0.  1.
</event>
<event>
 7    1  0.5748623E-013  0.5052886E+02  0.7816164E-02  0.1300439E+00
        -11   -1    0    0    0    0  0.00000000000E+00  0.00000000000E+00  0.45593999997E+02  0.45594000000E+02  0.51100000000E-03 0.  1.
         11   -1    0    0    0    0 -0.00000000000E+00 -0.00000000000E+00 -0.45593999997E+02  0.45594000000E+02  0.51100000000E-03 0. -1.
    9900012    2    1    2    0    0 -0.15469377902E+02  0.19770548970E+02  0.31984201496E+02  0.50528863209E+02  0.30000010209E+02 0.  0.
         12    1    1    2    0    0  0.15469377902E+02 -0.19770548970E+02 -0.31984201496E+02  0.40659136791E+02  0.00000000000E+00 0. -1.
         11    1    3    3    0    0  0.53173154859E+01  0.41636955606E+01  0.10891654394E+02  0.12815550726E+02  0.51100000000E-03 0. -1.
        -11    1    3    3    0    0 -0.11875864607E+02 -0.12008373033E+01  0.56268664669E+01  0.13196203881E+02  0.51100000000E-03 0.  1.
        -12    1    3    3    0    0 -0.89108287814E+01  0.16807690713E+02  0.15465680635E+02  0.24517108601E+02  0.00000000000E+00 0.  1.
</event>
<event>
 7    1  0.5748623E-013  0.5052886E+02  0.7816164E-02  0.1300439E+00
        -11   -1    0    0    0    0  0.00000000000E+00  0.00000000000E+00  0.45593999997E+02  0.45594000000E+02  0.51100000000E-03 0. -1.
         11   -1    0    0    0    0 -0.00000000000E+00 -0.00000000000E+00 -0.45593999997E+02  0.45594000000E+02  0.51100000000E-03 0.  1.
    9900012    2    1    2    0    0  0.36099358720E+02 -0.56420158631E+01 -0.17837301043E+02  0.50528863862E+02  0.30000012194E+02 0.  0.
         12    1    1    2    0    0 -0.36099358720E+02  0.56420158631E+01  0.17837301043E+02  0.40659136138E+02  0.00000000000E+00 0. -1.
         11    1    3    3    0    0  0.19347347167E+02  0.39365257386E+01  0.36387739779E+01  0.20076273399E+02  0.51100000000E-03 0. -1.
        -11    1    3    3    0    0  0.16622686004E+02 -0.10614500366E+02 -0.21762667984E+02  0.29369968097E+02  0.51100000000E-03 0.  1.
         12    1    3    3    0    0  0.12932554916E+00  0.10359587642E+01  0.28659296273E+00  0.10826223649E+01  0.00000000000E+00 0. -1.
</event>
<event>
 7    1  0.5748623E-013  0.5052886E+02  0.7816164E-02  0.1300439E+00
        -11   -1    0    0    0    0  0.00000000000E+00  0.00000000000E+00  0.45593999997E+02  0.45594000000E+02  0.51100000000E-03 0.  1.
         11   -1    0    0    0    0 -0.00000000000E+00 -0.00000000000E+00 -0.45593999997E+02  0.45594000000E+02  0.51100000000E-03 0. -1.
    9900012    2    1    2    0    0 -0.11020995062E+02  0.35883317539E+02  0.15623397316E+02  0.50528863838E+02  0.30000012122E+02 0.  0.
         12    1    1    2    0    0  0.11020995062E+02 -0.35883317539E+02 -0.15623397316E+02  0.40659136162E+02  0.00000000000E+00 0. -1.
         11    1    3    3    0    0 -0.19166649082E+02  0.29664440918E+02  0.12527972145E+02  0.37473851928E+02  0.51100000000E-03 0. -1.
        -11    1    3    3    0    0  0.66350545668E+01  0.78178866458E+01  0.34668585562E+01  0.10824158592E+02  0.51100000000E-03 0.  1.
         12    1    3    3    0    0  0.15105994533E+01 -0.15990100247E+01 -0.37143338469E+00  0.22308533181E+01  0.00000000000E+00 0. -1.
</event>
<event>
 7    1  0.5748623E-013  0.5052886E+02  0.7816164E-02  0.1300439E+00
        -11   -1    0    0    0    0  0.00000000000E+00  0.00000000000E+00  0.45593999997E+02  0.45594000000E+02  0.51100000000E-03 0.  1.
         11   -1    0    0    0    0 -0.00000000000E+00 -0.00000000000E+00 -0.45593999997E+02  0.45594000000E+02  0.51100000000E-03 0. -1.
    9900012    2    1    2    0    0 -0.69295206342E+01  0.12707721505E+02  0.37995546850E+02  0.50528855610E+02  0.29999987113E+02 0.  0.
         12    1    1    2    0    0  0.69295206342E+01 -0.12707721505E+02 -0.37995546850E+02  0.40659144390E+02  0.00000000000E+00 0. -1.
         11    1    3    3    0    0 -0.75525603816E+01  0.86436240055E+01  0.16575621796E+01  0.11597453035E+02  0.51100000000E-03 0. -1.
        -11    1    3    3    0    0  0.68471222337E+01  0.18891765321E+01  0.14975081576E+02  0.16574231183E+02  0.51100000000E-03 0.  1.
        -12    1    3    3    0    0 -0.62240824863E+01  0.21749209678E+01  0.21362903095E+02  0.22357171392E+02  0.00000000000E+00 0.  1.
</event>
<event>
 7    1  0.5748623E-013  0.5052887E+02  0.7816164E-02  0.1300439E+00
        -11   -1    0    0    0    0  0.00000000000E+00  0.00000000000E+00  0.45593999997E+02  0.45594000000E+02  0.51100000000E-03 0.  1.
         11   -1    0    0    0    0 -0.00000000000E+00 -0.00000000000E+00 -0.45593999997E+02  0.45594000000E+02  0.51100000000E-03 0. -1.
    9900012    2    1    2    0    0  0.25200692079E+02 -0.20209552922E+02 -0.24691372772E+02  0.50528870644E+02  0.30000032810E+02 0.  0.
         12    1    1    2    0    0 -0.25200692079E+02  0.20209552922E+02  0.24691372772E+02  0.40659129356E+02  0.00000000000E+00 0. -1.
         11    1    3    3    0    0  0.13917578741E+02  0.58667452022E+01 -0.11369896362E+02  0.18904820571E+02  0.51100000000E-03 0. -1.
        -11    1    3    3    0    0  0.97762298869E+01 -0.22448385608E+02 -0.12894216441E+02  0.27672468359E+02  0.51100000000E-03 0.  1.
         12    1    3    3    0    0  0.15068834511E+01 -0.36279125159E+01 -0.42725996934E+00  0.39515817137E+01  0.00000000000E+00 0. -1.
</event>
<event>
 7    1  0.5748623E-013  0.5052886E+02  0.7816164E-02  0.1300439E+00
        -11   -1    0    0    0    0  0.00000000000E+00  0.00000000000E+00  0.45593999997E+02  0.45594000000E+02  0.51100000000E-03 0.  1.
         11   -1    0    0    0    0 -0.00000000000E+00 -0.00000000000E+00 -0.45593999997E+02  0.45594000000E+02  0.51100000000E-03 0. -1.
    9900012    2    1    2    0    0  0.14101651251E+02 -0.30150289546E+02  0.23351000522E+02  0.50528858923E+02  0.29999997183E+02 0.  0.
         12    1    1    2    0    0 -0.14101651251E+02  0.30150289546E+02 -0.23351000522E+02  0.40659141077E+02  0.00000000000E+00 0. -1.
         11    1    3    3    0    0  0.11965739709E+02 -0.34692780684E+01  0.63715699003E+01  0.13993274111E+02  0.51100000000E-03 0.  1.
        -11    1    3    3    0    0 -0.56112757892E+01 -0.61070648239E+01 -0.70200358969E+00  0.83231884544E+01  0.51100000000E-03 0. -1.
        -12    1    3    3    0    0  0.77471873316E+01 -0.20573946653E+02  0.17681434212E+02  0.28212396358E+02  0.00000000000E+00 0.  1.
</event>
<event>
 7    1  0.5748623E-013  0.5052886E+02  0.7816164E-02  0.1300439E+00
        -11   -1    0    0    0    0  0.00000000000E+00  0.00000000000E+00  0.45593999997E+02  0.45594000000E+02  0.51100000000E-03 0.  1.
         11   -1    0    0    0    0 -0.00000000000E+00 -0.00000000000E+00 -0.45593999997E+02  0.45594000000E+02  0.51100000000E-03 0. -1.
    9900012    2    1    2    0    0  0.23070784975E+02  0.32938412102E+02  0.59971037291E+01  0.50528863704E+02  0.30000011716E+02 0.  0.
         12    1    1    2    0    0 -0.23070784975E+02 -0.32938412102E+02 -0.59971037291E+01  0.40659136296E+02  0.00000000000E+00 0. -1.
         11    1    3    3    0    0  0.21516782430E+02  0.15655865441E+02  0.25486184564E+01  0.26731507723E+02  0.51100000000E-03 0. -1.
        -11    1    3    3    0    0 -0.15707006831E+01  0.59586938977E+01  0.89175707677E+01  0.10839566516E+02  0.51100000000E-03 0.  1.
        -12    1    3    3    0    0  0.31247032285E+01  0.11323852764E+02 -0.54690854950E+01  0.12957789465E+02  0.00000000000E+00 0.  1.
</event>
<event>
 7    1  0.5748623E-013  0.5052886E+02  0.7816164E-02  0.1300439E+00
        -11   -1    0    0    0    0  0.00000000000E+00  0.00000000000E+00  0.45593999997E+02  0.45594000000E+02  0.51100000000E-03 0.  1.
         11   -1    0    0    0    0 -0.00000000000E+00 -0.00000000000E+00 -0.45593999997E+02  0.45594000000E+02  0.51100000000E-03 0. -1.
    9900012    2    1    2    0    0 -0.20690624167E+02  0.10998170447E+02  0.33228060595E+02  0.50528859668E+02  0.29999999447E+02 0.  0.
         12    1    1    2    0    0  0.20690624167E+02 -0.10998170447E+02 -0.33228060595E+02  0.40659140332E+02  0.00000000000E+00 0. -1.
         11    1    3    3    0    0 -0.46011316542E+01  0.13541176655E+02  0.79553391566E+01  0.16365246685E+02  0.51100000000E-03 0. -1.
        -11    1    3    3    0    0 -0.16853698970E+02 -0.13832672462E+01  0.11802133633E+02  0.20621613802E+02  0.51100000000E-03 0.  1.
        -12    1    3    3    0    0  0.76420645741E+00 -0.11597389621E+01  0.13470587806E+02  0.13541999181E+02  0.00000000000E+00 0.  1.
</event>
<event>
 7    1  0.5748623E-013  0.5052886E+02  0.7816164E-02  0.1300439E+00
        -11   -1    0    0    0    0  0.00000000000E+00  0.00000000000E+00  0.45593999997E+02  0.45594000000E+02  0.51100000000E-03 0. -1.
         11   -1    0    0    0    0 -0.00000000000E+00 -0.00000000000E+00 -0.45593999997E+02  0.45594000000E+02  0.51100000000E-03 0.  1.
    9900012    2    1    2    0    0 -0.27553952449E+02  0.27489848021E+02 -0.11758125613E+02  0.50528861326E+02  0.30000004485E+02 0.  0.
         12    1    1    2    0    0  0.27553952449E+02 -0.27489848021E+02  0.11758125613E+02  0.40659138674E+02  0.00000000000E+00 0. -1.
         11    1    3    3    0    0 -0.26107912527E+02  0.17925733368E+02 -0.99699723752E+01  0.33201737345E+02  0.51100000000E-03 0. -1.
        -11    1    3    3    0    0 -0.23896681912E+00  0.12567626288E+02  0.15644272498E+01  0.12666876826E+02  0.51100000000E-03 0.  1.
         12    1    3    3    0    0 -0.12070731036E+01 -0.30035116348E+01 -0.33525804875E+01  0.46602471547E+01  0.00000000000E+00 0. -1.
</event>
<event>
 7    1  0.5748623E-013  0.5052886E+02  0.7816164E-02  0.1300439E+00
        -11   -1    0    0    0    0  0.00000000000E+00  0.00000000000E+00  0.45593999997E+02  0.45594000000E+02  0.51100000000E-03 0.  1.
         11   -1    0    0    0    0 -0.00000000000E+00 -0.00000000000E+00 -0.45593999997E+02  0.45594000000E+02  0.51100000000E-03 0. -1.
    9900012    2    1    2    0    0 -0.15007379560E+02 -0.37375844615E+02 -0.55669037880E+01  0.50528860563E+02  0.30000002168E+02 0.  0.
         12    1    1    2    0    0  0.15007379560E+02  0.37375844615E+02  0.55669037880E+01  0.40659139437E+02  0.00000000000E+00 0. -1.
         11    1    3    3    0    0  0.23726561356E+01 -0.23295937283E+02  0.56890140091E+00  0.23423360990E+02  0.51100000000E-03 0. -1.
        -11    1    3    3    0    0 -0.18138159243E+02 -0.15749027833E+02 -0.41048564133E+01  0.24369541334E+02  0.51100000000E-03 0.  1.
        -12    1    3    3    0    0  0.75812354695E+00  0.16691205004E+01 -0.20309487756E+01  0.27359582392E+01  0.00000000000E+00 0.  1.
</event>
<event>
 7    1  0.5748623E-013  0.5052886E+02  0.7816164E-02  0.1300439E+00
        -11   -1    0    0    0    0  0.00000000000E+00  0.00000000000E+00  0.45593999997E+02  0.45594000000E+02  0.51100000000E-03 0. -1.
         11   -1    0    0    0    0 -0.00000000000E+00 -0.00000000000E+00 -0.45593999997E+02  0.45594000000E+02  0.51100000000E-03 0.  1.
    9900012    2    1    2    0    0 -0.14934346553E+02  0.37805892551E+02 -0.91946476371E+00  0.50528860388E+02  0.30000001635E+02 0.  0.
         12    1    1    2    0    0  0.14934346553E+02 -0.37805892551E+02  0.91946476371E+00  0.40659139612E+02  0.00000000000E+00 0. -1.
         11    1    3    3    0    0 -0.47318048661E+00  0.12629188764E+02  0.80305966498E+01  0.14973669938E+02  0.51100000000E-03 0. -1.
        -11    1    3    3    0    0 -0.13666733607E+02  0.19914289603E+02 -0.14250906661E+02  0.28043660225E+02  0.51100000000E-03 0.  1.
        -12    1    3    3    0    0 -0.79443245926E+00  0.52624141847E+01  0.53008452476E+01  0.75115302251E+01  0.00000000000E+00 0.  1.
</event>
<event>
 7    1  0.5748623E-013  0.5052886E+02  0.7816164E-02  0.1300439E+00
        -11   -1    0    0    0    0  0.00000000000E+00  0.00000000000E+00  0.45593999997E+02  0.45594000000E+02  0.51100000000E-03 0. -1.
         11   -1    0    0    0    0 -0.00000000000E+00 -0.00000000000E+00 -0.45593999997E+02  0.45594000000E+02  0.51100000000E-03 0.  1.
    9900012    2    1    2    0    0 -0.33264035022E+02 -0.13718326590E+02 -0.18933490099E+02  0.50528861326E+02  0.30000004486E+02 0.  0.
         12    1    1    2    0    0  0.33264035022E+02  0.13718326590E+02  0.18933490099E+02  0.40659138674E+02  0.00000000000E+00 0. -1.
         11    1    3    3    0    0 -0.17206702256E+02 -0.10137247421E+02  0.35718779323E+01  0.20287747535E+02  0.51100000000E-03 0.  1.
        -11    1    3    3    0    0 -0.61549410717E+01  0.42670962905E+01 -0.96563876980E+01  0.12220361451E+02  0.51100000000E-03 0. -1.
         12    1    3    3    0    0 -0.99023916938E+01 -0.78481754593E+01 -0.12848980334E+02  0.18020752340E+02  0.00000000000E+00 0. -1.
</event>
<event>
 7    1  0.5748623E-013  0.5052887E+02  0.7816164E-02  0.1300439E+00
        -11   -1    0    0    0    0  0.00000000000E+00  0.00000000000E+00  0.45593999997E+02  0.45594000000E+02  0.51100000000E-03 0.  1.
         11   -1    0    0    0    0 -0.00000000000E+00 -0.00000000000E+00 -0.45593999997E+02  0.45594000000E+02  0.51100000000E-03 0. -1.
    9900012    2    1    2    0    0  0.33105960876E+01 -0.38829403304E+02  0.11596659467E+02  0.50528866731E+02  0.30000020916E+02 0.  0.
         12    1    1    2    0    0 -0.33105960876E+01  0.38829403304E+02 -0.11596659467E+02  0.40659133269E+02  0.00000000000E+00 0. -1.
         11    1    3    3    0    0 -0.57380206471E+01 -0.17641316032E+02 -0.44803709969E+01  0.19084408212E+02  0.51100000000E-03 0. -1.
        -11    1    3    3    0    0  0.10398540657E+02 -0.13925403459E+02  0.49180466723E+01  0.18061940444E+02  0.51100000000E-03 0.  1.
         12    1    3    3    0    0 -0.13499239221E+01 -0.72626838133E+01  0.11158983791E+02  0.13382518075E+02  0.00000000000E+00 0. -1.
</event>
<event>
 7    1  0.5748623E-013  0.5052886E+02  0.7816164E-02  0.1300439E+00
        -11   -1    0    0    0    0  0.00000000000E+00  0.00000000000E+00  0.45593999997E+02  0.45594000000E+02  0.51100000000E-03 0.  1.
         11   -1    0    0    0    0 -0.00000000000E+00 -0.00000000000E+00 -0.45593999997E+02  0.45594000000E+02  0.51100000000E-03 0. -1.
    9900012    2    1    2    0    0  0.33883235227E+02 -0.21021260344E+02 -0.79497506629E+01  0.50528861402E+02  0.30000004718E+02 0.  0.
         12    1    1    2    0    0 -0.33883235227E+02  0.21021260344E+02  0.79497506629E+01  0.40659138598E+02  0.00000000000E+00 0. -1.
         11    1    3    3    0    0  0.73867580381E+01  0.99589270775E+00 -0.86322027069E+00  0.75034089650E+01  0.51100000000E-03 0. -1.
        -11    1    3    3    0    0  0.12352193586E+02 -0.24416818165E+02 -0.83507605119E+00  0.27376176650E+02  0.51100000000E-03 0.  1.
        -12    1    3    3    0    0  0.14144283602E+02  0.23996651133E+01 -0.62514543410E+01  0.15649275787E+02  0.00000000000E+00 0.  1.
</event>
<event>
 7    1  0.5748623E-013  0.5052886E+02  0.7816164E-02  0.1300439E+00
        -11   -1    0    0    0    0  0.00000000000E+00  0.00000000000E+00  0.45593999997E+02  0.45594000000E+02  0.51100000000E-03 0. -1.
         11   -1    0    0    0    0 -0.00000000000E+00 -0.00000000000E+00 -0.45593999997E+02  0.45594000000E+02  0.51100000000E-03 0.  1.
    9900012    2    1    2    0    0  0.23741692931E+02  0.32086563035E+02 -0.77427418934E+01  0.50528861265E+02  0.30000004300E+02 0.  0.
         12    1    1    2    0    0 -0.23741692931E+02 -0.32086563035E+02  0.77427418934E+01  0.40659138735E+02  0.00000000000E+00 0. -1.
         11    1    3    3    0    0  0.20796608930E+02  0.21188229961E+02 -0.13525839005E+02  0.32624965178E+02  0.51100000000E-03 0.  1.
        -11    1    3    3    0    0 -0.15898293330E+01  0.47519568908E+01 -0.33274407518E+01  0.60150240081E+01  0.51100000000E-03 0. -1.
         12    1    3    3    0    0  0.45349133350E+01  0.61463761840E+01  0.91105378629E+01  0.11888872079E+02  0.00000000000E+00 0. -1.
</event>
<event>
 7    1  0.5748623E-013  0.5052885E+02  0.7816164E-02  0.1300439E+00
        -11   -1    0    0    0    0  0.00000000000E+00  0.00000000000E+00  0.45593999997E+02  0.45594000000E+02  0.51100000000E-03 0.  1.
         11   -1    0    0    0    0 -0.00000000000E+00 -0.00000000000E+00 -0.45593999997E+02  0.45594000000E+02  0.51100000000E-03 0. -1.
    9900012    2    1    2    0    0  0.30759805494E+01  0.84276220801E+01  0.39657024856E+02  0.50528854771E+02  0.29999984563E+02 0.  0.
         12    1    1    2    0    0 -0.30759805494E+01 -0.84276220801E+01 -0.39657024856E+02  0.40659145229E+02  0.00000000000E+00 0. -1.
         11    1    3    3    0    0 -0.46481494330E+01  0.11970845488E+02  0.19323392142E+02  0.23201291321E+02  0.51100000000E-03 0. -1.
        -11    1    3    3    0    0  0.12124289167E+02 -0.39890099178E+01  0.10436844253E+02  0.16487519709E+02  0.51100000000E-03 0.  1.
         12    1    3    3    0    0 -0.44001591849E+01  0.44578651037E+00  0.98967884609E+01  0.10840043741E+02  0.00000000000E+00 0. -1.
</event>
<event>
 7    1  0.5748623E-013  0.5052886E+02  0.7816164E-02  0.1300439E+00
        -11   -1    0    0    0    0  0.00000000000E+00  0.00000000000E+00  0.45593999997E+02  0.45594000000E+02  0.51100000000E-03 0.  1.
         11   -1    0    0    0    0 -0.00000000000E+00 -0.00000000000E+00 -0.45593999997E+02  0.45594000000E+02  0.51100000000E-03 0. -1.
    9900012    2    1    2    0    0  0.11571816284E+02 -0.88964618160E+01  0.37948802743E+02  0.50528860872E+02  0.30000003108E+02 0.  0.
         12    1    1    2    0    0 -0.11571816284E+02  0.88964618160E+01 -0.37948802743E+02  0.40659139128E+02  0.00000000000E+00 0. -1.
         11    1    3    3    0    0  0.14669213967E+01  0.22595364812E+01  0.73997068861E+01  0.78748349669E+01  0.51100000000E-03 0. -1.
        -11    1    3    3    0    0  0.15616943395E+02 -0.50996772555E+01  0.30292867368E+02  0.34460897300E+02  0.51100000000E-03 0.  1.
        -12    1    3    3    0    0 -0.55120485073E+01 -0.60563210417E+01  0.25622848929E+00  0.81931286055E+01  0.00000000000E+00 0.  1.
</event>
<event>
 7    1  0.5748623E-013  0.5052887E+02  0.7816164E-02  0.1300439E+00
        -11   -1    0    0    0    0  0.00000000000E+00  0.00000000000E+00  0.45593999997E+02  0.45594000000E+02  0.51100000000E-03 0.  1.
         11   -1    0    0    0    0 -0.00000000000E+00 -0.00000000000E+00 -0.45593999997E+02  0.45594000000E+02  0.51100000000E-03 0. -1.
    9900012    2    1    2    0    0  0.30991348653E+02 -0.10074790332E+02  0.24314593067E+02  0.50528873994E+02  0.30000042993E+02 0.  0.
         12    1    1    2    0    0 -0.30991348653E+02  0.10074790332E+02 -0.24314593067E+02  0.40659126006E+02  0.00000000000E+00 0. -1.
         11    1    3    3    0    0  0.62057597418E+01  0.63007033803E+01  0.21620584668E+01  0.91041097387E+01  0.51100000000E-03 0. -1.
        -11    1    3    3    0    0  0.18582449863E+02 -0.38291994620E+01  0.19448180025E+02  0.27169871512E+02  0.51100000000E-03 0.  1.
        -12    1    3    3    0    0  0.62031390479E+01 -0.12546294250E+02  0.27043545755E+01  0.14254892744E+02  0.00000000000E+00 0.  1.
</event>
<event>
 7    1  0.5748623E-013  0.5052888E+02  0.7816164E-02  0.1300439E+00
        -11   -1    0    0    0    0  0.00000000000E+00  0.00000000000E+00  0.45593999997E+02  0.45594000000E+02  0.51100000000E-03 0.  1.
         11   -1    0    0    0    0 -0.00000000000E+00 -0.00000000000E+00 -0.45593999997E+02  0.45594000000E+02  0.51100000000E-03 0. -1.
    9900012    2    1    2    0    0 -0.20120066761E+02  0.34929097361E+02  0.53202425436E+01  0.50528881593E+02  0.30000066090E+02 0.  0.
         12    1    1    2    0    0  0.20120066761E+02 -0.34929097361E+02 -0.53202425436E+01  0.40659118407E+02  0.00000000000E+00 0. -1.
         11    1    3    3    0    0  0.22908866559E+01  0.21657298133E+01 -0.70872204428E+01  0.77567545508E+01  0.51100000000E-03 0. -1.
        -11    1    3    3    0    0 -0.14212362736E+02  0.26935953103E+02  0.11909272849E+02  0.32701186586E+02  0.51100000000E-03 0.  1.
        -12    1    3    3    0    0 -0.81985906805E+01  0.58274144444E+01  0.49819013795E+00  0.10070940456E+02  0.00000000000E+00 0.  1.
</event>
<event>
 7    1  0.5748623E-013  0.5052886E+02  0.7816164E-02  0.1300439E+00
        -11   -1    0    0    0    0  0.00000000000E+00  0.00000000000E+00  0.45593999997E+02  0.45594000000E+02  0.51100000000E-03 0.  1.
         11   -1    0    0    0    0 -0.00000000000E+00 -0.00000000000E+00 -0.45593999997E+02  0.45594000000E+02  0.51100000000E-03 0. -1.
    9900012    2    1    2    0    0  0.28801411316E+02  0.14053953711E+02  0.25022610811E+02  0.50528856373E+02  0.29999989431E+02 0.  0.
         12    1    1    2    0    0 -0.28801411316E+02 -0.14053953711E+02 -0.25022610811E+02  0.40659143627E+02  0.00000000000E+00 0. -1.
         11    1    3    3    0    0 -0.19216153083E+00  0.81220291028E+01 -0.62994040966E+00  0.81486875005E+01  0.51100000000E-03 0. -1.
        -11    1    3    3    0    0  0.28944751427E+02  0.68142391946E+01  0.27391689170E+02  0.40429409182E+02  0.51100000000E-03 0.  1.
        -12    1    3    3    0    0  0.48821419718E-01 -0.88231458656E+00 -0.17391379497E+01  0.19507596902E+01  0.00000000000E+00 0.  1.
</event>
<event>
 7    1  0.5748623E-013  0.5052885E+02  0.7816164E-02  0.1300439E+00
        -11   -1    0    0    0    0  0.00000000000E+00  0.00000000000E+00  0.45593999997E+02  0.45594000000E+02  0.51100000000E-03 0. -1.
         11   -1    0    0    0    0 -0.00000000000E+00 -0.00000000000E+00 -0.45593999997E+02  0.45594000000E+02  0.51100000000E-03 0.  1.
    9900012    2    1    2    0    0  0.48979288830E+01  0.29880417272E+02 -0.27135531302E+02  0.50528854624E+02  0.29999984115E+02 0.  0.
         12    1    1    2    0    0 -0.48979288830E+01 -0.29880417272E+02  0.27135531302E+02  0.40659145376E+02  0.00000000000E+00 0. -1.
         11    1    3    3    0    0 -0.34547545132E+01  0.18763301431E+02 -0.19889576774E+02  0.27560697993E+02  0.51100000000E-03 0. -1.
        -11    1    3    3    0    0  0.95466252457E+01  0.46530238412E+01  0.27812804083E+01  0.10978351671E+02  0.51100000000E-03 0.  1.
        -12    1    3    3    0    0 -0.11939418495E+01  0.64640919993E+01 -0.10027234936E+02  0.11989804960E+02  0.00000000000E+00 0.  1.
</event>
<event>
 7    1  0.5748623E-013  0.5052886E+02  0.7816164E-02  0.1300439E+00
        -11   -1    0    0    0    0  0.00000000000E+00  0.00000000000E+00  0.45593999997E+02  0.45594000000E+02  0.51100000000E-03 0.  1.
         11   -1    0    0    0    0 -0.00000000000E+00 -0.00000000000E+00 -0.45593999997E+02  0.45594000000E+02  0.51100000000E-03 0. -1.
    9900012    2    1    2    0    0 -0.20905681100E+02 -0.25029512168E+02  0.24282538509E+02  0.50528860091E+02  0.30000000734E+02 0.  0.
         12    1    1    2    0    0  0.20905681100E+02  0.25029512168E+02 -0.24282538509E+02  0.40659139909E+02  0.00000000000E+00 0. -1.
         11    1    3    3    0    0 -0.15215864601E+02 -0.28890059987E+02  0.27669844415E+02  0.42799280272E+02  0.51100000000E-03 0.  1.
        -11    1    3    3    0    0 -0.41425697413E+01  0.22521135401E+01 -0.23552456619E+01  0.52706813457E+01  0.51100000000E-03 0. -1.
        -12    1    3    3    0    0 -0.15472467579E+01  0.16084342787E+01 -0.10320602433E+01  0.24588984738E+01  0.00000000000E+00 0.  1.
</event>
<event>
 7    1  0.5748623E-013  0.5052886E+02  0.7816164E-02  0.1300439E+00
        -11   -1    0    0    0    0  0.00000000000E+00  0.00000000000E+00  0.45593999997E+02  0.45594000000E+02  0.51100000000E-03 0.  1.
         11   -1    0    0    0    0 -0.00000000000E+00 -0.00000000000E+00 -0.45593999997E+02  0.45594000000E+02  0.51100000000E-03 0. -1.
    9900012    2    1    2    0    0 -0.13725141219E+02 -0.36952912228E+02 -0.99633581982E+01  0.50528859204E+02  0.29999998038E+02 0.  0.
         12    1    1    2    0    0  0.13725141219E+02  0.36952912228E+02  0.99633581982E+01  0.40659140796E+02  0.00000000000E+00 0. -1.
         11    1    3    3    0    0 -0.31031299759E+01 -0.75491833604E+01 -0.37775377145E+01  0.89938521504E+01  0.51100000000E-03 0. -1.
        -11    1    3    3    0    0 -0.50765795291E+01 -0.33292065028E+01  0.89994168115E+01  0.10855633508E+02  0.51100000000E-03 0.  1.
        -12    1    3    3    0    0 -0.55454317140E+01 -0.26074522365E+02 -0.15185237295E+02  0.30679373546E+02  0.00000000000E+00 0.  1.
</event>
<event>
 7    1  0.5748623E-013  0.5052886E+02  0.7816164E-02  0.1300439E+00
        -11   -1    0    0    0    0  0.00000000000E+00  0.00000000000E+00  0.45593999997E+02  0.45594000000E+02  0.51100000000E-03 0. -1.
         11   -1    0    0    0    0 -0.00000000000E+00 -0.00000000000E+00 -0.45593999997E+02  0.45594000000E+02  0.51100000000E-03 0.  1.
    9900012    2    1    2    0    0  0.22913639967E+02  0.33587180748E+02 -0.17983317762E+00  0.50528856537E+02  0.29999989931E+02 0.  0.
         12    1    1    2    0    0 -0.22913639967E+02 -0.33587180748E+02  0.17983317762E+00  0.40659143463E+02  0.00000000000E+00 0. -1.
         11    1    3    3    0    0  0.12405589184E+02  0.69060585259E+01  0.98019424705E+00  0.14232113982E+02  0.51100000000E-03 0. -1.
        -11    1    3    3    0    0 -0.53114461242E+01  0.12775055374E+02  0.43902374356E+01  0.14515084731E+02  0.51100000000E-03 0.  1.
        -12    1    3    3    0    0  0.15819496907E+02  0.13906066848E+02 -0.55502648602E+01  0.21781657825E+02  0.00000000000E+00 0.  1.
</event>
<event>
 7    1  0.5748623E-013  0.5052881E+02  0.7816164E-02  0.1300439E+00
        -11   -1    0    0    0    0  0.00000000000E+00  0.00000000000E+00  0.45593999997E+02  0.45594000000E+02  0.51100000000E-03 0. -1.
         11   -1    0    0    0    0 -0.00000000000E+00 -0.00000000000E+00 -0.45593999997E+02  0.45594000000E+02  0.51100000000E-03 0.  1.
    9900012    2    1    2    0    0 -0.36951871139E+02 -0.16030440115E+02 -0.55456515653E+01  0.50528806178E+02  0.29999836859E+02 0.  0.
         12    1    1    2    0    0  0.36951871139E+02  0.16030440115E+02  0.55456515653E+01  0.40659193822E+02  0.00000000000E+00 0. -1.
         11    1    3    3    0    0 -0.17567733753E+02 -0.11530121945E+01  0.19592492976E+01  0.17714213626E+02  0.51100000000E-03 0. -1.
        -11    1    3    3    0    0 -0.10705695836E+02 -0.88415868530E+01 -0.14549338727E+02  0.20111410668E+02  0.51100000000E-03 0.  1.
         12    1    3    3    0    0 -0.86784415505E+01 -0.60358410675E+01  0.70444378645E+01  0.12703181883E+02  0.00000000000E+00 0. -1.
</event>
<event>
 7    1  0.5748623E-013  0.5052885E+02  0.7816164E-02  0.1300439E+00
        -11   -1    0    0    0    0  0.00000000000E+00  0.00000000000E+00  0.45593999997E+02  0.45594000000E+02  0.51100000000E-03 0.  1.
         11   -1    0    0    0    0 -0.00000000000E+00 -0.00000000000E+00 -0.45593999997E+02  0.45594000000E+02  0.51100000000E-03 0. -1.
    9900012    2    1    2    0    0  0.15518024193E+02  0.11027780182E+02  0.35926942393E+02  0.50528853424E+02  0.29999980467E+02 0.  0.
         12    1    1    2    0    0 -0.15518024193E+02 -0.11027780182E+02 -0.35926942393E+02  0.40659146576E+02  0.00000000000E+00 0. -1.
         11    1    3    3    0    0 -0.10452346458E+01  0.11323984312E+02  0.12051579322E+02  0.16570024157E+02  0.51100000000E-03 0. -1.
        -11    1    3    3    0    0  0.16782503175E+02 -0.39683302475E+01  0.10735679143E+02  0.20313908159E+02  0.51100000000E-03 0.  1.
        -12    1    3    3    0    0 -0.21924433575E+00  0.36721261180E+01  0.13139683928E+02  0.13644921108E+02  0.00000000000E+00 0.  1.
</event>
<event>
 7    1  0.5748623E-013  0.5052885E+02  0.7816164E-02  0.1300439E+00
        -11   -1    0    0    0    0  0.00000000000E+00  0.00000000000E+00  0.45593999997E+02  0.45594000000E+02  0.51100000000E-03 0. -1.
         11   -1    0    0    0    0 -0.00000000000E+00 -0.00000000000E+00 -0.45593999997E+02  0.45594000000E+02  0.51100000000E-03 0.  1.
    9900012    2    1    2    0    0  0.34639002513E+02 -0.71759834803E+01 -0.20045236078E+02  0.50528846991E+02  0.29999960912E+02 0.  0.
         12    1    1    2    0    0 -0.34639002513E+02  0.71759834803E+01  0.20045236078E+02  0.40659153009E+02  0.00000000000E+00 0. -1.
         11    1    3    3    0    0  0.88779670287E+01 -0.12283175664E+02  0.19927864591E+01  0.15286134275E+02  0.51100000000E-03 0. -1.
        -11    1    3    3    0    0  0.11291207997E+02  0.12712523837E+01 -0.14676536536E+02  0.18560931701E+02  0.51100000000E-03 0.  1.
         12    1    3    3    0    0  0.14469827488E+02  0.38359397997E+01 -0.73614860015E+01  0.16681781015E+02  0.00000000000E+00 0. -1.
</event>
<event>
 7    1  0.5748623E-013  0.5052886E+02  0.7816164E-02  0.1300439E+00
        -11   -1    0    0    0    0  0.00000000000E+00  0.00000000000E+00  0.45593999997E+02  0.45594000000E+02  0.51100000000E-03 0.  1.
         11   -1    0    0    0    0 -0.00000000000E+00 -0.00000000000E+00 -0.45593999997E+02  0.45594000000E+02  0.51100000000E-03 0. -1.
    9900012    2    1    2    0    0  0.14836247099E+02 -0.12568171269E+02  0.35708439540E+02  0.50528858206E+02  0.29999995004E+02 0.  0.
         12    1    1    2    0    0 -0.14836247099E+02  0.12568171269E+02 -0.35708439540E+02  0.40659141794E+02  0.00000000000E+00 0. -1.
         11    1    3    3    0    0 -0.38207171433E+01 -0.25030361640E+01  0.34957398999E+01  0.57518055631E+01  0.51100000000E-03 0. -1.
        -11    1    3    3    0    0  0.11327439190E+02  0.27215237513E+01  0.29579511089E+01  0.12019444461E+02  0.51100000000E-03 0.  1.
        -12    1    3    3    0    0  0.73295250522E+01 -0.12786658856E+02  0.29254748531E+02  0.32757608182E+02  0.00000000000E+00 0.  1.
</event>
<event>
 7    1  0.5748623E-013  0.5052886E+02  0.7816164E-02  0.1300439E+00
        -11   -1    0    0    0    0  0.00000000000E+00  0.00000000000E+00  0.45593999997E+02  0.45594000000E+02  0.51100000000E-03 0.  1.
         11   -1    0    0    0    0 -0.00000000000E+00 -0.00000000000E+00 -0.45593999997E+02  0.45594000000E+02  0.51100000000E-03 0. -1.
    9900012    2    1    2    0    0  0.17422894908E+02 -0.16845760152E+02  0.32647038048E+02  0.50528855944E+02  0.29999988127E+02 0.  0.
         12    1    1    2    0    0 -0.17422894908E+02  0.16845760152E+02 -0.32647038048E+02  0.40659144056E+02  0.00000000000E+00 0. -1.
         11    1    3    3    0    0  0.57035815523E+01 -0.41157307571E+01 -0.11069039908E+01  0.71200645289E+01  0.51100000000E-03 0. -1.
        -11    1    3    3    0    0  0.16043344977E+02 -0.14570283716E+02  0.31399949071E+02  0.38152835904E+02  0.51100000000E-03 0.  1.
        -12    1    3    3    0    0 -0.43240316218E+01  0.18402543217E+01  0.23539929681E+01  0.52559555105E+01  0.00000000000E+00 0.  1.
</event>
<event>
 7    1  0.5748623E-013  0.5052886E+02  0.7816164E-02  0.1300439E+00
        -11   -1    0    0    0    0  0.00000000000E+00  0.00000000000E+00  0.45593999997E+02  0.45594000000E+02  0.51100000000E-03 0.  1.
         11   -1    0    0    0    0 -0.00000000000E+00 -0.00000000000E+00 -0.45593999997E+02  0.45594000000E+02  0.51100000000E-03 0. -1.
    9900012    2    1    2    0    0  0.37176021567E+02  0.15489812557E+02 -0.55834424542E+01  0.50528859548E+02  0.29999999083E+02 0.  0.
         12    1    1    2    0    0 -0.37176021567E+02 -0.15489812557E+02  0.55834424542E+01  0.40659140452E+02  0.00000000000E+00 0. -1.
         11    1    3    3    0    0 -0.18622622848E+00 -0.11151172689E+01  0.23182271866E+01  0.25792138883E+01  0.51100000000E-03 0. -1.
        -11    1    3    3    0    0  0.17849079117E+02  0.67151018839E+01 -0.15723955663E+02  0.24716897066E+02  0.51100000000E-03 0.  1.
        -12    1    3    3    0    0  0.19513168679E+02  0.98898279425E+01  0.78222860221E+01  0.23232748594E+02  0.00000000000E+00 0.  1.
</event>
<event>
 7    1  0.5748623E-013  0.5052891E+02  0.7816164E-02  0.1300439E+00
        -11   -1    0    0    0    0  0.00000000000E+00  0.00000000000E+00  0.45593999997E+02  0.45594000000E+02  0.51100000000E-03 0.  1.
         11   -1    0    0    0    0 -0.00000000000E+00 -0.00000000000E+00 -0.45593999997E+02  0.45594000000E+02  0.51100000000E-03 0. -1.
    9900012    2    1    2    0    0  0.21773286941E+02 -0.29962246365E+02  0.16773484045E+02  0.50528905096E+02  0.30000137528E+02 0.  0.
         12    1    1    2    0    0 -0.21773286941E+02  0.29962246365E+02 -0.16773484045E+02  0.40659094904E+02  0.00000000000E+00 0. -1.
         11    1    3    3    0    0  0.19497531522E+00 -0.21514276287E+02  0.80516213970E+01  0.22972390100E+02  0.51100000000E-03 0.  1.
        -11    1    3    3    0    0  0.83753583095E+01  0.24833314491E+01  0.48193369148E+01  0.99769519623E+01  0.51100000000E-03 0. -1.
         12    1    3    3    0    0  0.13202953316E+02 -0.10931301527E+02  0.39025257329E+01  0.17579563034E+02  0.00000000000E+00 0. -1.
</event>
<event>
 7    1  0.5748623E-013  0.5052886E+02  0.7816164E-02  0.1300439E+00
        -11   -1    0    0    0    0  0.00000000000E+00  0.00000000000E+00  0.45593999997E+02  0.45594000000E+02  0.51100000000E-03 0.  1.
         11   -1    0    0    0    0 -0.00000000000E+00 -0.00000000000E+00 -0.45593999997E+02  0.45594000000E+02  0.51100000000E-03 0. -1.
    9900012    2    1    2    0    0  0.41318188457E+01 -0.98889968697E+01  0.39221188006E+02  0.50528858658E+02  0.29999996377E+02 0.  0.
         12    1    1    2    0    0 -0.41318188457E+01  0.98889968697E+01 -0.39221188006E+02  0.40659141342E+02  0.00000000000E+00 0. -1.
         11    1    3    3    0    0 -0.65612829176E+01 -0.29699152171E+00  0.16339557872E+02  0.17610218318E+02  0.51100000000E-03 0. -1.
        -11    1    3    3    0    0  0.11421541444E+02 -0.11993086021E+02  0.24757197597E+02  0.29785979158E+02  0.51100000000E-03 0.  1.
        -12    1    3    3    0    0 -0.72843968086E+00  0.24010806735E+01 -0.18755674636E+01  0.31326611818E+01  0.00000000000E+00 0.  1.
</event>
<event>
 7    1  0.5748623E-013  0.5052886E+02  0.7816164E-02  0.1300439E+00
        -11   -1    0    0    0    0  0.00000000000E+00  0.00000000000E+00  0.45593999997E+02  0.45594000000E+02  0.51100000000E-03 0.  1.
         11   -1    0    0    0    0 -0.00000000000E+00 -0.00000000000E+00 -0.45593999997E+02  0.45594000000E+02  0.51100000000E-03 0. -1.
    9900012    2    1    2    0    0  0.31036517195E+02  0.95566664339E+01  0.24465699153E+02  0.50528859478E+02  0.29999998870E+02 0.  0.
         12    1    1    2    0    0 -0.31036517195E+02 -0.95566664339E+01 -0.24465699153E+02  0.40659140522E+02  0.00000000000E+00 0. -1.
         11    1    3    3    0    0  0.30289908553E+02  0.14430757449E+02  0.11670227618E+02  0.35523506775E+02  0.51100000000E-03 0. -1.
        -11    1    3    3    0    0  0.18210452135E+01 -0.37136314937E+00  0.84643410378E+01  0.86659786363E+01  0.51100000000E-03 0.  1.
         12    1    3    3    0    0 -0.10744365713E+01 -0.45027278656E+01  0.43311304970E+01  0.63393740669E+01  0.00000000000E+00 0. -1.
</event>
<event>
 7    1  0.5748623E-013  0.5052886E+02  0.7816164E-02  0.1300439E+00
        -11   -1    0    0    0    0  0.00000000000E+00  0.00000000000E+00  0.45593999997E+02  0.45594000000E+02  0.51100000000E-03 0.  1.
         11   -1    0    0    0    0 -0.00000000000E+00 -0.00000000000E+00 -0.45593999997E+02  0.45594000000E+02  0.51100000000E-03 0. -1.
    9900012    2    1    2    0    0 -0.21911311460E+02 -0.19296375743E+02  0.28296825616E+02  0.50528855559E+02  0.29999986958E+02 0.  0.
         12    1    1    2    0    0  0.21911311460E+02  0.19296375743E+02 -0.28296825616E+02  0.40659144441E+02  0.00000000000E+00 0. -1.
         11    1    3    3    0    0 -0.19558135906E+02 -0.10895625411E+02  0.18797505442E+02  0.29233226717E+02  0.51100000000E-03 0. -1.
        -11    1    3    3    0    0  0.81116036462E+00 -0.12421337528E+02  0.10249443762E+02  0.16124475334E+02  0.51100000000E-03 0.  1.
         12    1    3    3    0    0 -0.31643359187E+01  0.40205871956E+01 -0.75012358760E+00  0.51711535077E+01  0.00000000000E+00 0. -1.
</event>
<event>
 7    1  0.5748623E-013  0.5052886E+02  0.7816164E-02  0.1300439E+00
        -11   -1    0    0    0    0  0.00000000000E+00  0.00000000000E+00  0.45593999997E+02  0.45594000000E+02  0.51100000000E-03 0.  1.
         11   -1    0    0    0    0 -0.00000000000E+00 -0.00000000000E+00 -0.45593999997E+02  0.45594000000E+02  0.51100000000E-03 0. -1.
    9900012    2    1    2    0    0 -0.84269971752E+01  0.23738062077E+02  0.31916383268E+02  0.50528863346E+02  0.30000010627E+02 0.  0.
         12    1    1    2    0    0  0.84269971752E+01 -0.23738062077E+02 -0.31916383268E+02  0.40659136654E+02  0.00000000000E+00 0. -1.
         11    1    3    3    0    0 -0.83267567708E+01  0.99170434948E+01  0.30078391507E+02  0.32747400903E+02  0.51100000000E-03 0. -1.
        -11    1    3    3    0    0 -0.49017726984E-01  0.14550701565E+02  0.43323611890E+01  0.15182050998E+02  0.51100000000E-03 0.  1.
         12    1    3    3    0    0 -0.51222677374E-01 -0.72968298293E+00 -0.24943694281E+01  0.25994114454E+01  0.00000000000E+00 0. -1.
</event>
<event>
 7    1  0.5748623E-013  0.5052884E+02  0.7816164E-02  0.1300439E+00
        -11   -1    0    0    0    0  0.00000000000E+00  0.00000000000E+00  0.45593999997E+02  0.45594000000E+02  0.51100000000E-03 0. -1.
         11   -1    0    0    0    0 -0.00000000000E+00 -0.00000000000E+00 -0.45593999997E+02  0.45594000000E+02  0.51100000000E-03 0.  1.
    9900012    2    1    2    0    0 -0.30520653184E+01 -0.40097467169E+02  0.60037513057E+01  0.50528843518E+02  0.29999950357E+02 0.  0.
         12    1    1    2    0    0  0.30520653184E+01  0.40097467169E+02 -0.60037513057E+01  0.40659156482E+02  0.00000000000E+00 0. -1.
         11    1    3    3    0    0  0.57931339117E+01 -0.24767555764E+02  0.14125861192E+02  0.29095225961E+02  0.51100000000E-03 0. -1.
        -11    1    3    3    0    0 -0.20835478309E+01 -0.47370268644E+01  0.17391999127E+01  0.54594332742E+01  0.51100000000E-03 0.  1.
         12    1    3    3    0    0 -0.67616513992E+01 -0.10592884541E+02 -0.98613097991E+01  0.15974184282E+02  0.00000000000E+00 0. -1.
</event>
<event>
 7    1  0.5748623E-013  0.5052887E+02  0.7816164E-02  0.1300439E+00
        -11   -1    0    0    0    0  0.00000000000E+00  0.00000000000E+00  0.45593999997E+02  0.45594000000E+02  0.51100000000E-03 0.  1.
         11   -1    0    0    0    0 -0.00000000000E+00 -0.00000000000E+00 -0.45593999997E+02  0.45594000000E+02  0.51100000000E-03 0. -1.
    9900012    2    1    2    0    0 -0.18547678394E+01 -0.33366428089E+01  0.40479521742E+02  0.50528867822E+02  0.30000024233E+02 0.  0.
         12    1    1    2    0    0  0.18547678394E+01  0.33366428089E+01 -0.40479521742E+02  0.40659132178E+02  0.00000000000E+00 0. -1.
         11    1    3    3    0    0  0.17151639555E+01 -0.72002996156E+01  0.12527113612E+02  0.14550418470E+02  0.51100000000E-03 0.  1.
        -11    1    3    3    0    0 -0.10559766520E+02  0.62577011979E+00  0.48717733940E+01  0.11646219707E+02  0.51100000000E-03 0. -1.
        -12    1    3    3    0    0  0.69898347251E+01  0.32378866869E+01  0.23080634737E+02  0.24332229646E+02  0.00000000000E+00 0.  1.
</event>
<event>
 7    1  0.5748623E-013  0.5052886E+02  0.7816164E-02  0.1300439E+00
        -11   -1    0    0    0    0  0.00000000000E+00  0.00000000000E+00  0.45593999997E+02  0.45594000000E+02  0.51100000000E-03 0.  1.
         11   -1    0    0    0    0 -0.00000000000E+00 -0.00000000000E+00 -0.45593999997E+02  0.45594000000E+02  0.51100000000E-03 0. -1.
    9900012    2    1    2    0    0  0.17460386076E+02 -0.17163509143E+02  0.32460967066E+02  0.50528861902E+02  0.30000006236E+02 0.  0.
         12    1    1    2    0    0 -0.17460386076E+02  0.17163509143E+02 -0.32460967066E+02  0.40659138098E+02  0.00000000000E+00 0. -1.
         11    1    3    3    0    0  0.12456223341E+02 -0.74452063374E+01 -0.91468703731E+00  0.14540469386E+02  0.51100000000E-03 0. -1.
        -11    1    3    3    0    0  0.54921568650E+01 -0.52760571160E+01  0.12480271779E+02  0.14620456548E+02  0.51100000000E-03 0.  1.
         12    1    3    3    0    0 -0.48799413038E+00 -0.44422456901E+01  0.20895382324E+02  0.21367935968E+02  0.00000000000E+00 0. -1.
</event>
<event>
 7    1  0.5748623E-013  0.5052887E+02  0.7816164E-02  0.1300439E+00
        -11   -1    0    0    0    0  0.00000000000E+00  0.00000000000E+00  0.45593999997E+02  0.45594000000E+02  0.51100000000E-03 0.  1.
         11   -1    0    0    0    0 -0.00000000000E+00 -0.00000000000E+00 -0.45593999997E+02  0.45594000000E+02  0.51100000000E-03 0. -1.
    9900012    2    1    2    0    0  0.40287368569E+02  0.54855495284E+01 -0.43828417016E-01  0.50528865224E+02  0.30000016334E+02 0.  0.
         12    1    1    2    0    0 -0.40287368569E+02 -0.54855495284E+01  0.43828417016E-01  0.40659134776E+02  0.00000000000E+00 0. -1.
         11    1    3    3    0    0  0.17633447435E+01  0.81564886505E+01  0.33883722162E+01  0.90065952683E+01  0.51100000000E-03 0. -1.
        -11    1    3    3    0    0  0.23237685856E+02 -0.78463255927E+01 -0.58206024606E+01  0.25207821852E+02  0.51100000000E-03 0.  1.
        -12    1    3    3    0    0  0.15286337969E+02  0.51753864705E+01  0.23884018274E+01  0.16314448103E+02  0.00000000000E+00 0.  1.
</event>
<event>
 7    1  0.5748623E-013  0.5052886E+02  0.7816164E-02  0.1300439E+00
        -11   -1    0    0    0    0  0.00000000000E+00  0.00000000000E+00  0.45593999997E+02  0.45594000000E+02  0.51100000000E-03 0.  1.
         11   -1    0    0    0    0 -0.00000000000E+00 -0.00000000000E+00 -0.45593999997E+02  0.45594000000E+02  0.51100000000E-03 0. -1.
    9900012    2    1    2    0    0 -0.25744751299E+02 -0.50912911436E+01  0.31055626133E+02  0.50528863518E+02  0.30000011149E+02 0.  0.
         12    1    1    2    0    0  0.25744751299E+02  0.50912911436E+01 -0.31055626133E+02  0.40659136482E+02  0.00000000000E+00 0. -1.
         11    1    3    3    0    0 -0.26858999933E+02 -0.13080895945E+01  0.14206314851E+02  0.30412766360E+02  0.51100000000E-03 0. -1.
        -11    1    3    3    0    0  0.21470429582E+01 -0.38805997114E+01  0.14269214050E+01  0.46588574287E+01  0.51100000000E-03 0.  1.
         12    1    3    3    0    0 -0.10327943249E+01  0.97398162274E-01  0.15422389877E+02  0.15457239729E+02  0.00000000000E+00 0. -1.
</event>
<event>
 7    1  0.5748623E-013  0.5052887E+02  0.7816164E-02  0.1300439E+00
        -11   -1    0    0    0    0  0.00000000000E+00  0.00000000000E+00  0.45593999997E+02  0.45594000000E+02  0.51100000000E-03 0.  1.
         11   -1    0    0    0    0 -0.00000000000E+00 -0.00000000000E+00 -0.45593999997E+02  0.45594000000E+02  0.51100000000E-03 0. -1.
    9900012    2    1    2    0    0 -0.34322907768E+02  0.17951087279E+02  0.12363724885E+02  0.50528865415E+02  0.30000016915E+02 0.  0.
         12    1    1    2    0    0  0.34322907768E+02 -0.17951087279E+02 -0.12363724885E+02  0.40659134585E+02  0.00000000000E+00 0. -1.
         11    1    3    3    0    0 -0.23311968726E+02  0.60585899908E+01 -0.18571486013E+01  0.24157884836E+02  0.51100000000E-03 0. -1.
        -11    1    3    3    0    0 -0.41274475286E+01 -0.64244931712E+00  0.10923807879E+02  0.11695218812E+02  0.51100000000E-03 0.  1.
         12    1    3    3    0    0 -0.68834915142E+01  0.12534946606E+02  0.32970656070E+01  0.14675761767E+02  0.00000000000E+00 0. -1.
</event>
<event>
 7    1  0.5748623E-013  0.5052881E+02  0.7816164E-02  0.1300439E+00
        -11   -1    0    0    0    0  0.00000000000E+00  0.00000000000E+00  0.45593999997E+02  0.45594000000E+02  0.51100000000E-03 0.  1.
         11   -1    0    0    0    0 -0.00000000000E+00 -0.00000000000E+00 -0.45593999997E+02  0.45594000000E+02  0.51100000000E-03 0. -1.
    9900012    2    1    2    0    0 -0.35913582762E+02 -0.14650846394E+02  0.12195779366E+02  0.50528809634E+02  0.29999847365E+02 0.  0.
         12    1    1    2    0    0  0.35913582762E+02  0.14650846394E+02 -0.12195779366E+02  0.40659190366E+02  0.00000000000E+00 0. -1.
         11    1    3    3    0    0 -0.18520814403E+02 -0.33475417345E-01  0.18200426528E+02  0.25966848342E+02  0.51100000000E-03 0. -1.
        -11    1    3    3    0    0 -0.82700501870E+01 -0.91987840909E+01  0.70963229744E-03  0.12369776053E+02  0.51100000000E-03 0.  1.
         12    1    3    3    0    0 -0.91227181720E+01 -0.54185868855E+01 -0.60053567943E+01  0.12192185239E+02  0.00000000000E+00 0. -1.
</event>
<event>
 7    1  0.5748623E-013  0.5052886E+02  0.7816164E-02  0.1300439E+00
        -11   -1    0    0    0    0  0.00000000000E+00  0.00000000000E+00  0.45593999997E+02  0.45594000000E+02  0.51100000000E-03 0. -1.
         11   -1    0    0    0    0 -0.00000000000E+00 -0.00000000000E+00 -0.45593999997E+02  0.45594000000E+02  0.51100000000E-03 0.  1.
    9900012    2    1    2    0    0  0.61761772712E+01 -0.84172775562E+01 -0.39295926397E+02  0.50528861316E+02  0.30000004455E+02 0.  0.
         12    1    1    2    0    0 -0.61761772712E+01  0.84172775562E+01  0.39295926397E+02  0.40659138684E+02  0.00000000000E+00 0. -1.
         11    1    3    3    0    0 -0.60231287491E+00 -0.67410447249E+01 -0.12182335438E+01  0.68766676531E+01  0.51100000000E-03 0. -1.
        -11    1    3    3    0    0 -0.29066227280E+00  0.72662937305E+01 -0.26195725590E+02  0.27186385353E+02  0.51100000000E-03 0.  1.
        -12    1    3    3    0    0  0.70691524189E+01 -0.89425265617E+01 -0.11881967264E+02  0.16465808310E+02  0.00000000000E+00 0.  1.
</event>
<event>
 7    1  0.5748623E-013  0.5052886E+02  0.7816164E-02  0.1300439E+00
        -11   -1    0    0    0    0  0.00000000000E+00  0.00000000000E+00  0.45593999997E+02  0.45594000000E+02  0.51100000000E-03 0.  1.
         11   -1    0    0    0    0 -0.00000000000E+00 -0.00000000000E+00 -0.45593999997E+02  0.45594000000E+02  0.51100000000E-03 0. -1.
    9900012    2    1    2    0    0 -0.65509972668E+01  0.41552857024E+01  0.39912200258E+02  0.50528859651E+02  0.29999999396E+02 0.  0.
         12    1    1    2    0    0  0.65509972668E+01 -0.41552857024E+01 -0.39912200258E+02  0.40659140349E+02  0.00000000000E+00 0. -1.
         11    1    3    3    0    0  0.62278164561E+01 -0.41428992172E+01  0.71918459802E+00  0.75144220325E+01  0.51100000000E-03 0. -1.
        -11    1    3    3    0    0 -0.92206742092E+01  0.70005907083E+01  0.36693793905E+02  0.38476793195E+02  0.51100000000E-03 0.  1.
        -12    1    3    3    0    0 -0.35581395137E+01  0.12975942112E+01  0.24992217548E+01  0.45376444236E+01  0.00000000000E+00 0.  1.
</event>
<event>
 7    1  0.5748623E-013  0.5052886E+02  0.7816164E-02  0.1300439E+00
        -11   -1    0    0    0    0  0.00000000000E+00  0.00000000000E+00  0.45593999997E+02  0.45594000000E+02  0.51100000000E-03 0.  1.
         11   -1    0    0    0    0 -0.00000000000E+00 -0.00000000000E+00 -0.45593999997E+02  0.45594000000E+02  0.51100000000E-03 0. -1.
    9900012    2    1    2    0    0 -0.20456328785E+02  0.32825321337E+02 -0.12538049721E+02  0.50528858358E+02  0.29999995466E+02 0.  0.
         12    1    1    2    0    0  0.20456328785E+02 -0.32825321337E+02  0.12538049721E+02  0.40659141642E+02  0.00000000000E+00 0. -1.
         11    1    3    3    0    0 -0.15264534085E+01 -0.68668120767E+00 -0.40604930895E+01  0.43919466618E+01  0.51100000000E-03 0. -1.
        -11    1    3    3    0    0 -0.21467816069E+02  0.30213452168E+02 -0.13650519077E+02  0.39497550431E+02  0.51100000000E-03 0.  1.
        -12    1    3    3    0    0  0.25379406925E+01  0.32985503764E+01  0.51729624462E+01  0.66393612655E+01  0.00000000000E+00 0.  1.
</event>
<event>
 7    1  0.5748623E-013  0.5052885E+02  0.7816164E-02  0.1300439E+00
        -11   -1    0    0    0    0  0.00000000000E+00  0.00000000000E+00  0.45593999997E+02  0.45594000000E+02  0.51100000000E-03 0. -1.
         11   -1    0    0    0    0 -0.00000000000E+00 -0.00000000000E+00 -0.45593999997E+02  0.45594000000E+02  0.51100000000E-03 0.  1.
    9900012    2    1    2    0    0 -0.12282761419E+02  0.27778927287E+02 -0.27030191155E+02  0.50528852651E+02  0.29999978119E+02 0.  0.
         12    1    1    2    0    0  0.12282761419E+02 -0.27778927287E+02  0.27030191155E+02  0.40659147349E+02  0.00000000000E+00 0. -1.
         11    1    3    3    0    0  0.57968116778E+00 -0.68750360152E+00 -0.13084012779E+00  0.90874135954E+00  0.51100000000E-03 0. -1.
        -11    1    3    3    0    0 -0.90631686645E+00  0.14324776892E+01  0.55041760532E+01  0.57592844068E+01  0.51100000000E-03 0.  1.
        -12    1    3    3    0    0 -0.11956125720E+02  0.27033953199E+02 -0.32403527080E+02  0.43860826885E+02  0.00000000000E+00 0.  1.
</event>
<event>
 7    1  0.5748623E-013  0.5052886E+02  0.7816164E-02  0.1300439E+00
        -11   -1    0    0    0    0  0.00000000000E+00  0.00000000000E+00  0.45593999997E+02  0.45594000000E+02  0.51100000000E-03 0.  1.
         11   -1    0    0    0    0 -0.00000000000E+00 -0.00000000000E+00 -0.45593999997E+02  0.45594000000E+02  0.51100000000E-03 0. -1.
    9900012    2    1    2    0    0  0.28278050010E+01 -0.19584169187E+01  0.40513375023E+02  0.50528862851E+02  0.30000009121E+02 0.  0.
         12    1    1    2    0    0 -0.28278050010E+01  0.19584169187E+01 -0.40513375023E+02  0.40659137149E+02  0.00000000000E+00 0. -1.
         11    1    3    3    0    0 -0.87852585048E+01 -0.77603949503E+01  0.65931768604E+01  0.13448958255E+02  0.51100000000E-03 0. -1.
        -11    1    3    3    0    0  0.17122514995E+01  0.31910726960E+01  0.16328586135E+02  0.16725354274E+02  0.51100000000E-03 0.  1.
         12    1    3    3    0    0  0.99008120064E+01  0.26109053357E+01  0.17591612028E+02  0.20354550322E+02  0.00000000000E+00 0. -1.
</event>
<event>
 7    1  0.5748623E-013  0.5052886E+02  0.7816164E-02  0.1300439E+00
        -11   -1    0    0    0    0  0.00000000000E+00  0.00000000000E+00  0.45593999997E+02  0.45594000000E+02  0.51100000000E-03 0.  1.
         11   -1    0    0    0    0 -0.00000000000E+00 -0.00000000000E+00 -0.45593999997E+02  0.45594000000E+02  0.51100000000E-03 0. -1.
    9900012    2    1    2    0    0 -0.11888922880E+02 -0.38792974113E+02  0.26313657401E+01  0.50528863100E+02  0.30000009878E+02 0.  0.
         12    1    1    2    0    0  0.11888922880E+02  0.38792974113E+02 -0.26313657401E+01  0.40659136900E+02  0.00000000000E+00 0. -1.
         11    1    3    3    0    0 -0.58643242308E+01 -0.10798861017E+02 -0.33289140018E+01  0.12731353684E+02  0.51100000000E-03 0. -1.
        -11    1    3    3    0    0 -0.61543803001E+01  0.14550401490E+01  0.54424962176E+01  0.83435186853E+01  0.51100000000E-03 0.  1.
        -12    1    3    3    0    0  0.12978165071E+00 -0.29449153246E+02  0.51778352433E+00  0.29453990730E+02  0.00000000000E+00 0.  1.
</event>
<event>
 7    1  0.5748623E-013  0.5052886E+02  0.7816164E-02  0.1300439E+00
        -11   -1    0    0    0    0  0.00000000000E+00  0.00000000000E+00  0.45593999997E+02  0.45594000000E+02  0.51100000000E-03 0.  1.
         11   -1    0    0    0    0 -0.00000000000E+00 -0.00000000000E+00 -0.45593999997E+02  0.45594000000E+02  0.51100000000E-03 0. -1.
    9900012    2    1    2    0    0  0.25111204543E+02 -0.26492179214E+02  0.17909712908E+02  0.50528856262E+02  0.29999989093E+02 0.  0.
         12    1    1    2    0    0 -0.25111204543E+02  0.26492179214E+02 -0.17909712908E+02  0.40659143738E+02  0.00000000000E+00 0. -1.
         11    1    3    3    0    0  0.12059528029E+02 -0.94799382956E+01 -0.25189024314E+01  0.15544977198E+02  0.51100000000E-03 0. -1.
        -11    1    3    3    0    0 -0.30247834993E+01 -0.10129205412E+02  0.10375864173E+02  0.14812450003E+02  0.51100000000E-03 0.  1.
        -12    1    3    3    0    0  0.16076460013E+02 -0.68830355062E+01  0.10052751166E+02  0.20171429060E+02  0.00000000000E+00 0.  1.
</event>
<event>
 7    1  0.5748623E-013  0.5052885E+02  0.7816164E-02  0.1300439E+00
        -11   -1    0    0    0    0  0.00000000000E+00  0.00000000000E+00  0.45593999997E+02  0.45594000000E+02  0.51100000000E-03 0.  1.
         11   -1    0    0    0    0 -0.00000000000E+00 -0.00000000000E+00 -0.45593999997E+02  0.45594000000E+02  0.51100000000E-03 0. -1.
    9900012    2    1    2    0    0 -0.27524066263E+02  0.29539099407E+02 -0.47993947608E+01  0.50528845957E+02  0.29999957769E+02 0.  0.
         12    1    1    2    0    0  0.27524066263E+02 -0.29539099407E+02  0.47993947608E+01  0.40659154043E+02  0.00000000000E+00 0. -1.
         11    1    3    3    0    0 -0.23908620096E+01  0.10649212657E+02 -0.57806775175E+01  0.12350634971E+02  0.51100000000E-03 0. -1.
        -11    1    3    3    0    0 -0.18943657743E+02  0.20346043650E+01  0.51673555706E+01  0.19740905437E+02  0.51100000000E-03 0.  1.
        -12    1    3    3    0    0 -0.61895465105E+01  0.16855282386E+02 -0.41860728140E+01  0.18437305549E+02  0.00000000000E+00 0.  1.
</event>
<event>
 7    1  0.5748623E-013  0.5052887E+02  0.7816164E-02  0.1300439E+00
        -11   -1    0    0    0    0  0.00000000000E+00  0.00000000000E+00  0.45593999997E+02  0.45594000000E+02  0.51100000000E-03 0. -1.
         11   -1    0    0    0    0 -0.00000000000E+00 -0.00000000000E+00 -0.45593999997E+02  0.45594000000E+02  0.51100000000E-03 0.  1.
    9900012    2    1    2    0    0 -0.90486418654E+01 -0.39382732732E+02  0.45041810814E+01  0.50528865672E+02  0.30000017697E+02 0.  0.
         12    1    1    2    0    0  0.90486418654E+01  0.39382732732E+02 -0.45041810814E+01  0.40659134328E+02  0.00000000000E+00 0. -1.
         11    1    3    3    0    0 -0.99818253987E+01 -0.50516641844E+01 -0.44355305768E+01  0.12034537011E+02  0.51100000000E-03 0. -1.
        -11    1    3    3    0    0 -0.65427759928E+00 -0.20524028479E+02 -0.22421367910E+01  0.20656500232E+02  0.51100000000E-03 0.  1.
         12    1    3    3    0    0  0.15874611326E+01 -0.13807040069E+02  0.11181848449E+02  0.17837828429E+02  0.00000000000E+00 0. -1.
</event>
<event>
 7    1  0.5748623E-013  0.5052886E+02  0.7816164E-02  0.1300439E+00
        -11   -1    0    0    0    0  0.00000000000E+00  0.00000000000E+00  0.45593999997E+02  0.45594000000E+02  0.51100000000E-03 0.  1.
         11   -1    0    0    0    0 -0.00000000000E+00 -0.00000000000E+00 -0.45593999997E+02  0.45594000000E+02  0.51100000000E-03 0. -1.
    9900012    2    1    2    0    0 -0.14387070970E+01  0.19440587233E+02  0.35681359998E+02  0.50528858821E+02  0.29999996874E+02 0.  0.
         12    1    1    2    0    0  0.14387070970E+01 -0.19440587233E+02 -0.35681359998E+02  0.40659141179E+02  0.00000000000E+00 0. -1.
         11    1    3    3    0    0  0.98009343315E+01 -0.11579203802E+01  0.11854012850E+02  0.15424549079E+02  0.51100000000E-03 0.  1.
        -11    1    3    3    0    0 -0.38493270447E+01  0.14704640333E+00  0.22063901423E+01  0.44392678521E+01  0.51100000000E-03 0. -1.
         12    1    3    3    0    0 -0.73903143838E+01  0.20451461209E+02  0.21620957006E+02  0.30665041891E+02  0.00000000000E+00 0. -1.
</event>
<event>
 7    1  0.5748623E-013  0.5052880E+02  0.7816164E-02  0.1300439E+00
        -11   -1    0    0    0    0  0.00000000000E+00  0.00000000000E+00  0.45593999997E+02  0.45594000000E+02  0.51100000000E-03 0.  1.
         11   -1    0    0    0    0 -0.00000000000E+00 -0.00000000000E+00 -0.45593999997E+02  0.45594000000E+02  0.51100000000E-03 0. -1.
    9900012    2    1    2    0    0 -0.32391000251E+02  0.75246333510E+01  0.23396008515E+02  0.50528804007E+02  0.29999830260E+02 0.  0.
         12    1    1    2    0    0  0.32391000251E+02 -0.75246333510E+01 -0.23396008515E+02  0.40659195993E+02  0.00000000000E+00 0. -1.
         11    1    3    3    0    0  0.15308178756E+01 -0.16222892250E+01  0.32112299557E+01  0.39098879507E+01  0.51100000000E-03 0. -1.
        -11    1    3    3    0    0 -0.18158586669E+02  0.14086535146E+02  0.19409883971E+02  0.30081694404E+02  0.51100000000E-03 0.  1.
        -12    1    3    3    0    0 -0.15763231458E+02 -0.49396125699E+01  0.77489458831E+00  0.16537221652E+02  0.00000000000E+00 0.  1.
</event>
<event>
 7    1  0.5748623E-013  0.5052886E+02  0.7816164E-02  0.1300439E+00
        -11   -1    0    0    0    0  0.00000000000E+00  0.00000000000E+00  0.45593999997E+02  0.45594000000E+02  0.51100000000E-03 0.  1.
         11   -1    0    0    0    0 -0.00000000000E+00 -0.00000000000E+00 -0.45593999997E+02  0.45594000000E+02  0.51100000000E-03 0. -1.
    9900012    2    1    2    0    0  0.31736675221E+02 -0.23301815574E+02 -0.10147626842E+02  0.50528862114E+02  0.30000006880E+02 0.  0.
         12    1    1    2    0    0 -0.31736675221E+02  0.23301815574E+02  0.10147626842E+02  0.40659137886E+02  0.00000000000E+00 0. -1.
         11    1    3    3    0    0  0.58753901238E+01 -0.75590220570E+01 -0.53193748982E+01  0.10952386641E+02  0.51100000000E-03 0. -1.
        -11    1    3    3    0    0  0.11953416356E+02  0.54112409713E+01  0.21958799122E+01  0.13303667925E+02  0.51100000000E-03 0.  1.
        -12    1    3    3    0    0  0.13907868741E+02 -0.21154034489E+02 -0.70241318564E+01  0.26272807547E+02  0.00000000000E+00 0.  1.
</event>
<event>
 7    1  0.5748623E-013  0.5052886E+02  0.7816164E-02  0.1300439E+00
        -11   -1    0    0    0    0  0.00000000000E+00  0.00000000000E+00  0.45593999997E+02  0.45594000000E+02  0.51100000000E-03 0.  1.
         11   -1    0    0    0    0 -0.00000000000E+00 -0.00000000000E+00 -0.45593999997E+02  0.45594000000E+02  0.51100000000E-03 0. -1.
    9900012    2    1    2    0    0  0.34947584674E+02  0.20779492784E+02 -0.21106214555E+00  0.50528861517E+02  0.30000005067E+02 0.  0.
         12    1    1    2    0    0 -0.34947584674E+02 -0.20779492784E+02  0.21106214555E+00  0.40659138483E+02  0.00000000000E+00 0. -1.
         11    1    3    3    0    0  0.17968434824E+02  0.18886582277E+02 -0.11900641600E+02  0.28656463684E+02  0.51100000000E-03 0. -1.
        -11    1    3    3    0    0  0.94806914808E+01  0.43194051206E+01  0.81758734715E+01  0.13243325822E+02  0.51100000000E-03 0.  1.
        -12    1    3    3    0    0  0.74984583695E+01 -0.24264946133E+01  0.35137059828E+01  0.86290720104E+01  0.00000000000E+00 0.  1.
</event>
<event>
 7    1  0.5748623E-013  0.5052890E+02  0.7816164E-02  0.1300439E+00
        -11   -1    0    0    0    0  0.00000000000E+00  0.00000000000E+00  0.45593999997E+02  0.45594000000E+02  0.51100000000E-03 0.  1.
         11   -1    0    0    0    0 -0.00000000000E+00 -0.00000000000E+00 -0.45593999997E+02  0.45594000000E+02  0.51100000000E-03 0. -1.
    9900012    2    1    2    0    0 -0.29255661536E+02 -0.20286010088E+02  0.19640434378E+02  0.50528897701E+02  0.30000115051E+02 0.  0.
         12    1    1    2    0    0  0.29255661536E+02  0.20286010088E+02 -0.19640434378E+02  0.40659102299E+02  0.00000000000E+00 0. -1.
         11    1    3    3    0    0  0.13342855094E+01 -0.34460372679E+00 -0.52381354089E+01  0.54163763138E+01  0.51100000000E-03 0. -1.
        -11    1    3    3    0    0 -0.15282356862E+02 -0.15254139359E+02  0.13383046612E+02  0.25403644143E+02  0.51100000000E-03 0.  1.
         12    1    3    3    0    0 -0.15307590183E+02 -0.46872670026E+01  0.11495523175E+02  0.19708877245E+02  0.00000000000E+00 0. -1.
</event>
<event>
 7    1  0.5748623E-013  0.5052884E+02  0.7816164E-02  0.1300439E+00
        -11   -1    0    0    0    0  0.00000000000E+00  0.00000000000E+00  0.45593999997E+02  0.45594000000E+02  0.51100000000E-03 0. -1.
         11   -1    0    0    0    0 -0.00000000000E+00 -0.00000000000E+00 -0.45593999997E+02  0.45594000000E+02  0.51100000000E-03 0.  1.
    9900012    2    1    2    0    0  0.31144320204E+02 -0.11779301201E+02 -0.23333377028E+02  0.50528842344E+02  0.29999946789E+02 0.  0.
         12    1    1    2    0    0 -0.31144320204E+02  0.11779301201E+02  0.23333377028E+02  0.40659157656E+02  0.00000000000E+00 0. -1.
         11    1    3    3    0    0  0.93300295209E+01  0.40524679856E+01 -0.52411326232E+01  0.11442963736E+02  0.51100000000E-03 0. -1.
        -11    1    3    3    0    0  0.23829263817E+02 -0.12660038254E+02 -0.21115254467E+02  0.34263163224E+02  0.51100000000E-03 0.  1.
         12    1    3    3    0    0 -0.20149731335E+01 -0.31717309324E+01  0.30230100621E+01  0.48227153837E+01  0.00000000000E+00 0. -1.
</event>
<event>
 7    1  0.5748623E-013  0.5052885E+02  0.7816164E-02  0.1300439E+00
        -11   -1    0    0    0    0  0.00000000000E+00  0.00000000000E+00  0.45593999997E+02  0.45594000000E+02  0.51100000000E-03 0. -1.
         11   -1    0    0    0    0 -0.00000000000E+00 -0.00000000000E+00 -0.45593999997E+02  0.45594000000E+02  0.51100000000E-03 0.  1.
    9900012    2    1    2    0    0  0.97404109658E+01  0.32201121821E+02 -0.22833715592E+02  0.50528850721E+02  0.29999972253E+02 0.  0.
         12    1    1    2    0    0 -0.97404109658E+01 -0.32201121821E+02  0.22833715592E+02  0.40659149279E+02  0.00000000000E+00 0. -1.
         11    1    3    3    0    0 -0.23694734564E+01 -0.23900562832E+01 -0.72569950113E+01  0.79994218762E+01  0.51100000000E-03 0. -1.
        -11    1    3    3    0    0  0.14919825722E+02  0.23200369658E+02 -0.86652027487E+01  0.28912697743E+02  0.51100000000E-03 0.  1.
         12    1    3    3    0    0 -0.28099412996E+01  0.11390808446E+02 -0.69115178321E+01  0.13616731102E+02  0.00000000000E+00 0. -1.
</event>
<event>
 7    1  0.5748623E-013  0.5052887E+02  0.7816164E-02  0.1300439E+00
        -11   -1    0    0    0    0  0.00000000000E+00  0.00000000000E+00  0.45593999997E+02  0.45594000000E+02  0.51100000000E-03 0.  1.
         11   -1    0    0    0    0 -0.00000000000E+00 -0.00000000000E+00 -0.45593999997E+02  0.45594000000E+02  0.51100000000E-03 0. -1.
    9900012    2    1    2    0    0 -0.16742294866E+02  0.19193410085E+02  0.31693423265E+02  0.50528874255E+02  0.30000043785E+02 0.  0.
         12    1    1    2    0    0  0.16742294866E+02 -0.19193410085E+02 -0.31693423265E+02  0.40659125745E+02  0.00000000000E+00 0. -1.
         11    1    3    3    0    0 -0.29260697201E+01  0.14414521472E+02  0.15640551721E+01  0.14791436108E+02  0.51100000000E-03 0. -1.
        -11    1    3    3    0    0 -0.12673942097E+02  0.83871742577E+01  0.26150284734E+02  0.30245840909E+02  0.51100000000E-03 0.  1.
         12    1    3    3    0    0 -0.11422830490E+01 -0.36082856447E+01  0.39790833583E+01  0.54915972385E+01  0.00000000000E+00 0. -1.
</event>
<event>
 7    1  0.5748623E-013  0.5052887E+02  0.7816164E-02  0.1300439E+00
        -11   -1    0    0    0    0  0.00000000000E+00  0.00000000000E+00  0.45593999997E+02  0.45594000000E+02  0.51100000000E-03 0.  1.
         11   -1    0    0    0    0 -0.00000000000E+00 -0.00000000000E+00 -0.45593999997E+02  0.45594000000E+02  0.51100000000E-03 0. -1.
    9900012    2    1    2    0    0 -0.35341101972E+02  0.12926551342E+02  0.15397263259E+02  0.50528868996E+02  0.30000027799E+02 0.  0.
         12    1    1    2    0    0  0.35341101972E+02 -0.12926551342E+02 -0.15397263259E+02  0.40659131004E+02  0.00000000000E+00 0. -1.
         11    1    3    3    0    0 -0.22328456572E+02  0.14766671529E+02 -0.96491361196E+00  0.26787042007E+02  0.51100000000E-03 0.  1.
        -11    1    3    3    0    0  0.84211481819E+00 -0.22278444180E+01  0.11298243036E+00  0.23843685556E+01  0.51100000000E-03 0. -1.
         12    1    3    3    0    0 -0.13854760218E+02  0.38772423104E+00  0.16249194440E+02  0.21357458434E+02  0.00000000000E+00 0. -1.
</event>
<event>
 7    1  0.5748623E-013  0.5052886E+02  0.7816164E-02  0.1300439E+00
        -11   -1    0    0    0    0  0.00000000000E+00  0.00000000000E+00  0.45593999997E+02  0.45594000000E+02  0.51100000000E-03 0.  1.
         11   -1    0    0    0    0 -0.00000000000E+00 -0.00000000000E+00 -0.45593999997E+02  0.45594000000E+02  0.51100000000E-03 0. -1.
    9900012    2    1    2    0    0 -0.28740553262E+02 -0.25599722276E+02  0.13107280356E+02  0.50528856123E+02  0.29999988673E+02 0.  0.
         12    1    1    2    0    0  0.28740553262E+02  0.25599722276E+02 -0.13107280356E+02  0.40659143877E+02  0.00000000000E+00 0. -1.
         11    1    3    3    0    0 -0.78937418878E+01 -0.17749506313E+02  0.32337933227E+00  0.19428348098E+02  0.51100000000E-03 0. -1.
        -11    1    3    3    0    0 -0.13840935117E+01 -0.45673482178E+00  0.99881240033E+01  0.10093906227E+02  0.51100000000E-03 0.  1.
        -12    1    3    3    0    0 -0.19462717863E+02 -0.73934811413E+01  0.27957770207E+01  0.21006601799E+02  0.00000000000E+00 0.  1.
</event>
<event>
 7    1  0.5748623E-013  0.5052887E+02  0.7816164E-02  0.1300439E+00
        -11   -1    0    0    0    0  0.00000000000E+00  0.00000000000E+00  0.45593999997E+02  0.45594000000E+02  0.51100000000E-03 0.  1.
         11   -1    0    0    0    0 -0.00000000000E+00 -0.00000000000E+00 -0.45593999997E+02  0.45594000000E+02  0.51100000000E-03 0. -1.
    9900012    2    1    2    0    0 -0.37055633919E+01  0.14508278866E+02  0.37801371461E+02  0.50528867692E+02  0.30000023836E+02 0.  0.
         12    1    1    2    0    0  0.37055633919E+01 -0.14508278866E+02 -0.37801371461E+02  0.40659132308E+02  0.00000000000E+00 0. -1.
         11    1    3    3    0    0 -0.10767894337E+02  0.15735029883E+02  0.28327242049E+02  0.34146322733E+02  0.51100000000E-03 0. -1.
        -11    1    3    3    0    0  0.77227132857E+01  0.15286705700E+01  0.16261756573E+01  0.80387549866E+01  0.51100000000E-03 0.  1.
         12    1    3    3    0    0 -0.66038234104E+00 -0.27554215868E+01  0.78479537548E+01  0.83437899719E+01  0.00000000000E+00 0. -1.
</event>
<event>
 7    1  0.5748623E-013  0.5052886E+02  0.7816164E-02  0.1300439E+00
        -11   -1    0    0    0    0  0.00000000000E+00  0.00000000000E+00  0.45593999997E+02  0.45594000000E+02  0.51100000000E-03 0. -1.
         11   -1    0    0    0    0 -0.00000000000E+00 -0.00000000000E+00 -0.45593999997E+02  0.45594000000E+02  0.51100000000E-03 0.  1.
    9900012    2    1    2    0    0  0.22299716732E+02  0.33801864867E+02 -0.36499470817E+01  0.50528861439E+02  0.30000004830E+02 0.  0.
         12    1    1    2    0    0 -0.22299716732E+02 -0.33801864867E+02  0.36499470817E+01  0.40659138561E+02  0.00000000000E+00 0. -1.
         11    1    3    3    0    0  0.11714255801E+02  0.23225680618E+02 -0.82715619764E+01  0.27296057718E+02  0.51100000000E-03 0. -1.
        -11    1    3    3    0    0  0.13886936065E+02  0.38848489418E+01 -0.67458123744E-01  0.14420249493E+02  0.51100000000E-03 0.  1.
         12    1    3    3    0    0 -0.33014751341E+01  0.66913353072E+01  0.46890730185E+01  0.88125542283E+01  0.00000000000E+00 0. -1.
</event>
<event>
 7    1  0.5748623E-013  0.5052885E+02  0.7816164E-02  0.1300439E+00
        -11   -1    0    0    0    0  0.00000000000E+00  0.00000000000E+00  0.45593999997E+02  0.45594000000E+02  0.51100000000E-03 0. -1.
         11   -1    0    0    0    0 -0.00000000000E+00 -0.00000000000E+00 -0.45593999997E+02  0.45594000000E+02  0.51100000000E-03 0.  1.
    9900012    2    1    2    0    0  0.24884151459E+01 -0.72225126002E+00 -0.40576500660E+02  0.50528852658E+02  0.29999978138E+02 0.  0.
         12    1    1    2    0    0 -0.24884151459E+01  0.72225126002E+00  0.40576500660E+02  0.40659147342E+02  0.00000000000E+00 0. -1.
         11    1    3    3    0    0 -0.24710053346E+01 -0.20019943361E+00  0.32532353426E+01  0.40901696336E+01  0.51100000000E-03 0. -1.
        -11    1    3    3    0    0  0.89198689986E+01 -0.25350315212E+01 -0.37965698664E+02  0.39081769703E+02  0.51100000000E-03 0.  1.
         12    1    3    3    0    0 -0.39604485181E+01  0.20129796948E+01 -0.58640373378E+01  0.73569133212E+01  0.00000000000E+00 0. -1.
</event>
<event>
 7    1  0.5748623E-013  0.5052886E+02  0.7816164E-02  0.1300439E+00
        -11   -1    0    0    0    0  0.00000000000E+00  0.00000000000E+00  0.45593999997E+02  0.45594000000E+02  0.51100000000E-03 0.  1.
         11   -1    0    0    0    0 -0.00000000000E+00 -0.00000000000E+00 -0.45593999997E+02  0.45594000000E+02  0.51100000000E-03 0. -1.
    9900012    2    1    2    0    0 -0.37090721911E+02 -0.25830950100E+01 -0.16455150262E+02  0.50528855865E+02  0.29999987886E+02 0.  0.
         12    1    1    2    0    0  0.37090721911E+02  0.25830950100E+01  0.16455150262E+02  0.40659144135E+02  0.00000000000E+00 0. -1.
         11    1    3    3    0    0 -0.55232458879E+01 -0.15051253900E+01 -0.13224466470E+02  0.14410349103E+02  0.51100000000E-03 0. -1.
        -11    1    3    3    0    0 -0.22575366369E+02 -0.86918933382E+01 -0.21041740457E+01  0.24282168873E+02  0.51100000000E-03 0.  1.
        -12    1    3    3    0    0 -0.89921096540E+01  0.76139237182E+01 -0.11265097459E+01  0.11836337889E+02  0.00000000000E+00 0.  1.
</event>
<event>
 7    1  0.5748623E-013  0.5052888E+02  0.7816164E-02  0.1300439E+00
        -11   -1    0    0    0    0  0.00000000000E+00  0.00000000000E+00  0.45593999997E+02  0.45594000000E+02  0.51100000000E-03 0. -1.
         11   -1    0    0    0    0 -0.00000000000E+00 -0.00000000000E+00 -0.45593999997E+02  0.45594000000E+02  0.51100000000E-03 0.  1.
    9900012    2    1    2    0    0 -0.29792345535E+02 -0.20233377460E+02 -0.18873021119E+02  0.50528876275E+02  0.30000049926E+02 0.  0.
         12    1    1    2    0    0  0.29792345535E+02  0.20233377460E+02  0.18873021119E+02  0.40659123725E+02  0.00000000000E+00 0. -1.
         11    1    3    3    0    0  0.27262659868E+01  0.76016881533E+00  0.31914384379E+01  0.42656373994E+01  0.51100000000E-03 0. -1.
        -11    1    3    3    0    0 -0.12174930578E+02 -0.11853636815E+02 -0.37418525586E+01  0.17399399448E+02  0.51100000000E-03 0.  1.
         12    1    3    3    0    0 -0.20343680944E+02 -0.91399094605E+01 -0.18322606998E+02  0.28863839428E+02  0.00000000000E+00 0. -1.
</event>
<event>
 7    1  0.5748623E-013  0.5052886E+02  0.7816164E-02  0.1300439E+00
        -11   -1    0    0    0    0  0.00000000000E+00  0.00000000000E+00  0.45593999997E+02  0.45594000000E+02  0.51100000000E-03 0. -1.
         11   -1    0    0    0    0 -0.00000000000E+00 -0.00000000000E+00 -0.45593999997E+02  0.45594000000E+02  0.51100000000E-03 0.  1.
    9900012    2    1    2    0    0  0.84276737297E+01 -0.38974364739E+02  0.79459915938E+01  0.50528861130E+02  0.30000003889E+02 0.  0.
         12    1    1    2    0    0 -0.84276737297E+01  0.38974364739E+02 -0.79459915938E+01  0.40659138870E+02  0.00000000000E+00 0. -1.
         11    1    3    3    0    0  0.76438441306E+01 -0.22887764697E+02  0.10857441829E+02  0.26460577644E+02  0.51100000000E-03 0. -1.
        -11    1    3    3    0    0 -0.61817940617E+01 -0.14270631729E+02 -0.53831109495E+01  0.16457320302E+02  0.51100000000E-03 0.  1.
         12    1    3    3    0    0  0.69656236607E+01 -0.18159683125E+01  0.24716607147E+01  0.76109631837E+01  0.00000000000E+00 0. -1.
</event>
<event>
 7    1  0.5748623E-013  0.5052885E+02  0.7816164E-02  0.1300439E+00
        -11   -1    0    0    0    0  0.00000000000E+00  0.00000000000E+00  0.45593999997E+02  0.45594000000E+02  0.51100000000E-03 0.  1.
         11   -1    0    0    0    0 -0.00000000000E+00 -0.00000000000E+00 -0.45593999997E+02  0.45594000000E+02  0.51100000000E-03 0. -1.
    9900012    2    1    2    0    0 -0.36968043998E+02 -0.16477340903E+02  0.38765071671E+01  0.50528851606E+02  0.29999974943E+02 0.  0.
         12    1    1    2    0    0  0.36968043998E+02  0.16477340903E+02 -0.38765071671E+01  0.40659148394E+02  0.00000000000E+00 0. -1.
         11    1    3    3    0    0 -0.26461743674E+02 -0.11035706187E+01  0.17904977723E+01  0.26545199734E+02  0.51100000000E-03 0. -1.
        -11    1    3    3    0    0 -0.13984036172E+02 -0.12756925846E+02  0.37995307827E+01  0.19306187069E+02  0.51100000000E-03 0.  1.
         12    1    3    3    0    0  0.34777358482E+01 -0.26168444382E+01 -0.17135213880E+01  0.46774648038E+01  0.00000000000E+00 0. -1.
</event>
<event>
 7    1  0.5828413E-013  0.5052887E+02  0.7816164E-02  0.1300439E+00
        -11   -1    0    0    0    0  0.00000000000E+00  0.00000000000E+00  0.45593999997E+02  0.45594000000E+02  0.51100000000E-03 0. -1.
         11   -1    0    0    0    0 -0.00000000000E+00 -0.00000000000E+00 -0.45593999997E+02  0.45594000000E+02  0.51100000000E-03 0.  1.
    9900012    2    1    2    0    0 -0.62481470461E+01  0.49161883376E+01 -0.39874262605E+02  0.50528867354E+02  0.30000022808E+02 0.  0.
         12    1    1    2    0    0  0.62481470461E+01 -0.49161883376E+01  0.39874262605E+02  0.40659132646E+02  0.00000000000E+00 0. -1.
         11    1    3    3    0    0  0.55606227064E+01  0.23268873106E+01 -0.21350174002E+01  0.63947813879E+01  0.51100000000E-03 0. -1.
        -11    1    3    3    0    0 -0.84016596181E+01  0.10663262515E+02 -0.27414632621E+02  0.30591749440E+02  0.51100000000E-03 0.  1.
        -12    1    3    3    0    0 -0.34071101343E+01 -0.80739614878E+01 -0.10324612583E+02  0.13542336525E+02  0.00000000000E+00 0.  1.
</event>
<event>
 7    1  0.5748623E-013  0.5052886E+02  0.7816164E-02  0.1300439E+00
        -11   -1    0    0    0    0  0.00000000000E+00  0.00000000000E+00  0.45593999997E+02  0.45594000000E+02  0.51100000000E-03 0.  1.
         11   -1    0    0    0    0 -0.00000000000E+00 -0.00000000000E+00 -0.45593999997E+02  0.45594000000E+02  0.51100000000E-03 0. -1.
    9900012    2    1    2    0    0  0.18918499129E+02 -0.57038858262E+01  0.35534795359E+02  0.50528860757E+02  0.30000002756E+02 0.  0.
         12    1    1    2    0    0 -0.18918499129E+02  0.57038858262E+01 -0.35534795359E+02  0.40659139243E+02  0.00000000000E+00 0. -1.
         11    1    3    3    0    0 -0.14276295631E+00  0.72707082905E+01  0.12838890590E+02  0.14755361471E+02  0.51100000000E-03 0. -1.
        -11    1    3    3    0    0  0.15077165744E+02 -0.29949021005E+01  0.18934463344E+02  0.24388609387E+02  0.51100000000E-03 0.  1.
        -12    1    3    3    0    0  0.39840963412E+01 -0.99796920163E+01  0.37614414253E+01  0.11384889898E+02  0.00000000000E+00 0.  1.
</event>
<event>
 7    1  0.5748623E-013  0.5052886E+02  0.7816164E-02  0.1300439E+00
        -11   -1    0    0    0    0  0.00000000000E+00  0.00000000000E+00  0.45593999997E+02  0.45594000000E+02  0.51100000000E-03 0. -1.
         11   -1    0    0    0    0 -0.00000000000E+00 -0.00000000000E+00 -0.45593999997E+02  0.45594000000E+02  0.51100000000E-03 0.  1.
    9900012    2    1    2    0    0  0.39286756518E+00  0.14967779884E+02 -0.37801814142E+02  0.50528856723E+02  0.29999990496E+02 0.  0.
         12    1    1    2    0    0 -0.39286756518E+00 -0.14967779884E+02  0.37801814142E+02  0.40659143277E+02  0.00000000000E+00 0. -1.
         11    1    3    3    0    0  0.40173254712E+01 -0.63825751997E+01 -0.12366497445E+02  0.14484696387E+02  0.51100000000E-03 0.  1.
        -11    1    3    3    0    0 -0.72516285417E+01  0.18110332280E+02 -0.15264979451E+02  0.24770745845E+02  0.51100000000E-03 0. -1.
        -12    1    3    3    0    0  0.36271706356E+01  0.32400228036E+01 -0.10170337247E+02  0.11273414491E+02  0.00000000000E+00 0.  1.
</event>
<event>
 7    1  0.5748623E-013  0.5052886E+02  0.7816164E-02  0.1300439E+00
        -11   -1    0    0    0    0  0.00000000000E+00  0.00000000000E+00  0.45593999997E+02  0.45594000000E+02  0.51100000000E-03 0.  1.
         11   -1    0    0    0    0 -0.00000000000E+00 -0.00000000000E+00 -0.45593999997E+02  0.45594000000E+02  0.51100000000E-03 0. -1.
    9900012    2    1    2    0    0  0.23457347243E+02 -0.31529161334E+02  0.10432182063E+02  0.50528861092E+02  0.30000003776E+02 0.  0.
         12    1    1    2    0    0 -0.23457347243E+02  0.31529161334E+02 -0.10432182063E+02  0.40659138908E+02  0.00000000000E+00 0. -1.
         11    1    3    3    0    0  0.13229941401E+02 -0.51356267634E+01 -0.64694801738E+01  0.15596800496E+02  0.51100000000E-03 0. -1.
        -11    1    3    3    0    0  0.15043539934E+01 -0.47609462926E+01  0.90228953460E+01  0.10312241814E+02  0.51100000000E-03 0.  1.
         12    1    3    3    0    0  0.87230518487E+01 -0.21632588279E+02  0.78787668906E+01  0.24619818783E+02  0.00000000000E+00 0. -1.
</event>
<event>
 7    1  0.5748623E-013  0.5052887E+02  0.7816164E-02  0.1300439E+00
        -11   -1    0    0    0    0  0.00000000000E+00  0.00000000000E+00  0.45593999997E+02  0.45594000000E+02  0.51100000000E-03 0.  1.
         11   -1    0    0    0    0 -0.00000000000E+00 -0.00000000000E+00 -0.45593999997E+02  0.45594000000E+02  0.51100000000E-03 0. -1.
    9900012    2    1    2    0    0  0.74017451827E+01 -0.36080878041E+02  0.17220606292E+02  0.50528869746E+02  0.30000030079E+02 0.  0.
         12    1    1    2    0    0 -0.74017451827E+01  0.36080878041E+02 -0.17220606292E+02  0.40659130254E+02  0.00000000000E+00 0. -1.
         11    1    3    3    0    0 -0.51076497454E+01 -0.17255265177E+01 -0.54923890056E+00  0.54191504238E+01  0.51100000000E-03 0. -1.
        -11    1    3    3    0    0  0.82793905988E+01 -0.25381960044E+02  0.21734452909E+02  0.34426423687E+02  0.51100000000E-03 0.  1.
        -12    1    3    3    0    0  0.42300043294E+01 -0.89733914791E+01 -0.39646077164E+01  0.10683295634E+02  0.00000000000E+00 0.  1.
</event>
<event>
 7    1  0.5748623E-013  0.5052884E+02  0.7816164E-02  0.1300439E+00
        -11   -1    0    0    0    0  0.00000000000E+00  0.00000000000E+00  0.45593999997E+02  0.45594000000E+02  0.51100000000E-03 0. -1.
         11   -1    0    0    0    0 -0.00000000000E+00 -0.00000000000E+00 -0.45593999997E+02  0.45594000000E+02  0.51100000000E-03 0.  1.
    9900012    2    1    2    0    0 -0.12552285010E+02 -0.38672566965E+02  0.19915116406E+00  0.50528844133E+02  0.29999952227E+02 0.  0.
         12    1    1    2    0    0  0.12552285010E+02  0.38672566965E+02 -0.19915116406E+00  0.40659155867E+02  0.00000000000E+00 0. -1.
         11    1    3    3    0    0  0.51507353379E+01 -0.20257161159E+02  0.38831855985E+01  0.21259392827E+02  0.51100000000E-03 0. -1.
        -11    1    3    3    0    0 -0.16012864906E+02 -0.19479303278E+02 -0.62874882852E+01  0.25988220561E+02  0.51100000000E-03 0.  1.
         12    1    3    3    0    0 -0.16901554418E+01  0.10638974723E+01  0.26034538508E+01  0.32812307451E+01  0.00000000000E+00 0. -1.
</event>
<event>
 7    1  0.5748623E-013  0.5052883E+02  0.7816164E-02  0.1300439E+00
        -11   -1    0    0    0    0  0.00000000000E+00  0.00000000000E+00  0.45593999997E+02  0.45594000000E+02  0.51100000000E-03 0.  1.
         11   -1    0    0    0    0 -0.00000000000E+00 -0.00000000000E+00 -0.45593999997E+02  0.45594000000E+02  0.51100000000E-03 0. -1.
    9900012    2    1    2    0    0  0.19445884161E+02 -0.71803383955E+01  0.34978110532E+02  0.50528832686E+02  0.29999917431E+02 0.  0.
         12    1    1    2    0    0 -0.19445884161E+02  0.71803383955E+01 -0.34978110532E+02  0.40659167314E+02  0.00000000000E+00 0. -1.
         11    1    3    3    0    0  0.12927302306E+01 -0.30633231476E+01  0.17248749358E+02  0.17566287452E+02  0.51100000000E-03 0. -1.
        -11    1    3    3    0    0  0.17043426249E+02 -0.10353250831E+02  0.82927574335E+01  0.21597175907E+02  0.51100000000E-03 0.  1.
         12    1    3    3    0    0  0.11097276816E+01  0.62362355826E+01  0.94366037406E+01  0.11365369326E+02  0.00000000000E+00 0. -1.
</event>
<event>
 7    1  0.5748623E-013  0.5052886E+02  0.7816164E-02  0.1300439E+00
        -11   -1    0    0    0    0  0.00000000000E+00  0.00000000000E+00  0.45593999997E+02  0.45594000000E+02  0.51100000000E-03 0. -1.
         11   -1    0    0    0    0 -0.00000000000E+00 -0.00000000000E+00 -0.45593999997E+02  0.45594000000E+02  0.51100000000E-03 0.  1.
    9900012    2    1    2    0    0  0.29271628638E+01 -0.63689581105E+01 -0.40050393838E+02  0.50528856423E+02  0.29999989584E+02 0.  0.
         12    1    1    2    0    0 -0.29271628638E+01  0.63689581105E+01  0.40050393838E+02  0.40659143577E+02  0.00000000000E+00 0. -1.
         11    1    3    3    0    0  0.99986707323E+01 -0.93540304369E+01 -0.13701938084E+02  0.19370451965E+02  0.51100000000E-03 0. -1.
        -11    1    3    3    0    0 -0.41770583979E+01  0.89092344344E+01 -0.18066834996E+02  0.20572622635E+02  0.51100000000E-03 0.  1.
        -12    1    3    3    0    0 -0.28944494706E+01 -0.59241621079E+01 -0.82816207580E+01  0.10585781823E+02  0.00000000000E+00 0.  1.
</event>
<event>
 7    1  0.5748623E-013  0.5052885E+02  0.7816164E-02  0.1300439E+00
        -11   -1    0    0    0    0  0.00000000000E+00  0.00000000000E+00  0.45593999997E+02  0.45594000000E+02  0.51100000000E-03 0.  1.
         11   -1    0    0    0    0 -0.00000000000E+00 -0.00000000000E+00 -0.45593999997E+02  0.45594000000E+02  0.51100000000E-03 0. -1.
    9900012    2    1    2    0    0 -0.23420627306E+02  0.32616276087E+02 -0.63889657094E+01  0.50528854264E+02  0.29999983020E+02 0.  0.
         12    1    1    2    0    0  0.23420627306E+02 -0.32616276087E+02  0.63889657094E+01  0.40659145736E+02  0.00000000000E+00 0. -1.
         11    1    3    3    0    0 -0.15399977929E+02  0.10433521371E+02 -0.13998840467E+02  0.23280576091E+02  0.51100000000E-03 0. -1.
        -11    1    3    3    0    0 -0.10054021134E+01  0.17571547268E+02  0.65809871763E+01  0.18790409769E+02  0.51100000000E-03 0.  1.
         12    1    3    3    0    0 -0.70152472629E+01  0.46112074474E+01  0.10288875817E+01  0.84578684039E+01  0.00000000000E+00 0. -1.
</event>
<event>
 7    1  0.5748623E-013  0.5052887E+02  0.7816164E-02  0.1300439E+00
        -11   -1    0    0    0    0  0.00000000000E+00  0.00000000000E+00  0.45593999997E+02  0.45594000000E+02  0.51100000000E-03 0. -1.
         11   -1    0    0    0    0 -0.00000000000E+00 -0.00000000000E+00 -0.45593999997E+02  0.45594000000E+02  0.51100000000E-03 0.  1.
    9900012    2    1    2    0    0  0.40517144689E+02 -0.11190187049E+01  0.32052932638E+01  0.50528866690E+02  0.30000020792E+02 0.  0.
         12    1    1    2    0    0 -0.40517144689E+02  0.11190187049E+01 -0.32052932638E+01  0.40659133310E+02  0.00000000000E+00 0. -1.
         11    1    3    3    0    0 -0.93553235577E+00  0.66403993768E+01  0.44389327323E+01  0.80420301377E+01  0.51100000000E-03 0. -1.
        -11    1    3    3    0    0  0.38483152915E+02 -0.69413259931E+01  0.16380616557E+00  0.39104499709E+02  0.51100000000E-03 0.  1.
         12    1    3    3    0    0  0.29695241298E+01 -0.81809208864E+00 -0.13974456341E+01  0.33823368436E+01  0.00000000000E+00 0. -1.
</event>
<event>
 7    1  0.5748623E-013  0.5052885E+02  0.7816164E-02  0.1300439E+00
        -11   -1    0    0    0    0  0.00000000000E+00  0.00000000000E+00  0.45593999997E+02  0.45594000000E+02  0.51100000000E-03 0.  1.
         11   -1    0    0    0    0 -0.00000000000E+00 -0.00000000000E+00 -0.45593999997E+02  0.45594000000E+02  0.51100000000E-03 0. -1.
    9900012    2    1    2    0    0 -0.40231239765E+02 -0.55305606194E+01 -0.20066290226E+01  0.50528852027E+02  0.29999976223E+02 0.  0.
         12    1    1    2    0    0  0.40231239765E+02  0.55305606194E+01  0.20066290226E+01  0.40659147973E+02  0.00000000000E+00 0. -1.
         11    1    3    3    0    0 -0.77285138084E+01 -0.10441656756E+02 -0.77937310374E+01  0.15149269463E+02  0.51100000000E-03 0. -1.
        -11    1    3    3    0    0 -0.62803786072E+01  0.54945257221E+01  0.35076498480E+01  0.90518824605E+01  0.51100000000E-03 0.  1.
         12    1    3    3    0    0 -0.26222347350E+02 -0.58342958513E+00  0.22794521668E+01  0.26327700104E+02  0.00000000000E+00 0. -1.
</event>
<event>
 7    1  0.5748623E-013  0.5052886E+02  0.7816164E-02  0.1300439E+00
        -11   -1    0    0    0    0  0.00000000000E+00  0.00000000000E+00  0.45593999997E+02  0.45594000000E+02  0.51100000000E-03 0.  1.
         11   -1    0    0    0    0 -0.00000000000E+00 -0.00000000000E+00 -0.45593999997E+02  0.45594000000E+02  0.51100000000E-03 0. -1.
    9900012    2    1    2    0    0 -0.23485604335E+02 -0.69527559736E+01  0.32453829177E+02  0.50528862591E+02  0.30000008332E+02 0.  0.
         12    1    1    2    0    0  0.23485604335E+02  0.69527559736E+01 -0.32453829177E+02  0.40659137409E+02  0.00000000000E+00 0. -1.
         11    1    3    3    0    0 -0.11963049901E+02 -0.88276906029E+01 -0.11321944096E+01  0.14910551591E+02  0.51100000000E-03 0. -1.
        -11    1    3    3    0    0 -0.71471112763E+01  0.75940977977E+00  0.17716552225E+02  0.19118946776E+02  0.51100000000E-03 0.  1.
         12    1    3    3    0    0 -0.43754431576E+01  0.11155248495E+01  0.15869471362E+02  0.16499364224E+02  0.00000000000E+00 0. -1.
</event>
<event>
 7    1  0.5748623E-013  0.5052886E+02  0.7816164E-02  0.1300439E+00
        -11   -1    0    0    0    0  0.00000000000E+00  0.00000000000E+00  0.45593999997E+02  0.45594000000E+02  0.51100000000E-03 0. -1.
         11   -1    0    0    0    0 -0.00000000000E+00 -0.00000000000E+00 -0.45593999997E+02  0.45594000000E+02  0.51100000000E-03 0.  1.
    9900012    2    1    2    0    0 -0.92449449102E+01  0.22875133382E+02 -0.32317562036E+02  0.50528861426E+02  0.30000004789E+02 0.  0.
         12    1    1    2    0    0  0.92449449102E+01 -0.22875133382E+02  0.32317562036E+02  0.40659138574E+02  0.00000000000E+00 0. -1.
         11    1    3    3    0    0  0.84883569554E+01 -0.32971576361E+00 -0.37583258310E+01  0.92890219938E+01  0.51100000000E-03 0. -1.
        -11    1    3    3    0    0 -0.32542089252E+01  0.75996774630E+01 -0.10194466511E+02  0.13125247464E+02  0.51100000000E-03 0.  1.
         12    1    3    3    0    0 -0.14479092940E+02  0.15605171683E+02 -0.18364769694E+02  0.28114591968E+02  0.00000000000E+00 0. -1.
</event>
<event>
 7    1  0.5748623E-013  0.5052888E+02  0.7816164E-02  0.1300439E+00
        -11   -1    0    0    0    0  0.00000000000E+00  0.00000000000E+00  0.45593999997E+02  0.45594000000E+02  0.51100000000E-03 0. -1.
         11   -1    0    0    0    0 -0.00000000000E+00 -0.00000000000E+00 -0.45593999997E+02  0.45594000000E+02  0.51100000000E-03 0.  1.
    9900012    2    1    2    0    0  0.39088325444E+02  0.63931326045E+01  0.91866470286E+01  0.50528882767E+02  0.30000069659E+02 0.  0.
         12    1    1    2    0    0 -0.39088325444E+02 -0.63931326045E+01 -0.91866470286E+01  0.40659117233E+02  0.00000000000E+00 0. -1.
         11    1    3    3    0    0  0.41253377582E+02  0.63945279278E+01  0.12546433625E+02  0.43590642875E+02  0.51100000000E-03 0. -1.
        -11    1    3    3    0    0 -0.87905285244E+00 -0.27594304157E+01 -0.23575492653E+01  0.37343311229E+01  0.51100000000E-03 0.  1.
         12    1    3    3    0    0 -0.12859992852E+01  0.27580350924E+01 -0.10022373308E+01  0.32039087690E+01  0.00000000000E+00 0. -1.
</event>
<event>
 7    1  0.5748623E-013  0.5052887E+02  0.7816164E-02  0.1300439E+00
        -11   -1    0    0    0    0  0.00000000000E+00  0.00000000000E+00  0.45593999997E+02  0.45594000000E+02  0.51100000000E-03 0.  1.
         11   -1    0    0    0    0 -0.00000000000E+00 -0.00000000000E+00 -0.45593999997E+02  0.45594000000E+02  0.51100000000E-03 0. -1.
    9900012    2    1    2    0    0 -0.95151878842E+01 -0.29396206362E+02  0.26428949239E+02  0.50528866871E+02  0.30000021340E+02 0.  0.
         12    1    1    2    0    0  0.95151878842E+01  0.29396206362E+02 -0.26428949239E+02  0.40659133129E+02  0.00000000000E+00 0. -1.
         11    1    3    3    0    0 -0.12669810864E+02 -0.10002028961E+02  0.19476509544E+02  0.25296227287E+02  0.51100000000E-03 0. -1.
        -11    1    3    3    0    0  0.70763569910E+01 -0.78240572666E+01 -0.10911367452E+01  0.10605719213E+02  0.51100000000E-03 0.  1.
         12    1    3    3    0    0 -0.39217340111E+01 -0.11570120134E+02  0.80435764410E+01  0.14626920371E+02  0.00000000000E+00 0. -1.
</event>
<event>
 7    1  0.5748623E-013  0.5052886E+02  0.7816164E-02  0.1300439E+00
        -11   -1    0    0    0    0  0.00000000000E+00  0.00000000000E+00  0.45593999997E+02  0.45594000000E+02  0.51100000000E-03 0. -1.
         11   -1    0    0    0    0 -0.00000000000E+00 -0.00000000000E+00 -0.45593999997E+02  0.45594000000E+02  0.51100000000E-03 0.  1.
    9900012    2    1    2    0    0 -0.12454275473E+02  0.34862331350E+02  0.16812916743E+02  0.50528864567E+02  0.30000014339E+02 0.  0.
         12    1    1    2    0    0  0.12454275473E+02 -0.34862331350E+02 -0.16812916743E+02  0.40659135433E+02  0.00000000000E+00 0. -1.
         11    1    3    3    0    0 -0.13387246388E+02  0.13598472726E+01  0.82067546859E+01  0.15761293513E+02  0.51100000000E-03 0. -1.
        -11    1    3    3    0    0  0.14927296286E+01  0.19646587319E+02  0.36315374230E+01  0.20035086707E+02  0.51100000000E-03 0.  1.
         12    1    3    3    0    0 -0.55975871285E+00  0.13855896758E+02  0.49746246340E+01  0.14732484347E+02  0.00000000000E+00 0. -1.
</event>
<event>
 7    1  0.5748623E-013  0.5052885E+02  0.7816164E-02  0.1300439E+00
        -11   -1    0    0    0    0  0.00000000000E+00  0.00000000000E+00  0.45593999997E+02  0.45594000000E+02  0.51100000000E-03 0. -1.
         11   -1    0    0    0    0 -0.00000000000E+00 -0.00000000000E+00 -0.45593999997E+02  0.45594000000E+02  0.51100000000E-03 0.  1.
    9900012    2    1    2    0    0 -0.29971696901E+02  0.97058735013E+01 -0.25703298797E+02  0.50528853863E+02  0.29999981803E+02 0.  0.
         12    1    1    2    0    0  0.29971696901E+02 -0.97058735013E+01  0.25703298797E+02  0.40659146137E+02  0.00000000000E+00 0. -1.
         11    1    3    3    0    0 -0.46322027281E+01 -0.79215017795E+01  0.10041402152E+01  0.92312399161E+01  0.51100000000E-03 0. -1.
        -11    1    3    3    0    0 -0.54510355648E+01  0.71888035045E+01 -0.82561748237E+01  0.12229354338E+02  0.51100000000E-03 0.  1.
         12    1    3    3    0    0 -0.19888458608E+02  0.10438571776E+02 -0.18451264188E+02  0.29068259609E+02  0.00000000000E+00 0. -1.
</event>
<event>
 7    1  0.5748623E-013  0.5052887E+02  0.7816164E-02  0.1300439E+00
        -11   -1    0    0    0    0  0.00000000000E+00  0.00000000000E+00  0.45593999997E+02  0.45594000000E+02  0.51100000000E-03 0.  1.
         11   -1    0    0    0    0 -0.00000000000E+00 -0.00000000000E+00 -0.45593999997E+02  0.45594000000E+02  0.51100000000E-03 0. -1.
    9900012    2    1    2    0    0  0.11947173364E+02  0.19494928723E+02  0.33621095328E+02  0.50528865130E+02  0.30000016050E+02 0.  0.
         12    1    1    2    0    0 -0.11947173364E+02 -0.19494928723E+02 -0.33621095328E+02  0.40659134870E+02  0.00000000000E+00 0. -1.
         11    1    3    3    0    0  0.53618203709E+01  0.64638744597E+00 -0.28937454459E+01  0.61270463836E+01  0.51100000000E-03 0. -1.
        -11    1    3    3    0    0  0.57364161533E+01  0.21270599988E+02  0.28727249360E+02  0.36202206427E+02  0.51100000000E-03 0.  1.
         12    1    3    3    0    0  0.84893684009E+00 -0.24220587116E+01  0.77875914140E+01  0.81996123196E+01  0.00000000000E+00 0. -1.
</event>
<event>
 7    1  0.5748623E-013  0.5052887E+02  0.7816164E-02  0.1300439E+00
        -11   -1    0    0    0    0  0.00000000000E+00  0.00000000000E+00  0.45593999997E+02  0.45594000000E+02  0.51100000000E-03 0. -1.
         11   -1    0    0    0    0 -0.00000000000E+00 -0.00000000000E+00 -0.45593999997E+02  0.45594000000E+02  0.51100000000E-03 0.  1.
    9900012    2    1    2    0    0 -0.24228935894E+02  0.22955071577E+02 -0.23220434406E+02  0.50528865483E+02  0.30000017123E+02 0.  0.
         12    1    1    2    0    0  0.24228935894E+02 -0.22955071577E+02  0.23220434406E+02  0.40659134517E+02  0.00000000000E+00 0. -1.
         11    1    3    3    0    0 -0.14120085657E+01 -0.51907738210E+01 -0.27636924521E+01  0.60478010285E+01  0.51100000000E-03 0. -1.
        -11    1    3    3    0    0 -0.19345022489E+02  0.22444036929E+02 -0.22819990055E+02  0.37399420251E+02  0.51100000000E-03 0.  1.
         12    1    3    3    0    0 -0.34719048396E+01  0.57018084691E+01  0.23632481016E+01  0.70816442034E+01  0.00000000000E+00 0. -1.
</event>
<event>
 7    1  0.5748623E-013  0.5052886E+02  0.7816164E-02  0.1300439E+00
        -11   -1    0    0    0    0  0.00000000000E+00  0.00000000000E+00  0.45593999997E+02  0.45594000000E+02  0.51100000000E-03 0.  1.
         11   -1    0    0    0    0 -0.00000000000E+00 -0.00000000000E+00 -0.45593999997E+02  0.45594000000E+02  0.51100000000E-03 0. -1.
    9900012    2    1    2    0    0  0.93152853018E+00 -0.29080622418E+02  0.28400975569E+02  0.50528858852E+02  0.29999996966E+02 0.  0.
         12    1    1    2    0    0 -0.93152853018E+00  0.29080622418E+02 -0.28400975569E+02  0.40659141148E+02  0.00000000000E+00 0. -1.
         11    1    3    3    0    0 -0.97899926911E+01 -0.18139894178E+02  0.52628305706E+01  0.21274329685E+02  0.51100000000E-03 0. -1.
        -11    1    3    3    0    0  0.59948311738E+01 -0.62954611224E+01  0.20227275054E+02  0.22016209663E+02  0.51100000000E-03 0.  1.
        -12    1    3    3    0    0  0.47266900474E+01 -0.46452671178E+01  0.29108699441E+01  0.72383195033E+01  0.00000000000E+00 0.  1.
</event>
<event>
 7    1  0.5748623E-013  0.5052886E+02  0.7816164E-02  0.1300439E+00
        -11   -1    0    0    0    0  0.00000000000E+00  0.00000000000E+00  0.45593999997E+02  0.45594000000E+02  0.51100000000E-03 0.  1.
         11   -1    0    0    0    0 -0.00000000000E+00 -0.00000000000E+00 -0.45593999997E+02  0.45594000000E+02  0.51100000000E-03 0. -1.
    9900012    2    1    2    0    0 -0.80359770964E+01 -0.28216597184E+02  0.28149815975E+02  0.50528862971E+02  0.30000009486E+02 0.  0.
         12    1    1    2    0    0  0.80359770964E+01  0.28216597184E+02 -0.28149815975E+02  0.40659137029E+02  0.00000000000E+00 0. -1.
         11    1    3    3    0    0 -0.53146437246E+01 -0.94660176534E+00  0.17158453905E+02  0.17987607776E+02  0.51100000000E-03 0. -1.
        -11    1    3    3    0    0 -0.52592064372E+01 -0.27341150583E+02  0.11162433293E+02  0.29996627891E+02  0.51100000000E-03 0.  1.
        -12    1    3    3    0    0  0.25378730654E+01  0.71155163975E-01 -0.17107122321E+00  0.25446273042E+01  0.00000000000E+00 0.  1.
</event>
<event>
 7    1  0.5748623E-013  0.5052886E+02  0.7816164E-02  0.1300439E+00
        -11   -1    0    0    0    0  0.00000000000E+00  0.00000000000E+00  0.45593999997E+02  0.45594000000E+02  0.51100000000E-03 0. -1.
         11   -1    0    0    0    0 -0.00000000000E+00 -0.00000000000E+00 -0.45593999997E+02  0.45594000000E+02  0.51100000000E-03 0.  1.
    9900012    2    1    2    0    0 -0.20874263686E+02  0.29603484653E+02 -0.18467926242E+02  0.50528862187E+02  0.30000007104E+02 0.  0.
         12    1    1    2    0    0  0.20874263686E+02 -0.29603484653E+02  0.18467926242E+02  0.40659137813E+02  0.00000000000E+00 0. -1.
         11    1    3    3    0    0  0.15082163253E+01  0.21086297853E+02 -0.64841909249E+01  0.22112245609E+02  0.51100000000E-03 0. -1.
        -11    1    3    3    0    0  0.17424728036E+00 -0.11314439248E+01 -0.80014565305E-01  0.11475757323E+01  0.51100000000E-03 0.  1.
         12    1    3    3    0    0 -0.22556727291E+02  0.96486307241E+01 -0.11903720752E+02  0.27269040846E+02  0.00000000000E+00 0. -1.
</event>
<event>
 7    1  0.5748623E-013  0.5052886E+02  0.7816164E-02  0.1300439E+00
        -11   -1    0    0    0    0  0.00000000000E+00  0.00000000000E+00  0.45593999997E+02  0.45594000000E+02  0.51100000000E-03 0.  1.
         11   -1    0    0    0    0 -0.00000000000E+00 -0.00000000000E+00 -0.45593999997E+02  0.45594000000E+02  0.51100000000E-03 0. -1.
    9900012    2    1    2    0    0 -0.36573934062E+02  0.11685341758E+02  0.13377813256E+02  0.50528858933E+02  0.29999997213E+02 0.  0.
         12    1    1    2    0    0  0.36573934062E+02 -0.11685341758E+02 -0.13377813256E+02  0.40659141067E+02  0.00000000000E+00 0. -1.
         11    1    3    3    0    0 -0.27493376093E+01  0.92803387498E+00  0.13722800553E+02  0.14026238249E+02  0.51100000000E-03 0. -1.
        -11    1    3    3    0    0 -0.69131497223E+01 -0.27146994923E+00 -0.24583616350E+01  0.73422664897E+01  0.51100000000E-03 0.  1.
         12    1    3    3    0    0 -0.26911446731E+02  0.11028777832E+02  0.21133743381E+01  0.29160354194E+02  0.00000000000E+00 0. -1.
</event>
<event>
 7    1  0.5748623E-013  0.5052886E+02  0.7816164E-02  0.1300439E+00
        -11   -1    0    0    0    0  0.00000000000E+00  0.00000000000E+00  0.45593999997E+02  0.45594000000E+02  0.51100000000E-03 0. -1.
         11   -1    0    0    0    0 -0.00000000000E+00 -0.00000000000E+00 -0.45593999997E+02  0.45594000000E+02  0.51100000000E-03 0.  1.
    9900012    2    1    2    0    0 -0.22836102723E+02 -0.19466351418E+02 -0.27436091523E+02  0.50528861505E+02  0.30000005031E+02 0.  0.
         12    1    1    2    0    0  0.22836102723E+02  0.19466351418E+02  0.27436091523E+02  0.40659138495E+02  0.00000000000E+00 0. -1.
         11    1    3    3    0    0 -0.11526478362E+02  0.10389101096E+01 -0.44639697970E+01  0.12404276047E+02  0.51100000000E-03 0. -1.
        -11    1    3    3    0    0 -0.30280801003E+01 -0.79414158340E+01 -0.21362363231E+02  0.22990996446E+02  0.51100000000E-03 0.  1.
         12    1    3    3    0    0 -0.82815442603E+01 -0.12563845694E+02 -0.16097584950E+01  0.15133589011E+02  0.00000000000E+00 0. -1.
</event>
<event>
 7    1  0.5748623E-013  0.5052885E+02  0.7816164E-02  0.1300439E+00
        -11   -1    0    0    0    0  0.00000000000E+00  0.00000000000E+00  0.45593999997E+02  0.45594000000E+02  0.51100000000E-03 0.  1.
         11   -1    0    0    0    0 -0.00000000000E+00 -0.00000000000E+00 -0.45593999997E+02  0.45594000000E+02  0.51100000000E-03 0. -1.
    9900012    2    1    2    0    0  0.41694813609E+01 -0.62133976156E+01  0.39964679475E+02  0.50528849858E+02  0.29999969628E+02 0.  0.
         12    1    1    2    0    0 -0.41694813609E+01  0.62133976156E+01 -0.39964679475E+02  0.40659150142E+02  0.00000000000E+00 0. -1.
         11    1    3    3    0    0 -0.11922506654E+01  0.83623096083E+01  0.65998450148E+01  0.10719498035E+02  0.51100000000E-03 0. -1.
        -11    1    3    3    0    0  0.89351770447E+01 -0.11566387829E+02  0.31598164588E+02  0.34814691179E+02  0.51100000000E-03 0.  1.
         12    1    3    3    0    0 -0.35734450184E+01 -0.30093193947E+01  0.17666698718E+01  0.49946606446E+01  0.00000000000E+00 0. -1.
</event>
<event>
 7    1  0.5748623E-013  0.5052883E+02  0.7816164E-02  0.1300439E+00
        -11   -1    0    0    0    0  0.00000000000E+00  0.00000000000E+00  0.45593999997E+02  0.45594000000E+02  0.51100000000E-03 0.  1.
         11   -1    0    0    0    0 -0.00000000000E+00 -0.00000000000E+00 -0.45593999997E+02  0.45594000000E+02  0.51100000000E-03 0. -1.
    9900012    2    1    2    0    0  0.14151387854E+01  0.17265506601E+02  0.36784074283E+02  0.50528825675E+02  0.29999896121E+02 0.  0.
         12    1    1    2    0    0 -0.14151387854E+01 -0.17265506601E+02 -0.36784074283E+02  0.40659174325E+02  0.00000000000E+00 0. -1.
         11    1    3    3    0    0 -0.52516911404E+01  0.46837894232E+01  0.70718042272E+01  0.99764000763E+01  0.51100000000E-03 0. -1.
        -11    1    3    3    0    0  0.12089728277E+02  0.10639488859E+02  0.30738216083E+02  0.34701558772E+02  0.51100000000E-03 0.  1.
         12    1    3    3    0    0 -0.54228983512E+01  0.19422283188E+01 -0.10259460273E+01  0.58508668265E+01  0.00000000000E+00 0. -1.
</event>
<event>
 7    1  0.8464036E-013  0.5052889E+02  0.7816164E-02  0.1300439E+00
        -11   -1    0    0    0    0  0.00000000000E+00  0.00000000000E+00  0.45593999997E+02  0.45594000000E+02  0.51100000000E-03 0. -1.
         11   -1    0    0    0    0 -0.00000000000E+00 -0.00000000000E+00 -0.45593999997E+02  0.45594000000E+02  0.51100000000E-03 0.  1.
    9900012    2    1    2    0    0 -0.20005459268E+01  0.64385423143E+01 -0.40096207447E+02  0.50528894467E+02  0.30000105222E+02 0.  0.
         12    1    1    2    0    0  0.20005459268E+01 -0.64385423143E+01  0.40096207447E+02  0.40659105533E+02  0.00000000000E+00 0. -1.
         11    1    3    3    0    0 -0.25696216386E+01 -0.33379555109E+01  0.17861353769E+01  0.45754980280E+01  0.51100000000E-03 0. -1.
        -11    1    3    3    0    0 -0.72064235369E+01  0.64401299645E+01 -0.28753196767E+02  0.30334042572E+02  0.51100000000E-03 0.  1.
        -12    1    3    3    0    0  0.77754992487E+01  0.33363678607E+01 -0.13129146056E+02  0.15619353868E+02  0.00000000000E+00 0.  1.
</event>
<event>
 7    1  0.5748623E-013  0.5052896E+02  0.7816164E-02  0.1300438E+00
        -11   -1    0    0    0    0  0.00000000000E+00  0.00000000000E+00  0.45593999997E+02  0.45594000000E+02  0.51100000000E-03 0.  1.
         11   -1    0    0    0    0 -0.00000000000E+00 -0.00000000000E+00 -0.45593999997E+02  0.45594000000E+02  0.51100000000E-03 0. -1.
    9900012    2    1    2    0    0  0.21553721740E+02  0.16262071717E+02  0.30399665805E+02  0.50528959450E+02  0.30000302744E+02 0.  0.
         12    1    1    2    0    0 -0.21553721740E+02 -0.16262071717E+02 -0.30399665805E+02  0.40659040550E+02  0.00000000000E+00 0. -1.
         11    1    3    3    0    0  0.15730343093E+02  0.17299928990E+02  0.17743851946E+02  0.29352606682E+02  0.51100000000E-03 0. -1.
        -11    1    3    3    0    0 -0.42955064305E+01  0.21004149380E+01  0.85850847707E+01  0.98268407531E+01  0.51100000000E-03 0.  1.
         12    1    3    3    0    0  0.10118885077E+02 -0.31382722113E+01  0.40707290880E+01  0.11349512015E+02  0.00000000000E+00 0. -1.
</event>
<event>
 7    1  0.5748623E-013  0.5052887E+02  0.7816164E-02  0.1300439E+00
        -11   -1    0    0    0    0  0.00000000000E+00  0.00000000000E+00  0.45593999997E+02  0.45594000000E+02  0.51100000000E-03 0. -1.
         11   -1    0    0    0    0 -0.00000000000E+00 -0.00000000000E+00 -0.45593999997E+02  0.45594000000E+02  0.51100000000E-03 0.  1.
    9900012    2    1    2    0    0  0.24954626081E+01 -0.27148180825E+02 -0.30164782396E+02  0.50528866307E+02  0.30000019626E+02 0.  0.
         12    1    1    2    0    0 -0.24954626081E+01  0.27148180825E+02  0.30164782396E+02  0.40659133693E+02  0.00000000000E+00 0. -1.
         11    1    3    3    0    0 -0.24043858541E+01 -0.59762451617E+01  0.32976971252E+01  0.72368075944E+01  0.51100000000E-03 0. -1.
        -11    1    3    3    0    0  0.51466626405E+01 -0.20946103163E+02 -0.35330618277E+02  0.41394202035E+02  0.51100000000E-03 0.  1.
        -12    1    3    3    0    0 -0.24681417829E+00 -0.22583250029E+00  0.18681387558E+01  0.18978566774E+01  0.00000000000E+00 0.  1.
</event>
<event>
 7    1  0.5748623E-013  0.5052887E+02  0.7816164E-02  0.1300439E+00
        -11   -1    0    0    0    0  0.00000000000E+00  0.00000000000E+00  0.45593999997E+02  0.45594000000E+02  0.51100000000E-03 0.  1.
         11   -1    0    0    0    0 -0.00000000000E+00 -0.00000000000E+00 -0.45593999997E+02  0.45594000000E+02  0.51100000000E-03 0. -1.
    9900012    2    1    2    0    0 -0.21946665033E+02  0.32155783401E+01  0.34075929275E+02  0.50528868110E+02  0.30000025106E+02 0.  0.
         12    1    1    2    0    0  0.21946665033E+02 -0.32155783401E+01 -0.34075929275E+02  0.40659131890E+02  0.00000000000E+00 0. -1.
         11    1    3    3    0    0  0.37413213633E+01  0.55176662717E+01  0.26846041281E+01  0.71867396095E+01  0.51100000000E-03 0. -1.
        -11    1    3    3    0    0 -0.21654098426E+02 -0.78284530852E+01  0.24812951895E+02  0.33850660826E+02  0.51100000000E-03 0.  1.
        -12    1    3    3    0    0 -0.40338879703E+01  0.55263651537E+01  0.65783732512E+01  0.94914676737E+01  0.00000000000E+00 0.  1.
</event>
<event>
 7    1  0.5748623E-013  0.5052885E+02  0.7816164E-02  0.1300439E+00
        -11   -1    0    0    0    0  0.00000000000E+00  0.00000000000E+00  0.45593999997E+02  0.45594000000E+02  0.51100000000E-03 0.  1.
         11   -1    0    0    0    0 -0.00000000000E+00 -0.00000000000E+00 -0.45593999997E+02  0.45594000000E+02  0.51100000000E-03 0. -1.
    9900012    2    1    2    0    0  0.15728212038E+02  0.18716926553E+02  0.32487941934E+02  0.50528851403E+02  0.29999974326E+02 0.  0.
         12    1    1    2    0    0 -0.15728212038E+02 -0.18716926553E+02 -0.32487941934E+02  0.40659148597E+02  0.00000000000E+00 0. -1.
         11    1    3    3    0    0  0.20994646188E+01  0.73886833892E+01 -0.31980143672E+00  0.76878259040E+01  0.51100000000E-03 0. -1.
        -11    1    3    3    0    0  0.62680354129E+01 -0.60227178157E+01  0.10888998122E+02  0.13933114446E+02  0.51100000000E-03 0.  1.
        -12    1    3    3    0    0  0.73607120061E+01  0.17350960980E+02  0.21918745249E+02  0.28907911053E+02  0.00000000000E+00 0.  1.
</event>
<event>
 7    1  0.5748623E-013  0.5052885E+02  0.7816164E-02  0.1300439E+00
        -11   -1    0    0    0    0  0.00000000000E+00  0.00000000000E+00  0.45593999997E+02  0.45594000000E+02  0.51100000000E-03 0.  1.
         11   -1    0    0    0    0 -0.00000000000E+00 -0.00000000000E+00 -0.45593999997E+02  0.45594000000E+02  0.51100000000E-03 0. -1.
    9900012    2    1    2    0    0 -0.37157941367E+02  0.56462871538E+01  0.15510420328E+02  0.50528852148E+02  0.29999976590E+02 0.  0.
         12    1    1    2    0    0  0.37157941367E+02 -0.56462871538E+01 -0.15510420328E+02  0.40659147852E+02  0.00000000000E+00 0. -1.
         11    1    3    3    0    0 -0.21237490806E+01  0.35053387884E+01 -0.40764328101E+00  0.41187235261E+01  0.51100000000E-03 0. -1.
        -11    1    3    3    0    0 -0.37530300403E+02 -0.15319181002E+01  0.97439038175E+01  0.38804817785E+02  0.51100000000E-03 0.  1.
        -12    1    3    3    0    0  0.24961081169E+01  0.36728664656E+01  0.61741597915E+01  0.76053108376E+01  0.00000000000E+00 0.  1.
</event>
<event>
 7    1  0.5748623E-013  0.5052888E+02  0.7816164E-02  0.1300439E+00
        -11   -1    0    0    0    0  0.00000000000E+00  0.00000000000E+00  0.45593999997E+02  0.45594000000E+02  0.51100000000E-03 0. -1.
         11   -1    0    0    0    0 -0.00000000000E+00 -0.00000000000E+00 -0.45593999997E+02  0.45594000000E+02  0.51100000000E-03 0.  1.
    9900012    2    1    2    0    0  0.14360818279E+02  0.37578862349E+02 -0.58957919966E+01  0.50528876051E+02  0.30000049243E+02 0.  0.
         12    1    1    2    0    0 -0.14360818279E+02 -0.37578862349E+02  0.58957919966E+01  0.40659123949E+02  0.00000000000E+00 0. -1.
         11    1    3    3    0    0  0.13069825567E+02  0.13180642462E+02  0.58769587454E+01  0.19470190559E+02  0.51100000000E-03 0. -1.
        -11    1    3    3    0    0 -0.60725420868E+01  0.48850025471E+01 -0.21189216411E+01  0.80764377335E+01  0.51100000000E-03 0.  1.
        -12    1    3    3    0    0  0.73635347987E+01  0.19513217340E+02 -0.96538291009E+01  0.22982247758E+02  0.00000000000E+00 0.  1.
</event>
<event>
 7    1  0.5748623E-013  0.5052885E+02  0.7816164E-02  0.1300439E+00
        -11   -1    0    0    0    0  0.00000000000E+00  0.00000000000E+00  0.45593999997E+02  0.45594000000E+02  0.51100000000E-03 0. -1.
         11   -1    0    0    0    0 -0.00000000000E+00 -0.00000000000E+00 -0.45593999997E+02  0.45594000000E+02  0.51100000000E-03 0.  1.
    9900012    2    1    2    0    0  0.17435512545E+02 -0.60607393511E+01 -0.36227564504E+02  0.50528854791E+02  0.29999984623E+02 0.  0.
         12    1    1    2    0    0 -0.17435512545E+02  0.60607393511E+01  0.36227564504E+02  0.40659145209E+02  0.00000000000E+00 0. -1.
         11    1    3    3    0    0 -0.33807547465E+01 -0.63383942632E+00  0.30315301485E+01  0.45849133445E+01  0.51100000000E-03 0. -1.
        -11    1    3    3    0    0  0.96111512046E+01 -0.52508185037E+01 -0.27966840304E+02  0.30034804466E+02  0.51100000000E-03 0.  1.
         12    1    3    3    0    0  0.11205116087E+02 -0.17608142115E+00 -0.11292254349E+02  0.15909136981E+02  0.00000000000E+00 0. -1.
</event>
<event>
 7    1  0.5748623E-013  0.5052885E+02  0.7816164E-02  0.1300439E+00
        -11   -1    0    0    0    0  0.00000000000E+00  0.00000000000E+00  0.45593999997E+02  0.45594000000E+02  0.51100000000E-03 0.  1.
         11   -1    0    0    0    0 -0.00000000000E+00 -0.00000000000E+00 -0.45593999997E+02  0.45594000000E+02  0.51100000000E-03 0. -1.
    9900012    2    1    2    0    0  0.11786954622E+02 -0.17605611510E+02  0.34702686833E+02  0.50528851837E+02  0.29999975645E+02 0.  0.
         12    1    1    2    0    0 -0.11786954622E+02  0.17605611510E+02 -0.34702686833E+02  0.40659148163E+02  0.00000000000E+00 0. -1.
         11    1    3    3    0    0  0.58248655326E+01 -0.18636696606E+00 -0.27934556946E+01  0.64627537550E+01  0.51100000000E-03 0. -1.
        -11    1    3    3    0    0  0.21275895725E+01 -0.94291116891E+01  0.32468371912E+02  0.33876687553E+02  0.51100000000E-03 0.  1.
        -12    1    3    3    0    0  0.38344995169E+01 -0.79901328552E+01  0.50277706148E+01  0.10189410530E+02  0.00000000000E+00 0.  1.
</event>
<event>
 7    1  0.5748623E-013  0.5052886E+02  0.7816164E-02  0.1300439E+00
        -11   -1    0    0    0    0  0.00000000000E+00  0.00000000000E+00  0.45593999997E+02  0.45594000000E+02  0.51100000000E-03 0. -1.
         11   -1    0    0    0    0 -0.00000000000E+00 -0.00000000000E+00 -0.45593999997E+02  0.45594000000E+02  0.51100000000E-03 0.  1.
    9900012    2    1    2    0    0  0.72002576804E+01  0.70494552904E+01 -0.39390693494E+02  0.50528864932E+02  0.30000015447E+02 0.  0.
         12    1    1    2    0    0 -0.72002576804E+01 -0.70494552904E+01  0.39390693494E+02  0.40659135068E+02  0.00000000000E+00 0. -1.
         11    1    3    3    0    0  0.83325975408E+01 -0.60244911265E+01 -0.44854345903E+01  0.11218101392E+02  0.51100000000E-03 0. -1.
        -11    1    3    3    0    0 -0.14578228913E+01  0.52870808272E+01 -0.29048700575E+02  0.29561892304E+02  0.51100000000E-03 0.  1.
        -12    1    3    3    0    0  0.32548303090E+00  0.77868655897E+01 -0.58565583288E+01  0.97488712359E+01  0.00000000000E+00 0.  1.
</event>
<event>
 7    1  0.5748623E-013  0.5052885E+02  0.7816164E-02  0.1300439E+00
        -11   -1    0    0    0    0  0.00000000000E+00  0.00000000000E+00  0.45593999997E+02  0.45594000000E+02  0.51100000000E-03 0. -1.
         11   -1    0    0    0    0 -0.00000000000E+00 -0.00000000000E+00 -0.45593999997E+02  0.45594000000E+02  0.51100000000E-03 0.  1.
    9900012    2    1    2    0    0  0.22098374714E+02 -0.28768552622E+02  0.18362966636E+02  0.50528851846E+02  0.29999975670E+02 0.  0.
         12    1    1    2    0    0 -0.22098374714E+02  0.28768552622E+02 -0.18362966636E+02  0.40659148154E+02  0.00000000000E+00 0. -1.
         11    1    3    3    0    0  0.27788793241E+01  0.46197354749E+01 -0.19266709909E+01  0.57250491286E+01  0.51100000000E-03 0. -1.
        -11    1    3    3    0    0  0.15752068297E+02 -0.31223997495E+02  0.14966696863E+02  0.38040342933E+02  0.51100000000E-03 0.  1.
        -12    1    3    3    0    0  0.35674270924E+01 -0.21642906019E+01  0.53229407640E+01  0.67634597838E+01  0.00000000000E+00 0.  1.
</event>
<event>
 7    1  0.5748623E-013  0.5052886E+02  0.7816164E-02  0.1300439E+00
        -11   -1    0    0    0    0  0.00000000000E+00  0.00000000000E+00  0.45593999997E+02  0.45594000000E+02  0.51100000000E-03 0.  1.
         11   -1    0    0    0    0 -0.00000000000E+00 -0.00000000000E+00 -0.45593999997E+02  0.45594000000E+02  0.51100000000E-03 0. -1.
    9900012    2    1    2    0    0  0.22306504425E+02 -0.31255046631E+02  0.13368153389E+02  0.50528860750E+02  0.30000002734E+02 0.  0.
         12    1    1    2    0    0 -0.22306504425E+02  0.31255046631E+02 -0.13368153389E+02  0.40659139250E+02  0.00000000000E+00 0. -1.
         11    1    3    3    0    0  0.11661661179E+02 -0.28173407025E+02  0.43803165999E+01  0.30804583727E+02  0.51100000000E-03 0. -1.
        -11    1    3    3    0    0 -0.24271721070E+01  0.23454973318E+01  0.21819675049E+01  0.40191422747E+01  0.51100000000E-03 0.  1.
         12    1    3    3    0    0  0.13072015353E+02 -0.54271369381E+01  0.68058692838E+01  0.15705134747E+02  0.00000000000E+00 0. -1.
</event>
<event>
 7    1  0.5748623E-013  0.5052878E+02  0.7816164E-02  0.1300439E+00
        -11   -1    0    0    0    0  0.00000000000E+00  0.00000000000E+00  0.45593999997E+02  0.45594000000E+02  0.51100000000E-03 0.  1.
         11   -1    0    0    0    0 -0.00000000000E+00 -0.00000000000E+00 -0.45593999997E+02  0.45594000000E+02  0.51100000000E-03 0. -1.
    9900012    2    1    2    0    0 -0.28485340016E+02 -0.13830782823E+02  0.25504247465E+02  0.50528784709E+02  0.29999771601E+02 0.  0.
         12    1    1    2    0    0  0.28485340016E+02  0.13830782823E+02 -0.25504247465E+02  0.40659215291E+02  0.00000000000E+00 0. -1.
         11    1    3    3    0    0 -0.26746404591E+02 -0.53336710887E+01  0.15362482910E+02  0.31302141896E+02  0.51100000000E-03 0.  1.
        -11    1    3    3    0    0  0.46484511916E+01  0.11058284137E+01  0.25136840993E+01  0.53990335222E+01  0.51100000000E-03 0. -1.
         12    1    3    3    0    0 -0.63873866165E+01 -0.96029401482E+01  0.76280804551E+01  0.13827609291E+02  0.00000000000E+00 0. -1.
</event>
<event>
 7    1  0.5748623E-013  0.5052885E+02  0.7816164E-02  0.1300439E+00
        -11   -1    0    0    0    0  0.00000000000E+00  0.00000000000E+00  0.45593999997E+02  0.45594000000E+02  0.51100000000E-03 0. -1.
         11   -1    0    0    0    0 -0.00000000000E+00 -0.00000000000E+00 -0.45593999997E+02  0.45594000000E+02  0.51100000000E-03 0.  1.
    9900012    2    1    2    0    0  0.10678518170E+02  0.79721153740E+00 -0.39223717711E+02  0.50528851858E+02  0.29999975708E+02 0.  0.
         12    1    1    2    0    0 -0.10678518170E+02 -0.79721153740E+00  0.39223717711E+02  0.40659148142E+02  0.00000000000E+00 0. -1.
         11    1    3    3    0    0  0.76991615787E+01 -0.39591666054E+01  0.17279083541E+01  0.88282363338E+01  0.51100000000E-03 0. -1.
        -11    1    3    3    0    0 -0.15049877473E+01  0.13496201671E+01 -0.15637360519E+02  0.15767482582E+02  0.51100000000E-03 0.  1.
         12    1    3    3    0    0  0.44843443382E+01  0.34067579757E+01 -0.25314265546E+02  0.25933132942E+02  0.00000000000E+00 0. -1.
</event>
<event>
 7    1  0.5748623E-013  0.5052887E+02  0.7816164E-02  0.1300439E+00
        -11   -1    0    0    0    0  0.00000000000E+00  0.00000000000E+00  0.45593999997E+02  0.45594000000E+02  0.51100000000E-03 0. -1.
         11   -1    0    0    0    0 -0.00000000000E+00 -0.00000000000E+00 -0.45593999997E+02  0.45594000000E+02  0.51100000000E-03 0.  1.
    9900012    2    1    2    0    0 -0.36094142353E+01 -0.14134970448E+02 -0.37951808841E+02  0.50528867509E+02  0.30000023279E+02 0.  0.
         12    1    1    2    0    0  0.36094142353E+01  0.14134970448E+02  0.37951808841E+02  0.40659132491E+02  0.00000000000E+00 0. -1.
         11    1    3    3    0    0 -0.13724114801E+02 -0.13414906397E+02 -0.17488878240E+02  0.25964820490E+02  0.51100000000E-03 0. -1.
        -11    1    3    3    0    0  0.49939736392E+01 -0.23383305200E+01 -0.17670844294E+02  0.18511247949E+02  0.51100000000E-03 0.  1.
         12    1    3    3    0    0  0.51207269270E+01  0.16182664694E+01 -0.27920863072E+01  0.60527990693E+01  0.00000000000E+00 0. -1.
</event>
<event>
 7    1  0.5748623E-013  0.5052887E+02  0.7816164E-02  0.1300439E+00
        -11   -1    0    0    0    0  0.00000000000E+00  0.00000000000E+00  0.45593999997E+02  0.45594000000E+02  0.51100000000E-03 0.  1.
         11   -1    0    0    0    0 -0.00000000000E+00 -0.00000000000E+00 -0.45593999997E+02  0.45594000000E+02  0.51100000000E-03 0. -1.
    9900012    2    1    2    0    0  0.28299660845E+02  0.23506996428E+02  0.17312287315E+02  0.50528868466E+02  0.30000026190E+02 0.  0.
         12    1    1    2    0    0 -0.28299660845E+02 -0.23506996428E+02 -0.17312287315E+02  0.40659131534E+02  0.00000000000E+00 0. -1.
         11    1    3    3    0    0  0.11056545641E+02 -0.89766234636E+00 -0.10576666718E+01  0.11143233743E+02  0.51100000000E-03 0. -1.
        -11    1    3    3    0    0  0.16480871140E+02  0.22871607008E+02  0.86097230604E+01  0.29476377866E+02  0.51100000000E-03 0.  1.
        -12    1    3    3    0    0  0.76224406438E+00  0.15330517666E+01  0.97602309265E+01  0.99092568577E+01  0.00000000000E+00 0.  1.
</event>
<event>
 7    1  0.5748623E-013  0.5052885E+02  0.7816164E-02  0.1300439E+00
        -11   -1    0    0    0    0  0.00000000000E+00  0.00000000000E+00  0.45593999997E+02  0.45594000000E+02  0.51100000000E-03 0.  1.
         11   -1    0    0    0    0 -0.00000000000E+00 -0.00000000000E+00 -0.45593999997E+02  0.45594000000E+02  0.51100000000E-03 0. -1.
    9900012    2    1    2    0    0 -0.24394710271E+02  0.29349382499E+01  0.32395222626E+02  0.50528853419E+02  0.29999980451E+02 0.  0.
         12    1    1    2    0    0  0.24394710271E+02 -0.29349382499E+01 -0.32395222626E+02  0.40659146581E+02  0.00000000000E+00 0. -1.
         11    1    3    3    0    0 -0.10768927970E+02 -0.22200763747E+01 -0.17848390556E+01  0.11139308751E+02  0.51100000000E-03 0. -1.
        -11    1    3    3    0    0 -0.13414829785E+02  0.39325865432E+01  0.35141595350E+02  0.37820029337E+02  0.51100000000E-03 0.  1.
        -12    1    3    3    0    0 -0.21095251558E+00  0.12224280814E+01 -0.96153366784E+00  0.15695153305E+01  0.00000000000E+00 0.  1.
</event>
<event>
 7    1  0.5748623E-013  0.5052886E+02  0.7816164E-02  0.1300439E+00
        -11   -1    0    0    0    0  0.00000000000E+00  0.00000000000E+00  0.45593999997E+02  0.45594000000E+02  0.51100000000E-03 0. -1.
         11   -1    0    0    0    0 -0.00000000000E+00 -0.00000000000E+00 -0.45593999997E+02  0.45594000000E+02  0.51100000000E-03 0.  1.
    9900012    2    1    2    0    0 -0.38568314739E+02  0.55706778463E+01 -0.11602511677E+02  0.50528860429E+02  0.30000001760E+02 0.  0.
         12    1    1    2    0    0  0.38568314739E+02 -0.55706778463E+01  0.11602511677E+02  0.40659139571E+02  0.00000000000E+00 0. -1.
         11    1    3    3    0    0 -0.82913916771E+01 -0.71270675823E+01  0.23102081647E+01  0.11174942071E+02  0.51100000000E-03 0. -1.
        -11    1    3    3    0    0 -0.26223128240E+02  0.12213409274E+02 -0.47399155611E+01  0.29313591056E+02  0.51100000000E-03 0.  1.
        -12    1    3    3    0    0 -0.40537948218E+01  0.48433615405E+00 -0.91728042806E+01  0.10040327302E+02  0.00000000000E+00 0.  1.
</event>
<event>
 7    1  0.5748623E-013  0.5052886E+02  0.7816164E-02  0.1300439E+00
        -11   -1    0    0    0    0  0.00000000000E+00  0.00000000000E+00  0.45593999997E+02  0.45594000000E+02  0.51100000000E-03 0. -1.
         11   -1    0    0    0    0 -0.00000000000E+00 -0.00000000000E+00 -0.45593999997E+02  0.45594000000E+02  0.51100000000E-03 0.  1.
    9900012    2    1    2    0    0 -0.34277779285E+02  0.21649490281E+02 -0.30821227273E+01  0.50528855117E+02  0.29999985612E+02 0.  0.
         12    1    1    2    0    0  0.34277779285E+02 -0.21649490281E+02  0.30821227273E+01  0.40659144883E+02  0.00000000000E+00 0. -1.
         11    1    3    3    0    0  0.20168378875E+01 -0.16857575673E+01 -0.11644367736E+01  0.28749481563E+01  0.51100000000E-03 0. -1.
        -11    1    3    3    0    0 -0.34894803614E+02  0.26634303177E+02 -0.81936997977E+00  0.43905635087E+02  0.51100000000E-03 0.  1.
        -12    1    3    3    0    0 -0.13998135587E+01 -0.32990553283E+01 -0.10983159740E+01  0.37482718734E+01  0.00000000000E+00 0.  1.
</event>
<event>
 7    1  0.5748623E-013  0.5052886E+02  0.7816164E-02  0.1300439E+00
        -11   -1    0    0    0    0  0.00000000000E+00  0.00000000000E+00  0.45593999997E+02  0.45594000000E+02  0.51100000000E-03 0.  1.
         11   -1    0    0    0    0 -0.00000000000E+00 -0.00000000000E+00 -0.45593999997E+02  0.45594000000E+02  0.51100000000E-03 0. -1.
    9900012    2    1    2    0    0  0.49072115090E+01  0.27874847099E+02  0.29190375253E+02  0.50528857941E+02  0.29999994197E+02 0.  0.
         12    1    1    2    0    0 -0.49072115090E+01 -0.27874847099E+02 -0.29190375253E+02  0.40659142059E+02  0.00000000000E+00 0. -1.
         11    1    3    3    0    0  0.53292572152E+01  0.89273348500E+00 -0.27542261249E+01  0.60649581490E+01  0.51100000000E-03 0. -1.
        -11    1    3    3    0    0 -0.32365962607E+01  0.51088668802E+01  0.16408067593E+02  0.17487159819E+02  0.51100000000E-03 0.  1.
         12    1    3    3    0    0  0.28145505546E+01  0.21873246734E+02  0.15536533785E+02  0.26976739972E+02  0.00000000000E+00 0. -1.
</event>
<event>
 7    1  0.5748623E-013  0.5052884E+02  0.7816164E-02  0.1300439E+00
        -11   -1    0    0    0    0  0.00000000000E+00  0.00000000000E+00  0.45593999997E+02  0.45594000000E+02  0.51100000000E-03 0. -1.
         11   -1    0    0    0    0 -0.00000000000E+00 -0.00000000000E+00 -0.45593999997E+02  0.45594000000E+02  0.51100000000E-03 0.  1.
    9900012    2    1    2    0    0  0.89429752098E+01 -0.39531446507E+02 -0.32334141773E+01  0.50528843150E+02  0.29999949237E+02 0.  0.
         12    1    1    2    0    0 -0.89429752098E+01  0.39531446507E+02  0.32334141773E+01  0.40659156850E+02  0.00000000000E+00 0. -1.
         11    1    3    3    0    0  0.22757606832E+01 -0.24659350682E+02  0.26262462104E+01  0.24903008496E+02  0.51100000000E-03 0.  1.
        -11    1    3    3    0    0 -0.10411475798E+01  0.19257951356E+01  0.40875650123E+01  0.46369023257E+01  0.51100000000E-03 0. -1.
        -12    1    3    3    0    0  0.77083621065E+01 -0.16797890961E+02 -0.99472254000E+01  0.20988932328E+02  0.00000000000E+00 0.  1.
</event>
<event>
 7    1  0.5748623E-013  0.5052886E+02  0.7816164E-02  0.1300439E+00
        -11   -1    0    0    0    0  0.00000000000E+00  0.00000000000E+00  0.45593999997E+02  0.45594000000E+02  0.51100000000E-03 0.  1.
         11   -1    0    0    0    0 -0.00000000000E+00 -0.00000000000E+00 -0.45593999997E+02  0.45594000000E+02  0.51100000000E-03 0. -1.
    9900012    2    1    2    0    0  0.23299374084E+02 -0.47072128487E+01  0.32987077269E+02  0.50528856474E+02  0.29999989738E+02 0.  0.
         12    1    1    2    0    0 -0.23299374084E+02  0.47072128487E+01 -0.32987077269E+02  0.40659143526E+02  0.00000000000E+00 0. -1.
         11    1    3    3    0    0  0.15510464372E+01 -0.12654198008E+02  0.16596716799E+02  0.20928102662E+02  0.51100000000E-03 0. -1.
        -11    1    3    3    0    0  0.13155300821E+02  0.70642308933E+01  0.14382675252E+02  0.20732260983E+02  0.51100000000E-03 0.  1.
         12    1    3    3    0    0  0.85930268258E+01  0.88275426545E+00  0.20076852187E+01  0.88684928291E+01  0.00000000000E+00 0. -1.
</event>
<event>
 7    1  0.5748623E-013  0.5052885E+02  0.7816164E-02  0.1300439E+00
        -11   -1    0    0    0    0  0.00000000000E+00  0.00000000000E+00  0.45593999997E+02  0.45594000000E+02  0.51100000000E-03 0.  1.
         11   -1    0    0    0    0 -0.00000000000E+00 -0.00000000000E+00 -0.45593999997E+02  0.45594000000E+02  0.51100000000E-03 0. -1.
    9900012    2    1    2    0    0  0.24811168196E+02  0.31834043479E+02 -0.49158762933E+01  0.50528853044E+02  0.29999979312E+02 0.  0.
         12    1    1    2    0    0 -0.24811168196E+02 -0.31834043479E+02  0.49158762933E+01  0.40659146956E+02  0.00000000000E+00 0. -1.
         11    1    3    3    0    0 -0.49105496917E+01  0.25524457006E+01  0.46716402230E+01  0.72424236249E+01  0.51100000000E-03 0. -1.
        -11    1    3    3    0    0  0.22291188543E+02  0.18972428508E+02 -0.87460018366E+01  0.30550657579E+02  0.51100000000E-03 0.  1.
         12    1    3    3    0    0  0.74305293453E+01  0.10309169270E+02 -0.84151467973E+00  0.12735771840E+02  0.00000000000E+00 0. -1.
</event>
<event>
 7    1  0.5748623E-013  0.5052886E+02  0.7816164E-02  0.1300439E+00
        -11   -1    0    0    0    0  0.00000000000E+00  0.00000000000E+00  0.45593999997E+02  0.45594000000E+02  0.51100000000E-03 0.  1.
         11   -1    0    0    0    0 -0.00000000000E+00 -0.00000000000E+00 -0.45593999997E+02  0.45594000000E+02  0.51100000000E-03 0. -1.
    9900012    2    1    2    0    0 -0.24761813558E+02  0.10344133932E+02  0.30545335106E+02  0.50528855712E+02  0.29999987422E+02 0.  0.
         12    1    1    2    0    0  0.24761813558E+02 -0.10344133932E+02 -0.30545335106E+02  0.40659144288E+02  0.00000000000E+00 0. -1.
         11    1    3    3    0    0 -0.58529392331E+00  0.44959705147E+01 -0.41174823725E+01  0.61245392639E+01  0.51100000000E-03 0. -1.
        -11    1    3    3    0    0 -0.98240874217E+01  0.86165897408E+01  0.17923959848E+02  0.22181673727E+02  0.51100000000E-03 0.  1.
         12    1    3    3    0    0 -0.14352432213E+02 -0.27684263234E+01  0.16738857630E+02  0.22222642721E+02  0.00000000000E+00 0. -1.
</event>
<event>
 7    1  0.5748623E-013  0.5052886E+02  0.7816164E-02  0.1300439E+00
        -11   -1    0    0    0    0  0.00000000000E+00  0.00000000000E+00  0.45593999997E+02  0.45594000000E+02  0.51100000000E-03 0.  1.
         11   -1    0    0    0    0 -0.00000000000E+00 -0.00000000000E+00 -0.45593999997E+02  0.45594000000E+02  0.51100000000E-03 0. -1.
    9900012    2    1    2    0    0  0.34288255307E+02  0.18385870272E+02  0.11808512966E+02  0.50528860116E+02  0.30000000808E+02 0.  0.
         12    1    1    2    0    0 -0.34288255307E+02 -0.18385870272E+02 -0.11808512966E+02  0.40659139884E+02  0.00000000000E+00 0. -1.
         11    1    3    3    0    0  0.83732170599E+00 -0.22900678476E+01 -0.19880248544E+01  0.31460707985E+01  0.51100000000E-03 0. -1.
        -11    1    3    3    0    0  0.28492342187E+02  0.19865477197E+02  0.19458377556E+02  0.39813053198E+02  0.51100000000E-03 0.  1.
        -12    1    3    3    0    0  0.49585914138E+01  0.81046092302E+00 -0.56618397364E+01  0.75697361194E+01  0.00000000000E+00 0.  1.
</event>
<event>
 7    1  0.5748623E-013  0.5052887E+02  0.7816164E-02  0.1300439E+00
        -11   -1    0    0    0    0  0.00000000000E+00  0.00000000000E+00  0.45593999997E+02  0.45594000000E+02  0.51100000000E-03 0.  1.
         11   -1    0    0    0    0 -0.00000000000E+00 -0.00000000000E+00 -0.45593999997E+02  0.45594000000E+02  0.51100000000E-03 0. -1.
    9900012    2    1    2    0    0 -0.39387619335E+02  0.19941333377E+01  0.98895949153E+01  0.50528865574E+02  0.30000017400E+02 0.  0.
         12    1    1    2    0    0  0.39387619335E+02 -0.19941333377E+01 -0.98895949153E+01  0.40659134426E+02  0.00000000000E+00 0. -1.
         11    1    3    3    0    0 -0.36873023654E+01 -0.57180378269E+01  0.10948947846E+02  0.12890756942E+02  0.51100000000E-03 0. -1.
        -11    1    3    3    0    0 -0.14165116992E+02  0.41928863200E+01  0.38620920725E+01  0.15269138500E+02  0.51100000000E-03 0.  1.
         12    1    3    3    0    0 -0.21535199978E+02  0.35192848446E+01 -0.49214450034E+01  0.22368970133E+02  0.00000000000E+00 0. -1.
</event>
<event>
 7    1  0.5748623E-013  0.5052886E+02  0.7816164E-02  0.1300439E+00
        -11   -1    0    0    0    0  0.00000000000E+00  0.00000000000E+00  0.45593999997E+02  0.45594000000E+02  0.51100000000E-03 0. -1.
         11   -1    0    0    0    0 -0.00000000000E+00 -0.00000000000E+00 -0.45593999997E+02  0.45594000000E+02  0.51100000000E-03 0.  1.
    9900012    2    1    2    0    0 -0.15097741601E+02 -0.52653399331E+01 -0.37383154845E+02  0.50528857458E+02  0.29999992730E+02 0.  0.
         12    1    1    2    0    0  0.15097741601E+02  0.52653399331E+01  0.37383154845E+02  0.40659142542E+02  0.00000000000E+00 0. -1.
         11    1    3    3    0    0  0.91267872913E+00  0.11682043532E+01 -0.73323331844E+00  0.16538788450E+01  0.51100000000E-03 0. -1.
        -11    1    3    3    0    0 -0.22290364012E+01  0.63991459657E+01 -0.26760603491E+02  0.27605209143E+02  0.51100000000E-03 0.  1.
        -12    1    3    3    0    0 -0.13781383929E+02 -0.12832690252E+02 -0.98893180356E+01  0.21269769470E+02  0.00000000000E+00 0.  1.
</event>
<event>
 7    1  0.5748623E-013  0.5052880E+02  0.7816164E-02  0.1300439E+00
        -11   -1    0    0    0    0  0.00000000000E+00  0.00000000000E+00  0.45593999997E+02  0.45594000000E+02  0.51100000000E-03 0. -1.
         11   -1    0    0    0    0 -0.00000000000E+00 -0.00000000000E+00 -0.45593999997E+02  0.45594000000E+02  0.51100000000E-03 0.  1.
    9900012    2    1    2    0    0  0.10155437771E+01 -0.40609590030E+02 -0.17321878524E+01  0.50528799241E+02  0.29999815773E+02 0.  0.
         12    1    1    2    0    0 -0.10155437771E+01  0.40609590030E+02  0.17321878524E+01  0.40659200759E+02  0.00000000000E+00 0. -1.
         11    1    3    3    0    0 -0.76607727923E+01 -0.17199034476E+02  0.11675517758E+02  0.22154275927E+02  0.51100000000E-03 0. -1.
        -11    1    3    3    0    0  0.53347866624E+01 -0.13267631474E+02 -0.83347822366E+01  0.16551694441E+02  0.51100000000E-03 0.  1.
         12    1    3    3    0    0  0.33415299070E+01 -0.10142924080E+02 -0.50729233733E+01  0.11822828873E+02  0.00000000000E+00 0. -1.
</event>
<event>
 7    1  0.5748623E-013  0.5052886E+02  0.7816164E-02  0.1300439E+00
        -11   -1    0    0    0    0  0.00000000000E+00  0.00000000000E+00  0.45593999997E+02  0.45594000000E+02  0.51100000000E-03 0.  1.
         11   -1    0    0    0    0 -0.00000000000E+00 -0.00000000000E+00 -0.45593999997E+02  0.45594000000E+02  0.51100000000E-03 0. -1.
    9900012    2    1    2    0    0  0.10727187226E+02  0.19537016833E+02  0.34005855648E+02  0.50528858459E+02  0.29999995771E+02 0.  0.
         12    1    1    2    0    0 -0.10727187226E+02 -0.19537016833E+02 -0.34005855648E+02  0.40659141541E+02  0.00000000000E+00 0. -1.
         11    1    3    3    0    0  0.80002963743E+01 -0.37107726444E+01  0.56338370695E+01  0.10464926951E+02  0.51100000000E-03 0. -1.
        -11    1    3    3    0    0  0.39918287459E+01  0.22142250718E+02  0.30148811049E+02  0.37618675834E+02  0.51100000000E-03 0.  1.
        -12    1    3    3    0    0 -0.12649378940E+01  0.11055387598E+01 -0.17767924710E+01  0.24452556738E+01  0.00000000000E+00 0.  1.
</event>
<event>
 7    1  0.5748623E-013  0.5052885E+02  0.7816164E-02  0.1300439E+00
        -11   -1    0    0    0    0  0.00000000000E+00  0.00000000000E+00  0.45593999997E+02  0.45594000000E+02  0.51100000000E-03 0. -1.
         11   -1    0    0    0    0 -0.00000000000E+00 -0.00000000000E+00 -0.45593999997E+02  0.45594000000E+02  0.51100000000E-03 0.  1.
    9900012    2    1    2    0    0  0.56055826657E+01  0.36816947348E+02 -0.16317352837E+02  0.50528853764E+02  0.29999981501E+02 0.  0.
         12    1    1    2    0    0 -0.56055826657E+01 -0.36816947348E+02  0.16317352837E+02  0.40659146236E+02  0.00000000000E+00 0. -1.
         11    1    3    3    0    0  0.28568309223E+00 -0.42606404160E+01 -0.44020874297E+01  0.61329475445E+01  0.51100000000E-03 0. -1.
        -11    1    3    3    0    0  0.80671916533E+01  0.27450857366E+02 -0.57243314673E+01  0.29178710086E+02  0.51100000000E-03 0.  1.
         12    1    3    3    0    0 -0.27472920798E+01  0.13626730398E+02 -0.61909339402E+01  0.15217196133E+02  0.00000000000E+00 0. -1.
</event>
<event>
 7    1  0.5748623E-013  0.5052886E+02  0.7816164E-02  0.1300439E+00
        -11   -1    0    0    0    0  0.00000000000E+00  0.00000000000E+00  0.45593999997E+02  0.45594000000E+02  0.51100000000E-03 0. -1.
         11   -1    0    0    0    0 -0.00000000000E+00 -0.00000000000E+00 -0.45593999997E+02  0.45594000000E+02  0.51100000000E-03 0.  1.
    9900012    2    1    2    0    0 -0.39045696136E+01  0.97207669704E+01 -0.39286466570E+02  0.50528862898E+02  0.30000009263E+02 0.  0.
         12    1    1    2    0    0  0.39045696136E+01 -0.97207669704E+01  0.39286466570E+02  0.40659137102E+02  0.00000000000E+00 0. -1.
         11    1    3    3    0    0  0.32621083898E+01 -0.54114348119E+01 -0.26054118064E+02  0.26809364898E+02  0.51100000000E-03 0. -1.
        -11    1    3    3    0    0 -0.52404045845E+01  0.14335500113E+02 -0.63554452997E+01  0.16533604837E+02  0.51100000000E-03 0.  1.
        -12    1    3    3    0    0 -0.19262734189E+01  0.79670166941E+00 -0.68769032063E+01  0.71858931626E+01  0.00000000000E+00 0.  1.
</event>
<event>
 7    1  0.5748623E-013  0.5052888E+02  0.7816164E-02  0.1300439E+00
        -11   -1    0    0    0    0  0.00000000000E+00  0.00000000000E+00  0.45593999997E+02  0.45594000000E+02  0.51100000000E-03 0.  1.
         11   -1    0    0    0    0 -0.00000000000E+00 -0.00000000000E+00 -0.45593999997E+02  0.45594000000E+02  0.51100000000E-03 0. -1.
    9900012    2    1    2    0    0 -0.11953805855E+02  0.27844653964E+02  0.27109887997E+02  0.50528877334E+02  0.30000053143E+02 0.  0.
         12    1    1    2    0    0  0.11953805855E+02 -0.27844653964E+02 -0.27109887997E+02  0.40659122666E+02  0.00000000000E+00 0. -1.
         11    1    3    3    0    0 -0.13044666168E+02  0.18291939412E+02  0.17554713909E+02  0.28511863208E+02  0.51100000000E-03 0. -1.
        -11    1    3    3    0    0  0.77773801385E+01  0.72949884270E+01  0.10417240737E+02  0.14907159448E+02  0.51100000000E-03 0.  1.
         12    1    3    3    0    0 -0.66865198253E+01  0.22577261246E+01 -0.86206664948E+00  0.71098546775E+01  0.00000000000E+00 0. -1.
</event>
<event>
 7    1  0.7351172E-013  0.5052886E+02  0.7816164E-02  0.1300439E+00
        -11   -1    0    0    0    0  0.00000000000E+00  0.00000000000E+00  0.45593999997E+02  0.45594000000E+02  0.51100000000E-03 0. -1.
         11   -1    0    0    0    0 -0.00000000000E+00 -0.00000000000E+00 -0.45593999997E+02  0.45594000000E+02  0.51100000000E-03 0.  1.
    9900012    2    1    2    0    0 -0.19916182858E+02  0.31367372359E+02 -0.16510583688E+02  0.50528858813E+02  0.29999996848E+02 0.  0.
         12    1    1    2    0    0  0.19916182858E+02 -0.31367372359E+02  0.16510583688E+02  0.40659141187E+02  0.00000000000E+00 0. -1.
         11    1    3    3    0    0  0.13921261253E+01 -0.24109487126E+01  0.12573534418E+00  0.27868438208E+01  0.51100000000E-03 0. -1.
        -11    1    3    3    0    0 -0.23275527331E+02  0.20657212633E+02 -0.14387041962E+02  0.34284946886E+02  0.51100000000E-03 0.  1.
        -12    1    3    3    0    0  0.19672183473E+01  0.13121108438E+02 -0.22492770695E+01  0.13457068106E+02  0.00000000000E+00 0.  1.
</event>
<event>
 7    1  0.5748623E-013  0.5052885E+02  0.7816164E-02  0.1300439E+00
        -11   -1    0    0    0    0  0.00000000000E+00  0.00000000000E+00  0.45593999997E+02  0.45594000000E+02  0.51100000000E-03 0.  1.
         11   -1    0    0    0    0 -0.00000000000E+00 -0.00000000000E+00 -0.45593999997E+02  0.45594000000E+02  0.51100000000E-03 0. -1.
    9900012    2    1    2    0    0  0.26692014772E+02  0.22655456139E+02  0.20674447949E+02  0.50528854123E+02  0.29999982592E+02 0.  0.
         12    1    1    2    0    0 -0.26692014772E+02 -0.22655456139E+02 -0.20674447949E+02  0.40659145877E+02  0.00000000000E+00 0. -1.
         11    1    3    3    0    0  0.23607931689E+01  0.44593345523E+01  0.17462833846E+02  0.18177171816E+02  0.51100000000E-03 0. -1.
        -11    1    3    3    0    0  0.20974944355E+02  0.13008138337E+02 -0.12774116790E+01  0.24714201070E+02  0.51100000000E-03 0.  1.
        -12    1    3    3    0    0  0.33562772482E+01  0.51879832495E+01  0.44890257814E+01  0.76374812360E+01  0.00000000000E+00 0.  1.
</event>
<event>
 7    1  0.5748623E-013  0.5052886E+02  0.7816164E-02  0.1300439E+00
        -11   -1    0    0    0    0  0.00000000000E+00  0.00000000000E+00  0.45593999997E+02  0.45594000000E+02  0.51100000000E-03 0. -1.
         11   -1    0    0    0    0 -0.00000000000E+00 -0.00000000000E+00 -0.45593999997E+02  0.45594000000E+02  0.51100000000E-03 0.  1.
    9900012    2    1    2    0    0  0.15773073656E+01  0.45505044883E+01 -0.40372899786E+02  0.50528855558E+02  0.29999986953E+02 0.  0.
         12    1    1    2    0    0 -0.15773073656E+01 -0.45505044883E+01  0.40372899786E+02  0.40659144442E+02  0.00000000000E+00 0. -1.
         11    1    3    3    0    0 -0.23964383055E+01  0.95169812963E+01 -0.34473131207E+02  0.35842888068E+02  0.51100000000E-03 0. -1.
        -11    1    3    3    0    0  0.75192052202E+01 -0.23969387112E+01 -0.65541204494E+01  0.10258667431E+02  0.51100000000E-03 0.  1.
         12    1    3    3    0    0 -0.35454595491E+01 -0.25695380967E+01  0.65435187001E+00  0.44273000592E+01  0.00000000000E+00 0. -1.
</event>
<event>
 7    1  0.5748623E-013  0.5052886E+02  0.7816164E-02  0.1300439E+00
        -11   -1    0    0    0    0  0.00000000000E+00  0.00000000000E+00  0.45593999997E+02  0.45594000000E+02  0.51100000000E-03 0.  1.
         11   -1    0    0    0    0 -0.00000000000E+00 -0.00000000000E+00 -0.45593999997E+02  0.45594000000E+02  0.51100000000E-03 0. -1.
    9900012    2    1    2    0    0  0.52588549385E+00  0.39312078267E+02  0.10365808801E+02  0.50528855329E+02  0.29999986259E+02 0.  0.
         12    1    1    2    0    0 -0.52588549385E+00 -0.39312078267E+02 -0.10365808801E+02  0.40659144671E+02  0.00000000000E+00 0. -1.
         11    1    3    3    0    0 -0.65648041250E+01  0.94858589862E+01 -0.44939726784E+01  0.12380386286E+02  0.51100000000E-03 0. -1.
        -11    1    3    3    0    0  0.81149227426E+01  0.19997691400E+02  0.16401604463E+01  0.21643700215E+02  0.51100000000E-03 0.  1.
         12    1    3    3    0    0 -0.10242331237E+01  0.98285278806E+01  0.13219621033E+02  0.16504768828E+02  0.00000000000E+00 0. -1.
</event>
<event>
 7    1  0.5748623E-013  0.5052886E+02  0.7816164E-02  0.1300439E+00
        -11   -1    0    0    0    0  0.00000000000E+00  0.00000000000E+00  0.45593999997E+02  0.45594000000E+02  0.51100000000E-03 0.  1.
         11   -1    0    0    0    0 -0.00000000000E+00 -0.00000000000E+00 -0.45593999997E+02  0.45594000000E+02  0.51100000000E-03 0. -1.
    9900012    2    1    2    0    0  0.62000767244E+01  0.38469473827E+02  0.11611383496E+02  0.50528860872E+02  0.30000003106E+02 0.  0.
         12    1    1    2    0    0 -0.62000767244E+01 -0.38469473827E+02 -0.11611383496E+02  0.40659139128E+02  0.00000000000E+00 0. -1.
         11    1    3    3    0    0  0.10789995427E+02  0.15306064728E+02 -0.15640873581E+01  0.18792178913E+02  0.51100000000E-03 0. -1.
        -11    1    3    3    0    0  0.20456677351E+01  0.12633778547E+02  0.14358613965E+02  0.19234523963E+02  0.51100000000E-03 0.  1.
         12    1    3    3    0    0 -0.66355864373E+01  0.10529630552E+02 -0.11831431100E+01  0.12502157996E+02  0.00000000000E+00 0. -1.
</event>
<event>
 7    1  0.5748623E-013  0.5052886E+02  0.7816164E-02  0.1300439E+00
        -11   -1    0    0    0    0  0.00000000000E+00  0.00000000000E+00  0.45593999997E+02  0.45594000000E+02  0.51100000000E-03 0.  1.
         11   -1    0    0    0    0 -0.00000000000E+00 -0.00000000000E+00 -0.45593999997E+02  0.45594000000E+02  0.51100000000E-03 0. -1.
    9900012    2    1    2    0    0 -0.33596425283E+02  0.10235428245E+02  0.20486142769E+02  0.50528857994E+02  0.29999994358E+02 0.  0.
         12    1    1    2    0    0  0.33596425283E+02 -0.10235428245E+02 -0.20486142769E+02  0.40659142006E+02  0.00000000000E+00 0. -1.
         11    1    3    3    0    0 -0.71847211510E+00  0.12656900071E+01 -0.30925325415E+00  0.14878881714E+01  0.51100000000E-03 0.  1.
        -11    1    3    3    0    0 -0.24251638745E+02  0.15059018600E+02  0.34772897040E+01  0.28757739253E+02  0.51100000000E-03 0. -1.
        -12    1    3    3    0    0 -0.86263144229E+01 -0.60892803624E+01  0.17318106319E+02  0.20283230570E+02  0.00000000000E+00 0.  1.
</event>
<event>
 7    1  0.5748623E-013  0.5052885E+02  0.7816164E-02  0.1300439E+00
        -11   -1    0    0    0    0  0.00000000000E+00  0.00000000000E+00  0.45593999997E+02  0.45594000000E+02  0.51100000000E-03 0. -1.
         11   -1    0    0    0    0 -0.00000000000E+00 -0.00000000000E+00 -0.45593999997E+02  0.45594000000E+02  0.51100000000E-03 0.  1.
    9900012    2    1    2    0    0  0.37390585728E+02 -0.71584631520E+01 -0.14278204533E+02  0.50528848257E+02  0.29999964763E+02 0.  0.
         12    1    1    2    0    0 -0.37390585728E+02  0.71584631520E+01  0.14278204533E+02  0.40659151743E+02  0.00000000000E+00 0. -1.
         11    1    3    3    0    0 -0.43131514901E+01 -0.34259392247E+01 -0.31689274103E+00  0.55173142577E+01  0.51100000000E-03 0. -1.
        -11    1    3    3    0    0  0.20058335483E+02 -0.42251005350E+01 -0.29127678774E+01  0.20704408077E+02  0.51100000000E-03 0.  1.
         12    1    3    3    0    0  0.21645401735E+02  0.49257660771E+00 -0.11048543914E+02  0.24307125922E+02  0.00000000000E+00 0. -1.
</event>
<event>
 7    1  0.5748623E-013  0.5052884E+02  0.7816164E-02  0.1300439E+00
        -11   -1    0    0    0    0  0.00000000000E+00  0.00000000000E+00  0.45593999997E+02  0.45594000000E+02  0.51100000000E-03 0.  1.
         11   -1    0    0    0    0 -0.00000000000E+00 -0.00000000000E+00 -0.45593999997E+02  0.45594000000E+02  0.51100000000E-03 0. -1.
    9900012    2    1    2    0    0 -0.22435660142E+02  0.24353238100E+02  0.23595093929E+02  0.50528837325E+02  0.29999931532E+02 0.  0.
         12    1    1    2    0    0  0.22435660142E+02 -0.24353238100E+02 -0.23595093929E+02  0.40659162675E+02  0.00000000000E+00 0. -1.
         11    1    3    3    0    0 -0.65701175963E+01  0.22540985735E+02  0.10660647549E+02  0.25785885472E+02  0.51100000000E-03 0. -1.
        -11    1    3    3    0    0 -0.70136319702E+01 -0.45266508063E+01  0.10797021399E+02  0.13647610497E+02  0.51100000000E-03 0.  1.
         12    1    3    3    0    0 -0.88519105751E+01  0.63389031714E+01  0.21374249809E+01  0.11095341355E+02  0.00000000000E+00 0. -1.
</event>
<event>
 7    1  0.5748623E-013  0.5052888E+02  0.7816164E-02  0.1300439E+00
        -11   -1    0    0    0    0  0.00000000000E+00  0.00000000000E+00  0.45593999997E+02  0.45594000000E+02  0.51100000000E-03 0.  1.
         11   -1    0    0    0    0 -0.00000000000E+00 -0.00000000000E+00 -0.45593999997E+02  0.45594000000E+02  0.51100000000E-03 0. -1.
    9900012    2    1    2    0    0 -0.11246522714E+02 -0.23846756745E+02  0.30951764264E+02  0.50528883046E+02  0.30000070508E+02 0.  0.
         12    1    1    2    0    0  0.11246522714E+02  0.23846756745E+02 -0.30951764264E+02  0.40659116954E+02  0.00000000000E+00 0. -1.
         11    1    3    3    0    0 -0.12776128412E+01  0.49993667971E+01  0.33086499963E+01  0.61296923253E+01  0.51100000000E-03 0. -1.
        -11    1    3    3    0    0 -0.14087282588E+02 -0.16899926695E+02  0.19208326671E+02  0.29206486725E+02  0.51100000000E-03 0.  1.
        -12    1    3    3    0    0  0.41183727160E+01 -0.11946196847E+02  0.84347875965E+01  0.15192703997E+02  0.00000000000E+00 0.  1.
</event>
<event>
 7    1  0.5748623E-013  0.5052886E+02  0.7816164E-02  0.1300439E+00
        -11   -1    0    0    0    0  0.00000000000E+00  0.00000000000E+00  0.45593999997E+02  0.45594000000E+02  0.51100000000E-03 0.  1.
         11   -1    0    0    0    0 -0.00000000000E+00 -0.00000000000E+00 -0.45593999997E+02  0.45594000000E+02  0.51100000000E-03 0. -1.
    9900012    2    1    2    0    0 -0.22409880597E+02 -0.21724611570E+02  0.26057704814E+02  0.50528862326E+02  0.30000007527E+02 0.  0.
         12    1    1    2    0    0  0.22409880597E+02  0.21724611570E+02 -0.26057704814E+02  0.40659137674E+02  0.00000000000E+00 0. -1.
         11    1    3    3    0    0 -0.12987785613E+02  0.13854189983E+00  0.15308984068E+02  0.20076522668E+02  0.51100000000E-03 0. -1.
        -11    1    3    3    0    0  0.18783815777E+01 -0.12128743867E+02  0.94326179932E+01  0.15479309662E+02  0.51100000000E-03 0.  1.
         12    1    3    3    0    0 -0.11300476561E+02 -0.97344096030E+01  0.13161027524E+01  0.14973029997E+02  0.00000000000E+00 0. -1.
</event>
<event>
 7    1  0.5748623E-013  0.5052880E+02  0.7816164E-02  0.1300439E+00
        -11   -1    0    0    0    0  0.00000000000E+00  0.00000000000E+00  0.45593999997E+02  0.45594000000E+02  0.51100000000E-03 0. -1.
         11   -1    0    0    0    0 -0.00000000000E+00 -0.00000000000E+00 -0.45593999997E+02  0.45594000000E+02  0.51100000000E-03 0.  1.
    9900012    2    1    2    0    0 -0.33774470945E+02  0.14878458758E+02 -0.17061282222E+02  0.50528797183E+02  0.29999809517E+02 0.  0.
         12    1    1    2    0    0  0.33774470945E+02 -0.14878458758E+02  0.17061282222E+02  0.40659202817E+02  0.00000000000E+00 0. -1.
         11    1    3    3    0    0 -0.22364884291E+01 -0.26432488730E+01  0.45386714469E+01  0.57086061225E+01  0.51100000000E-03 0. -1.
        -11    1    3    3    0    0 -0.21413416620E+02  0.43271997975E+01 -0.16650053361E+02  0.27467860248E+02  0.51100000000E-03 0.  1.
         12    1    3    3    0    0 -0.10124565897E+02  0.13194507834E+02 -0.49499003074E+01  0.17352330812E+02  0.00000000000E+00 0. -1.
</event>
<event>
 7    1  0.5748623E-013  0.5052890E+02  0.7816164E-02  0.1300439E+00
        -11   -1    0    0    0    0  0.00000000000E+00  0.00000000000E+00  0.45593999997E+02  0.45594000000E+02  0.51100000000E-03 0.  1.
         11   -1    0    0    0    0 -0.00000000000E+00 -0.00000000000E+00 -0.45593999997E+02  0.45594000000E+02  0.51100000000E-03 0. -1.
    9900012    2    1    2    0    0 -0.29968394150E+02 -0.21750265061E+02  0.16792361581E+02  0.50528904023E+02  0.30000134268E+02 0.  0.
         12    1    1    2    0    0  0.29968394150E+02  0.21750265061E+02 -0.16792361581E+02  0.40659095977E+02  0.00000000000E+00 0. -1.
         11    1    3    3    0    0  0.50195415328E+01 -0.14561285350E+01  0.11933150422E+01  0.53609801866E+01  0.51100000000E-03 0. -1.
        -11    1    3    3    0    0 -0.25776597771E+02 -0.20680964971E+02  0.13586654379E+02  0.35731393511E+02  0.51100000000E-03 0.  1.
         12    1    3    3    0    0 -0.92113379119E+01  0.38682844414E+00  0.20123921604E+01  0.94365303253E+01  0.00000000000E+00 0. -1.
</event>
<event>
 7    1  0.5748623E-013  0.5052886E+02  0.7816164E-02  0.1300439E+00
        -11   -1    0    0    0    0  0.00000000000E+00  0.00000000000E+00  0.45593999997E+02  0.45594000000E+02  0.51100000000E-03 0.  1.
         11   -1    0    0    0    0 -0.00000000000E+00 -0.00000000000E+00 -0.45593999997E+02  0.45594000000E+02  0.51100000000E-03 0. -1.
    9900012    2    1    2    0    0  0.25221317287E+02  0.12585747119E+02  0.29302729365E+02  0.50528858046E+02  0.29999994516E+02 0.  0.
         12    1    1    2    0    0 -0.25221317287E+02 -0.12585747119E+02 -0.29302729365E+02  0.40659141954E+02  0.00000000000E+00 0. -1.
         11    1    3    3    0    0  0.71246342714E+01  0.15975559797E+02  0.21841980454E+02  0.27983049061E+02  0.51100000000E-03 0. -1.
        -11    1    3    3    0    0  0.14142397397E+02 -0.54562165247E+01  0.92285896976E+01  0.17746677744E+02  0.51100000000E-03 0.  1.
         12    1    3    3    0    0  0.39542856189E+01  0.20664038470E+01 -0.17678407872E+01  0.47991312405E+01  0.00000000000E+00 0. -1.
</event>
<event>
 7    1  0.5748623E-013  0.5052887E+02  0.7816164E-02  0.1300439E+00
        -11   -1    0    0    0    0  0.00000000000E+00  0.00000000000E+00  0.45593999997E+02  0.45594000000E+02  0.51100000000E-03 0. -1.
         11   -1    0    0    0    0 -0.00000000000E+00 -0.00000000000E+00 -0.45593999997E+02  0.45594000000E+02  0.51100000000E-03 0.  1.
    9900012    2    1    2    0    0  0.27821110087E+02  0.27128935282E+02  0.11965422549E+02  0.50528872701E+02  0.30000039061E+02 0.  0.
         12    1    1    2    0    0 -0.27821110087E+02 -0.27128935282E+02 -0.11965422549E+02  0.40659127299E+02  0.00000000000E+00 0. -1.
         11    1    3    3    0    0  0.13876346921E+02 -0.41872884241E+01  0.13336313770E+01  0.14555581786E+02  0.51100000000E-03 0. -1.
        -11    1    3    3    0    0  0.96244095222E+01  0.20164156146E+02  0.58786704901E+01  0.23103705736E+02  0.51100000000E-03 0.  1.
         12    1    3    3    0    0  0.43203536440E+01  0.11152067560E+02  0.47531206819E+01  0.12869585179E+02  0.00000000000E+00 0. -1.
</event>
<event>
 7    1  0.5748623E-013  0.5052886E+02  0.7816164E-02  0.1300439E+00
        -11   -1    0    0    0    0  0.00000000000E+00  0.00000000000E+00  0.45593999997E+02  0.45594000000E+02  0.51100000000E-03 0.  1.
         11   -1    0    0    0    0 -0.00000000000E+00 -0.00000000000E+00 -0.45593999997E+02  0.45594000000E+02  0.51100000000E-03 0. -1.
    9900012    2    1    2    0    0 -0.38638146616E+02  0.72638565422E+01  0.10367998700E+02  0.50528863477E+02  0.30000011024E+02 0.  0.
         12    1    1    2    0    0  0.38638146616E+02 -0.72638565422E+01 -0.10367998700E+02  0.40659136523E+02  0.00000000000E+00 0. -1.
         11    1    3    3    0    0 -0.29688721994E+02  0.17957451809E+02  0.97375385677E+01  0.36037618494E+02  0.51100000000E-03 0. -1.
        -11    1    3    3    0    0 -0.36226012643E+01 -0.22396584205E+01  0.13641061169E+01  0.44721466344E+01  0.51100000000E-03 0.  1.
         12    1    3    3    0    0 -0.53268233577E+01 -0.84539368464E+01 -0.73364598473E+00  0.10019098349E+02  0.00000000000E+00 0. -1.
</event>
<event>
 7    1  0.5748623E-013  0.5052886E+02  0.7816164E-02  0.1300439E+00
        -11   -1    0    0    0    0  0.00000000000E+00  0.00000000000E+00  0.45593999997E+02  0.45594000000E+02  0.51100000000E-03 0.  1.
         11   -1    0    0    0    0 -0.00000000000E+00 -0.00000000000E+00 -0.45593999997E+02  0.45594000000E+02  0.51100000000E-03 0. -1.
    9900012    2    1    2    0    0  0.33682744600E+02  0.22164879032E+02  0.52303103638E+01  0.50528864584E+02  0.30000014389E+02 0.  0.
         12    1    1    2    0    0 -0.33682744600E+02 -0.22164879032E+02 -0.52303103638E+01  0.40659135416E+02  0.00000000000E+00 0. -1.
         11    1    3    3    0    0  0.16081241351E+02  0.29952291121E+01 -0.67453583626E+01  0.17693998433E+02  0.51100000000E-03 0. -1.
        -11    1    3    3    0    0  0.57282501061E+01  0.14845974481E+02  0.12427871013E+02  0.20190784674E+02  0.51100000000E-03 0.  1.
        -12    1    3    3    0    0  0.11873253143E+02  0.43236754384E+01 -0.45220228700E+00  0.12644081477E+02  0.00000000000E+00 0.  1.
</event>
<event>
 7    1  0.5748623E-013  0.5052886E+02  0.7816164E-02  0.1300439E+00
        -11   -1    0    0    0    0  0.00000000000E+00  0.00000000000E+00  0.45593999997E+02  0.45594000000E+02  0.51100000000E-03 0.  1.
         11   -1    0    0    0    0 -0.00000000000E+00 -0.00000000000E+00 -0.45593999997E+02  0.45594000000E+02  0.51100000000E-03 0. -1.
    9900012    2    1    2    0    0 -0.14787563127E+02  0.25700664216E+02  0.27820301357E+02  0.50528864102E+02  0.30000012926E+02 0.  0.
         12    1    1    2    0    0  0.14787563127E+02 -0.25700664216E+02 -0.27820301357E+02  0.40659135898E+02  0.00000000000E+00 0. -1.
         11    1    3    3    0    0 -0.73663454994E+01  0.37908726983E+01 -0.44410243255E+00  0.82964443627E+01  0.51100000000E-03 0. -1.
        -11    1    3    3    0    0 -0.38574555773E+01  0.23082101756E+02  0.13538561806E+02  0.27036198717E+02  0.51100000000E-03 0.  1.
        -12    1    3    3    0    0 -0.35637620503E+01 -0.11723102392E+01  0.14725841984E+02  0.15196221023E+02  0.00000000000E+00 0.  1.
</event>
<event>
 7    1  0.5748623E-013  0.5052886E+02  0.7816164E-02  0.1300439E+00
        -11   -1    0    0    0    0  0.00000000000E+00  0.00000000000E+00  0.45593999997E+02  0.45594000000E+02  0.51100000000E-03 0.  1.
         11   -1    0    0    0    0 -0.00000000000E+00 -0.00000000000E+00 -0.45593999997E+02  0.45594000000E+02  0.51100000000E-03 0. -1.
    9900012    2    1    2    0    0 -0.80166126295E+01  0.41518242176E+01  0.39644195293E+02  0.50528856590E+02  0.29999990092E+02 0.  0.
         12    1    1    2    0    0  0.80166126295E+01 -0.41518242176E+01 -0.39644195293E+02  0.40659143410E+02  0.00000000000E+00 0. -1.
         11    1    3    3    0    0 -0.36522687633E+01 -0.94230309214E+01  0.51313968640E+01  0.11334187792E+02  0.51100000000E-03 0. -1.
        -11    1    3    3    0    0 -0.15709945530E+01  0.36673298772E+01  0.24540135195E+02  0.24862332312E+02  0.51100000000E-03 0.  1.
         12    1    3    3    0    0 -0.27933493132E+01  0.99075252618E+01  0.99726632335E+01  0.14332336487E+02  0.00000000000E+00 0. -1.
</event>
<event>
 7    1  0.5748623E-013  0.5052887E+02  0.7816164E-02  0.1300439E+00
        -11   -1    0    0    0    0  0.00000000000E+00  0.00000000000E+00  0.45593999997E+02  0.45594000000E+02  0.51100000000E-03 0.  1.
         11   -1    0    0    0    0 -0.00000000000E+00 -0.00000000000E+00 -0.45593999997E+02  0.45594000000E+02  0.51100000000E-03 0. -1.
    9900012    2    1    2    0    0 -0.21029905506E+02 -0.30006149016E+02  0.17622124075E+02  0.50528866201E+02  0.30000019303E+02 0.  0.
         12    1    1    2    0    0  0.21029905506E+02  0.30006149016E+02 -0.17622124075E+02  0.40659133799E+02  0.00000000000E+00 0. -1.
         11    1    3    3    0    0 -0.21283047942E+01 -0.74083022207E+00 -0.63554189035E+01  0.67431343168E+01  0.51100000000E-03 0. -1.
        -11    1    3    3    0    0 -0.12878486919E+02 -0.24623397961E+02  0.23091277133E+02  0.36129963083E+02  0.51100000000E-03 0.  1.
        -12    1    3    3    0    0 -0.60231137931E+01 -0.46419208334E+01  0.88626584570E+00  0.76557688012E+01  0.00000000000E+00 0.  1.
</event>
<event>
 7    1  0.5748623E-013  0.5052886E+02  0.7816164E-02  0.1300439E+00
        -11   -1    0    0    0    0  0.00000000000E+00  0.00000000000E+00  0.45593999997E+02  0.45594000000E+02  0.51100000000E-03 0. -1.
         11   -1    0    0    0    0 -0.00000000000E+00 -0.00000000000E+00 -0.45593999997E+02  0.45594000000E+02  0.51100000000E-03 0.  1.
    9900012    2    1    2    0    0 -0.69320047219E+01 -0.16776560345E+02 -0.36382142928E+02  0.50528856004E+02  0.29999988311E+02 0.  0.
         12    1    1    2    0    0  0.69320047219E+01  0.16776560345E+02  0.36382142928E+02  0.40659143996E+02  0.00000000000E+00 0. -1.
         11    1    3    3    0    0 -0.49803529171E+01  0.67324181025E+01 -0.11260332018E+02  0.14032977093E+02  0.51100000000E-03 0. -1.
        -11    1    3    3    0    0 -0.11741973781E+01 -0.22694903231E+02 -0.17215506901E+02  0.28509841288E+02  0.51100000000E-03 0.  1.
        -12    1    3    3    0    0 -0.77745442671E+00 -0.81407521629E+00 -0.79063040081E+01  0.79860376227E+01  0.00000000000E+00 0.  1.
</event>
<event>
 7    1  0.5748623E-013  0.5052886E+02  0.7816164E-02  0.1300439E+00
        -11   -1    0    0    0    0  0.00000000000E+00  0.00000000000E+00  0.45593999997E+02  0.45594000000E+02  0.51100000000E-03 0. -1.
         11   -1    0    0    0    0 -0.00000000000E+00 -0.00000000000E+00 -0.45593999997E+02  0.45594000000E+02  0.51100000000E-03 0.  1.
    9900012    2    1    2    0    0 -0.24591091884E+02 -0.32213156100E+02  0.32796988690E+01  0.50528860183E+02  0.30000001013E+02 0.  0.
         12    1    1    2    0    0  0.24591091884E+02  0.32213156100E+02 -0.32796988690E+01  0.40659139817E+02  0.00000000000E+00 0. -1.
         11    1    3    3    0    0 -0.21172270148E+02 -0.26996438035E+02  0.85631525600E+01  0.35360999305E+02  0.51100000000E-03 0. -1.
        -11    1    3    3    0    0  0.24778178962E+01  0.24196251717E+01  0.10593293122E+01  0.36216496726E+01  0.51100000000E-03 0.  1.
        -12    1    3    3    0    0 -0.58966396324E+01 -0.76363432364E+01 -0.63427830032E+01  0.11546211206E+02  0.00000000000E+00 0.  1.
</event>
<event>
 7    1  0.5748623E-013  0.5052886E+02  0.7816164E-02  0.1300439E+00
        -11   -1    0    0    0    0  0.00000000000E+00  0.00000000000E+00  0.45593999997E+02  0.45594000000E+02  0.51100000000E-03 0. -1.
         11   -1    0    0    0    0 -0.00000000000E+00 -0.00000000000E+00 -0.45593999997E+02  0.45594000000E+02  0.51100000000E-03 0.  1.
    9900012    2    1    2    0    0 -0.36156860154E+02 -0.44789404501E+00  0.18591569952E+02  0.50528860577E+02  0.30000002211E+02 0.  0.
         12    1    1    2    0    0  0.36156860154E+02  0.44789404501E+00 -0.18591569952E+02  0.40659139423E+02  0.00000000000E+00 0. -1.
         11    1    3    3    0    0 -0.75595231708E-01 -0.12107824285E+01 -0.11652414386E+00  0.12187234573E+01  0.51100000000E-03 0. -1.
        -11    1    3    3    0    0 -0.59037964646E+01  0.33162534030E+01 -0.68866156689E+01  0.96580445723E+01  0.51100000000E-03 0.  1.
        -12    1    3    3    0    0 -0.30177468458E+02 -0.25533650196E+01  0.25594709765E+02  0.39652092548E+02  0.00000000000E+00 0.  1.
</event>
<event>
 7    1  0.5748623E-013  0.5052896E+02  0.7816164E-02  0.1300438E+00
        -11   -1    0    0    0    0  0.00000000000E+00  0.00000000000E+00  0.45593999997E+02  0.45594000000E+02  0.51100000000E-03 0.  1.
         11   -1    0    0    0    0 -0.00000000000E+00 -0.00000000000E+00 -0.45593999997E+02  0.45594000000E+02  0.51100000000E-03 0. -1.
    9900012    2    1    2    0    0  0.19840292035E+02  0.18999987221E+01  0.35438829720E+02  0.50528956294E+02  0.30000293151E+02 0.  0.
         12    1    1    2    0    0 -0.19840292035E+02 -0.18999987221E+01 -0.35438829720E+02  0.40659043706E+02  0.00000000000E+00 0. -1.
         11    1    3    3    0    0  0.16002187945E+02  0.54920151706E+01  0.19949859325E+02  0.26157773931E+02  0.51100000000E-03 0.  1.
        -11    1    3    3    0    0 -0.63331210647E+01 -0.41328435998E+01  0.27182677299E+01  0.80360312563E+01  0.51100000000E-03 0. -1.
         12    1    3    3    0    0  0.10171225154E+02  0.54082715134E+00  0.12770702665E+02  0.16335151107E+02  0.00000000000E+00 0. -1.
</event>
<event>
 7    1  0.5748623E-013  0.5052886E+02  0.7816164E-02  0.1300439E+00
        -11   -1    0    0    0    0  0.00000000000E+00  0.00000000000E+00  0.45593999997E+02  0.45594000000E+02  0.51100000000E-03 0. -1.
         11   -1    0    0    0    0 -0.00000000000E+00 -0.00000000000E+00 -0.45593999997E+02  0.45594000000E+02  0.51100000000E-03 0.  1.
    9900012    2    1    2    0    0 -0.24064669746E+02  0.25719500968E+02  0.20311680545E+02  0.50528862938E+02  0.30000009387E+02 0.  0.
         12    1    1    2    0    0  0.24064669746E+02 -0.25719500968E+02 -0.20311680545E+02  0.40659137062E+02  0.00000000000E+00 0. -1.
         11    1    3    3    0    0 -0.16689231783E+02  0.30648447446E+01  0.10224733832E+02  0.19810828176E+02  0.51100000000E-03 0. -1.
        -11    1    3    3    0    0  0.31102919239E+01  0.11495597829E+02 -0.79063030382E+00  0.11935149008E+02  0.51100000000E-03 0.  1.
         12    1    3    3    0    0 -0.10485729887E+02  0.11159058394E+02  0.10877577017E+02  0.18782885754E+02  0.00000000000E+00 0. -1.
</event>
<event>
 7    1  0.5748623E-013  0.5052885E+02  0.7816164E-02  0.1300439E+00
        -11   -1    0    0    0    0  0.00000000000E+00  0.00000000000E+00  0.45593999997E+02  0.45594000000E+02  0.51100000000E-03 0. -1.
         11   -1    0    0    0    0 -0.00000000000E+00 -0.00000000000E+00 -0.45593999997E+02  0.45594000000E+02  0.51100000000E-03 0.  1.
    9900012    2    1    2    0    0 -0.29894476764E+02  0.74680628909E+01 -0.26527624937E+02  0.50528848642E+02  0.29999965932E+02 0.  0.
         12    1    1    2    0    0  0.29894476764E+02 -0.74680628909E+01  0.26527624937E+02  0.40659151358E+02  0.00000000000E+00 0. -1.
         11    1    3    3    0    0 -0.19432298088E+02  0.13374469516E+02 -0.61134318871E+01  0.24369339209E+02  0.51100000000E-03 0. -1.
        -11    1    3    3    0    0 -0.11744087702E+02 -0.19689665960E+01 -0.12735145112E+02  0.17435146879E+02  0.51100000000E-03 0.  1.
         12    1    3    3    0    0  0.12819090257E+01 -0.39374400290E+01 -0.76790479381E+01  0.87243625536E+01  0.00000000000E+00 0. -1.
</event>
<event>
 7    1  0.5748623E-013  0.5052886E+02  0.7816164E-02  0.1300439E+00
        -11   -1    0    0    0    0  0.00000000000E+00  0.00000000000E+00  0.45593999997E+02  0.45594000000E+02  0.51100000000E-03 0.  1.
         11   -1    0    0    0    0 -0.00000000000E+00 -0.00000000000E+00 -0.45593999997E+02  0.45594000000E+02  0.51100000000E-03 0. -1.
    9900012    2    1    2    0    0  0.59761665200E+01 -0.31842336773E+02  0.24566582181E+02  0.50528856655E+02  0.29999990289E+02 0.  0.
         12    1    1    2    0    0 -0.59761665200E+01  0.31842336773E+02 -0.24566582181E+02  0.40659143345E+02  0.00000000000E+00 0. -1.
         11    1    3    3    0    0 -0.33397449110E+01 -0.31376208199E+01 -0.39029866321E+01  0.60192911037E+01  0.51100000000E-03 0. -1.
        -11    1    3    3    0    0  0.52267670308E+01 -0.13731761172E+02  0.24369027094E+02  0.28455752322E+02  0.51100000000E-03 0.  1.
        -12    1    3    3    0    0  0.40891444002E+01 -0.14972954781E+02  0.41005417199E+01  0.16053813229E+02  0.00000000000E+00 0.  1.
</event>
<event>
 7    1  0.5748623E-013  0.5052884E+02  0.7816164E-02  0.1300439E+00
        -11   -1    0    0    0    0  0.00000000000E+00  0.00000000000E+00  0.45593999997E+02  0.45594000000E+02  0.51100000000E-03 0. -1.
         11   -1    0    0    0    0 -0.00000000000E+00 -0.00000000000E+00 -0.45593999997E+02  0.45594000000E+02  0.51100000000E-03 0.  1.
    9900012    2    1    2    0    0 -0.78666011427E+01  0.39601493795E+02 -0.47964287784E+01  0.50528838014E+02  0.29999933628E+02 0.  0.
         12    1    1    2    0    0  0.78666011427E+01 -0.39601493795E+02  0.47964287784E+01  0.40659161986E+02  0.00000000000E+00 0. -1.
         11    1    3    3    0    0  0.47871756443E+01 -0.21566327522E+01  0.83173246108E+00  0.53160036329E+01  0.51100000000E-03 0. -1.
        -11    1    3    3    0    0 -0.11313221020E+02  0.23146535738E+02 -0.14384233580E+00  0.25763768696E+02  0.51100000000E-03 0.  1.
         12    1    3    3    0    0 -0.13405557671E+01  0.18611590809E+02 -0.54843189037E+01  0.19449065686E+02  0.00000000000E+00 0. -1.
</event>
<event>
 7    1  0.5748623E-013  0.5052884E+02  0.7816164E-02  0.1300439E+00
        -11   -1    0    0    0    0  0.00000000000E+00  0.00000000000E+00  0.45593999997E+02  0.45594000000E+02  0.51100000000E-03 0. -1.
         11   -1    0    0    0    0 -0.00000000000E+00 -0.00000000000E+00 -0.45593999997E+02  0.45594000000E+02  0.51100000000E-03 0.  1.
    9900012    2    1    2    0    0 -0.10708579756E+01  0.26818400129E+02 -0.30541671616E+02  0.50528843253E+02  0.29999949551E+02 0.  0.
         12    1    1    2    0    0  0.10708579756E+01 -0.26818400129E+02  0.30541671616E+02  0.40659156747E+02  0.00000000000E+00 0. -1.
         11    1    3    3    0    0 -0.42873522805E+01  0.15426510074E+02 -0.22370826931E+02  0.27510225381E+02  0.51100000000E-03 0.  1.
        -11    1    3    3    0    0 -0.37639863651E+01  0.43548176368E+01  0.42300293713E+01  0.71431910761E+01  0.51100000000E-03 0. -1.
        -12    1    3    3    0    0  0.69804806699E+01  0.70370724182E+01 -0.12400874056E+02  0.15875426796E+02  0.00000000000E+00 0.  1.
</event>
<event>
 7    1  0.5748623E-013  0.5052886E+02  0.7816164E-02  0.1300439E+00
        -11   -1    0    0    0    0  0.00000000000E+00  0.00000000000E+00  0.45593999997E+02  0.45594000000E+02  0.51100000000E-03 0.  1.
         11   -1    0    0    0    0 -0.00000000000E+00 -0.00000000000E+00 -0.45593999997E+02  0.45594000000E+02  0.51100000000E-03 0. -1.
    9900012    2    1    2    0    0  0.40478531838E+02  0.54938929984E+00  0.37884826360E+01  0.50528856267E+02  0.29999989110E+02 0.  0.
         12    1    1    2    0    0 -0.40478531838E+02 -0.54938929984E+00 -0.37884826360E+01  0.40659143733E+02  0.00000000000E+00 0. -1.
         11    1    3    3    0    0  0.10731502657E+02 -0.66164815173E+01  0.12073786671E+02  0.17456210980E+02  0.51100000000E-03 0. -1.
        -11    1    3    3    0    0  0.67777075598E+01  0.12947410601E+01 -0.61944824756E+01  0.92728252211E+01  0.51100000000E-03 0.  1.
        -12    1    3    3    0    0  0.22969321622E+02  0.58711297570E+01 -0.20908215592E+01  0.23799820066E+02  0.00000000000E+00 0.  1.
</event>
<event>
 7    1  0.5748623E-013  0.5052881E+02  0.7816164E-02  0.1300439E+00
        -11   -1    0    0    0    0  0.00000000000E+00  0.00000000000E+00  0.45593999997E+02  0.45594000000E+02  0.51100000000E-03 0.  1.
         11   -1    0    0    0    0 -0.00000000000E+00 -0.00000000000E+00 -0.45593999997E+02  0.45594000000E+02  0.51100000000E-03 0. -1.
    9900012    2    1    2    0    0 -0.29984512696E+02  0.20726532881E+02  0.18014137751E+02  0.50528814989E+02  0.29999863640E+02 0.  0.
         12    1    1    2    0    0  0.29984512696E+02 -0.20726532881E+02 -0.18014137751E+02  0.40659185011E+02  0.00000000000E+00 0. -1.
         11    1    3    3    0    0  0.48193137745E+01  0.66321641618E+01  0.77569183499E+00  0.82348700543E+01  0.51100000000E-03 0. -1.
        -11    1    3    3    0    0 -0.28964843672E+02  0.10992945548E+02  0.17674842469E+02  0.35668011962E+02  0.51100000000E-03 0.  1.
        -12    1    3    3    0    0 -0.58389827980E+01  0.31014231712E+01 -0.43639655298E+00  0.66259329723E+01  0.00000000000E+00 0.  1.
</event>
<event>
 7    1  0.5748623E-013  0.5052885E+02  0.7816164E-02  0.1300439E+00
        -11   -1    0    0    0    0  0.00000000000E+00  0.00000000000E+00  0.45593999997E+02  0.45594000000E+02  0.51100000000E-03 0.  1.
         11   -1    0    0    0    0 -0.00000000000E+00 -0.00000000000E+00 -0.45593999997E+02  0.45594000000E+02  0.51100000000E-03 0. -1.
    9900012    2    1    2    0    0  0.11679047099E+02 -0.14915965394E+01  0.38917112092E+02  0.50528848325E+02  0.29999964968E+02 0.  0.
         12    1    1    2    0    0 -0.11679047099E+02  0.14915965394E+01 -0.38917112092E+02  0.40659151675E+02  0.00000000000E+00 0. -1.
         11    1    3    3    0    0  0.63031599381E+01  0.28680793034E+01  0.49693148228E+01  0.85234848604E+01  0.51100000000E-03 0. -1.
        -11    1    3    3    0    0 -0.71141646392E+01 -0.55019541206E+01  0.46254062726E+01  0.10113220116E+02  0.51100000000E-03 0.  1.
        -12    1    3    3    0    0  0.12490051800E+02  0.11422782778E+01  0.29322390996E+02  0.31892143349E+02  0.00000000000E+00 0.  1.
</event>
<event>
 7    1  0.5748623E-013  0.5052885E+02  0.7816164E-02  0.1300439E+00
        -11   -1    0    0    0    0  0.00000000000E+00  0.00000000000E+00  0.45593999997E+02  0.45594000000E+02  0.51100000000E-03 0.  1.
         11   -1    0    0    0    0 -0.00000000000E+00 -0.00000000000E+00 -0.45593999997E+02  0.45594000000E+02  0.51100000000E-03 0. -1.
    9900012    2    1    2    0    0  0.29797854168E+02  0.23502334113E+01  0.27563211335E+02  0.50528851839E+02  0.29999975650E+02 0.  0.
         12    1    1    2    0    0 -0.29797854168E+02 -0.23502334113E+01 -0.27563211335E+02  0.40659148161E+02  0.00000000000E+00 0. -1.
         11    1    3    3    0    0 -0.36641215569E+01  0.36585569113E+00  0.55313824193E+00  0.37236540315E+01  0.51100000000E-03 0. -1.
        -11    1    3    3    0    0  0.20239633083E+02 -0.76344851095E+01  0.17967355868E+02  0.28120348280E+02  0.51100000000E-03 0.  1.
        -12    1    3    3    0    0  0.13222342642E+02  0.96188628297E+01  0.90427172247E+01  0.18684849528E+02  0.00000000000E+00 0.  1.
</event>
<event>
 7    1  0.5748623E-013  0.5052886E+02  0.7816164E-02  0.1300439E+00
        -11   -1    0    0    0    0  0.00000000000E+00  0.00000000000E+00  0.45593999997E+02  0.45594000000E+02  0.51100000000E-03 0. -1.
         11   -1    0    0    0    0 -0.00000000000E+00 -0.00000000000E+00 -0.45593999997E+02  0.45594000000E+02  0.51100000000E-03 0.  1.
    9900012    2    1    2    0    0 -0.56263431424E+00  0.37647592480E+01 -0.40480558076E+02  0.50528861399E+02  0.30000004710E+02 0.  0.
         12    1    1    2    0    0  0.56263431424E+00 -0.37647592480E+01  0.40480558076E+02  0.40659138601E+02  0.00000000000E+00 0. -1.
         11    1    3    3    0    0 -0.75302399179E+01 -0.95128523734E+00 -0.13342874971E+02  0.15350627661E+02  0.51100000000E-03 0. -1.
        -11    1    3    3    0    0  0.12428192744E+02  0.83477792163E+01 -0.22935313514E+02  0.27389304463E+02  0.51100000000E-03 0.  1.
        -12    1    3    3    0    0 -0.54605871406E+01 -0.36317347309E+01 -0.42023695914E+01  0.77889292755E+01  0.00000000000E+00 0.  1.
</event>
<event>
 7    1  0.5748623E-013  0.5052886E+02  0.7816164E-02  0.1300439E+00
        -11   -1    0    0    0    0  0.00000000000E+00  0.00000000000E+00  0.45593999997E+02  0.45594000000E+02  0.51100000000E-03 0.  1.
         11   -1    0    0    0    0 -0.00000000000E+00 -0.00000000000E+00 -0.45593999997E+02  0.45594000000E+02  0.51100000000E-03 0. -1.
    9900012    2    1    2    0    0  0.18648318240E+02 -0.37187983638E+01  0.35938507905E+02  0.50528860991E+02  0.30000003470E+02 0.  0.
         12    1    1    2    0    0 -0.18648318240E+02  0.37187983638E+01 -0.35938507905E+02  0.40659139009E+02  0.00000000000E+00 0. -1.
         11    1    3    3    0    0  0.14703055979E+01  0.95551617632E+00 -0.15142023262E+01  0.23168121763E+01  0.51100000000E-03 0. -1.
        -11    1    3    3    0    0  0.11589210897E+02 -0.14766861253E+02  0.21821261855E+02  0.28784326807E+02  0.51100000000E-03 0.  1.
        -12    1    3    3    0    0  0.55888017454E+01  0.10092546713E+02  0.15631448376E+02  0.19427722009E+02  0.00000000000E+00 0.  1.
</event>
<event>
 7    1  0.5748623E-013  0.5052876E+02  0.7816164E-02  0.1300439E+00
        -11   -1    0    0    0    0  0.00000000000E+00  0.00000000000E+00  0.45593999997E+02  0.45594000000E+02  0.51100000000E-03 0.  1.
         11   -1    0    0    0    0 -0.00000000000E+00 -0.00000000000E+00 -0.45593999997E+02  0.45594000000E+02  0.51100000000E-03 0. -1.
    9900012    2    1    2    0    0  0.34111265794E+02 -0.30285581016E+01  0.21918559659E+02  0.50528759036E+02  0.29999693564E+02 0.  0.
         12    1    1    2    0    0 -0.34111265794E+02  0.30285581016E+01 -0.21918559659E+02  0.40659240964E+02  0.00000000000E+00 0. -1.
         11    1    3    3    0    0  0.24233831301E+02  0.56847839467E+01  0.39999164432E+01  0.25211003151E+02  0.51100000000E-03 0. -1.
        -11    1    3    3    0    0  0.68003510860E+01 -0.88288295946E+01  0.19022599772E+02  0.22046594051E+02  0.51100000000E-03 0.  1.
        -12    1    3    3    0    0  0.30770834067E+01  0.11548754625E+00 -0.11039565559E+01  0.32711618338E+01  0.00000000000E+00 0.  1.
</event>
<event>
 7    1  0.5748623E-013  0.5052886E+02  0.7816164E-02  0.1300439E+00
        -11   -1    0    0    0    0  0.00000000000E+00  0.00000000000E+00  0.45593999997E+02  0.45594000000E+02  0.51100000000E-03 0. -1.
         11   -1    0    0    0    0 -0.00000000000E+00 -0.00000000000E+00 -0.45593999997E+02  0.45594000000E+02  0.51100000000E-03 0.  1.
    9900012    2    1    2    0    0 -0.92921997032E+01  0.38834971578E+02 -0.76593481141E+01  0.50528860728E+02  0.30000002669E+02 0.  0.
         12    1    1    2    0    0  0.92921997032E+01 -0.38834971578E+02  0.76593481141E+01  0.40659139272E+02  0.00000000000E+00 0. -1.
         11    1    3    3    0    0  0.41677088298E+01  0.14463121478E+02  0.69735759803E+01  0.16588623873E+02  0.51100000000E-03 0.  1.
        -11    1    3    3    0    0 -0.15077634557E+02  0.23907394992E+02 -0.15287689782E+02  0.32134281667E+02  0.51100000000E-03 0. -1.
         12    1    3    3    0    0  0.16177260243E+01  0.46445510832E+00  0.65476568719E+00  0.18059551884E+01  0.00000000000E+00 0. -1.
</event>
<event>
 7    1  0.5748623E-013  0.5052882E+02  0.7816164E-02  0.1300439E+00
        -11   -1    0    0    0    0  0.00000000000E+00  0.00000000000E+00  0.45593999997E+02  0.45594000000E+02  0.51100000000E-03 0.  1.
         11   -1    0    0    0    0 -0.00000000000E+00 -0.00000000000E+00 -0.45593999997E+02  0.45594000000E+02  0.51100000000E-03 0. -1.
    9900012    2    1    2    0    0  0.58252882313E+01  0.22762745434E+02  0.33182715805E+02  0.50528816647E+02  0.29999868681E+02 0.  0.
         12    1    1    2    0    0 -0.58252882313E+01 -0.22762745434E+02 -0.33182715805E+02  0.40659183353E+02  0.00000000000E+00 0. -1.
         11    1    3    3    0    0  0.10880300389E+01  0.97423851402E+01  0.83673419034E+00  0.98385975602E+01  0.51100000000E-03 0. -1.
        -11    1    3    3    0    0 -0.45836588743E+01  0.13851726600E+02  0.24324747717E+02  0.28365006791E+02  0.51100000000E-03 0.  1.
        -12    1    3    3    0    0  0.93209170668E+01 -0.83136630590E+00  0.80212338975E+01  0.12325212296E+02  0.00000000000E+00 0.  1.
</event>
<event>
 7    1  0.5748623E-013  0.5052886E+02  0.7816164E-02  0.1300439E+00
        -11   -1    0    0    0    0  0.00000000000E+00  0.00000000000E+00  0.45593999997E+02  0.45594000000E+02  0.51100000000E-03 0. -1.
         11   -1    0    0    0    0 -0.00000000000E+00 -0.00000000000E+00 -0.45593999997E+02  0.45594000000E+02  0.51100000000E-03 0.  1.
    9900012    2    1    2    0    0 -0.34902531242E+01  0.58230559919E+01 -0.40088354462E+02  0.50528855746E+02  0.29999987527E+02 0.  0.
         12    1    1    2    0    0  0.34902531242E+01 -0.58230559919E+01  0.40088354462E+02  0.40659144254E+02  0.00000000000E+00 0. -1.
         11    1    3    3    0    0 -0.12077079473E+02  0.86347443016E+01 -0.10076938168E+02  0.17943225487E+02  0.51100000000E-03 0. -1.
        -11    1    3    3    0    0  0.86150387535E+01  0.59594662444E+00 -0.25561173137E+02  0.26980504397E+02  0.51100000000E-03 0.  1.
         12    1    3    3    0    0 -0.28212404229E-01 -0.34076349342E+01 -0.44502431567E+01  0.56051258628E+01  0.00000000000E+00 0. -1.
</event>
<event>
 7    1  0.5748623E-013  0.5052885E+02  0.7816164E-02  0.1300439E+00
        -11   -1    0    0    0    0  0.00000000000E+00  0.00000000000E+00  0.45593999997E+02  0.45594000000E+02  0.51100000000E-03 0. -1.
         11   -1    0    0    0    0 -0.00000000000E+00 -0.00000000000E+00 -0.45593999997E+02  0.45594000000E+02  0.51100000000E-03 0.  1.
    9900012    2    1    2    0    0 -0.61714144018E+01 -0.25593447773E+02 -0.30984761966E+02  0.50528850984E+02  0.29999973051E+02 0.  0.
         12    1    1    2    0    0  0.61714144018E+01  0.25593447773E+02  0.30984761966E+02  0.40659149016E+02  0.00000000000E+00 0. -1.
         11    1    3    3    0    0  0.12759573445E+01 -0.43661212101E+01  0.12043917010E+01  0.47054905373E+01  0.51100000000E-03 0. -1.
        -11    1    3    3    0    0 -0.14450533255E+02 -0.10522492037E+02 -0.26153654834E+02  0.31678926930E+02  0.51100000000E-03 0.  1.
        -12    1    3    3    0    0  0.70031615085E+01 -0.10704834526E+02 -0.60354988326E+01  0.14144433516E+02  0.00000000000E+00 0.  1.
</event>
<event>
 7    1  0.5748623E-013  0.5052887E+02  0.7816164E-02  0.1300439E+00
        -11   -1    0    0    0    0  0.00000000000E+00  0.00000000000E+00  0.45593999997E+02  0.45594000000E+02  0.51100000000E-03 0. -1.
         11   -1    0    0    0    0 -0.00000000000E+00 -0.00000000000E+00 -0.45593999997E+02  0.45594000000E+02  0.51100000000E-03 0.  1.
    9900012    2    1    2    0    0 -0.19048109406E+01  0.39436621719E+02  0.97102692074E+01  0.50528871070E+02  0.30000034103E+02 0.  0.
         12    1    1    2    0    0  0.19048109406E+01 -0.39436621719E+02 -0.97102692074E+01  0.40659128930E+02  0.00000000000E+00 0. -1.
         11    1    3    3    0    0 -0.40517883558E+00  0.39879423555E+02  0.12330403265E+02  0.41744118602E+02  0.51100000000E-03 0. -1.
        -11    1    3    3    0    0  0.22517504055E+01  0.13069066339E+01 -0.36837516132E+01  0.45109213081E+01  0.51100000000E-03 0.  1.
         12    1    3    3    0    0 -0.37513825105E+01 -0.17497084701E+01  0.10636175561E+01  0.42738311591E+01  0.00000000000E+00 0. -1.
</event>
<event>
 7    1  0.5748623E-013  0.5052886E+02  0.7816164E-02  0.1300439E+00
        -11   -1    0    0    0    0  0.00000000000E+00  0.00000000000E+00  0.45593999997E+02  0.45594000000E+02  0.51100000000E-03 0.  1.
         11   -1    0    0    0    0 -0.00000000000E+00 -0.00000000000E+00 -0.45593999997E+02  0.45594000000E+02  0.51100000000E-03 0. -1.
    9900012    2    1    2    0    0  0.36849727709E+02  0.21231702469E+01  0.17051548780E+02  0.50528860807E+02  0.30000002909E+02 0.  0.
         12    1    1    2    0    0 -0.36849727709E+02 -0.21231702469E+01 -0.17051548780E+02  0.40659139193E+02  0.00000000000E+00 0. -1.
         11    1    3    3    0    0  0.24572797363E+01  0.10523078982E+02  0.67573742235E+01  0.12745019483E+02  0.51100000000E-03 0. -1.
        -11    1    3    3    0    0  0.23292213846E+02 -0.27365651709E+01  0.38892784211E+01  0.23772726005E+02  0.51100000000E-03 0.  1.
         12    1    3    3    0    0  0.11100234126E+02 -0.56633435642E+01  0.64048961349E+01  0.14011115319E+02  0.00000000000E+00 0. -1.
</event>
<event>
 7    1  0.5748623E-013  0.5052886E+02  0.7816164E-02  0.1300439E+00
        -11   -1    0    0    0    0  0.00000000000E+00  0.00000000000E+00  0.45593999997E+02  0.45594000000E+02  0.51100000000E-03 0. -1.
         11   -1    0    0    0    0 -0.00000000000E+00 -0.00000000000E+00 -0.45593999997E+02  0.45594000000E+02  0.51100000000E-03 0.  1.
    9900012    2    1    2    0    0 -0.24314875425E+02 -0.14920886970E+02 -0.28971016888E+02  0.50528857677E+02  0.29999993396E+02 0.  0.
         12    1    1    2    0    0  0.24314875425E+02  0.14920886970E+02  0.28971016888E+02  0.40659142323E+02  0.00000000000E+00 0. -1.
         11    1    3    3    0    0 -0.10383651178E+02  0.57127590681E+01 -0.10521184603E+02  0.15847749168E+02  0.51100000000E-03 0.  1.
        -11    1    3    3    0    0 -0.45146950049E+01 -0.18471509451E+02 -0.85530604678E+01  0.20850275202E+02  0.51100000000E-03 0. -1.
        -12    1    3    3    0    0 -0.94165292413E+01 -0.21621365868E+01 -0.98967718174E+01  0.13830833307E+02  0.00000000000E+00 0.  1.
</event>
<event>
 7    1  0.5748623E-013  0.5052886E+02  0.7816164E-02  0.1300439E+00
        -11   -1    0    0    0    0  0.00000000000E+00  0.00000000000E+00  0.45593999997E+02  0.45594000000E+02  0.51100000000E-03 0.  1.
         11   -1    0    0    0    0 -0.00000000000E+00 -0.00000000000E+00 -0.45593999997E+02  0.45594000000E+02  0.51100000000E-03 0. -1.
    9900012    2    1    2    0    0 -0.19142478216E+02 -0.13650126600E+02  0.33172355640E+02  0.50528860718E+02  0.30000002639E+02 0.  0.
         12    1    1    2    0    0  0.19142478216E+02  0.13650126600E+02 -0.33172355640E+02  0.40659139282E+02  0.00000000000E+00 0. -1.
         11    1    3    3    0    0  0.88490843188E+00 -0.57353803539E+01 -0.88285877194E+00  0.58700162359E+01  0.51100000000E-03 0. -1.
        -11    1    3    3    0    0 -0.21760237751E+02 -0.23815011997E+01  0.20823830143E+02  0.30212768774E+02  0.51100000000E-03 0.  1.
         12    1    3    3    0    0  0.17328511025E+01 -0.55332450463E+01  0.13231384269E+02  0.14446075708E+02  0.00000000000E+00 0. -1.
</event>
<event>
 7    1  0.5748623E-013  0.5052884E+02  0.7816164E-02  0.1300439E+00
        -11   -1    0    0    0    0  0.00000000000E+00  0.00000000000E+00  0.45593999997E+02  0.45594000000E+02  0.51100000000E-03 0.  1.
         11   -1    0    0    0    0 -0.00000000000E+00 -0.00000000000E+00 -0.45593999997E+02  0.45594000000E+02  0.51100000000E-03 0. -1.
    9900012    2    1    2    0    0  0.14467805621E+02 -0.37883722266E+02 -0.29450574160E+01  0.50528841432E+02  0.29999944018E+02 0.  0.
         12    1    1    2    0    0 -0.14467805621E+02  0.37883722266E+02  0.29450574160E+01  0.40659158568E+02  0.00000000000E+00 0. -1.
         11    1    3    3    0    0  0.36757650179E+01 -0.18991923289E+01  0.74121853996E+01  0.84887379879E+01  0.51100000000E-03 0. -1.
        -11    1    3    3    0    0  0.70468037456E+01 -0.13988809903E+02 -0.11905019234E+02  0.19674189405E+02  0.51100000000E-03 0.  1.
        -12    1    3    3    0    0  0.37452368576E+01 -0.21995720035E+02  0.15477764185E+01  0.22365914039E+02  0.00000000000E+00 0.  1.
</event>
<event>
 7    1  0.5748623E-013  0.5052886E+02  0.7816164E-02  0.1300439E+00
        -11   -1    0    0    0    0  0.00000000000E+00  0.00000000000E+00  0.45593999997E+02  0.45594000000E+02  0.51100000000E-03 0.  1.
         11   -1    0    0    0    0 -0.00000000000E+00 -0.00000000000E+00 -0.45593999997E+02  0.45594000000E+02  0.51100000000E-03 0. -1.
    9900012    2    1    2    0    0 -0.26876637085E+02  0.10927250116E+02  0.28485209335E+02  0.50528861213E+02  0.30000004142E+02 0.  0.
         12    1    1    2    0    0  0.26876637085E+02 -0.10927250116E+02 -0.28485209335E+02  0.40659138787E+02  0.00000000000E+00 0. -1.
         11    1    3    3    0    0  0.48759039310E+01  0.31378562578E+01  0.89439145604E+01  0.10658995683E+02  0.51100000000E-03 0. -1.
        -11    1    3    3    0    0 -0.18695722062E+02 -0.10649622772E+01  0.82127927510E+01  0.20447839326E+02  0.51100000000E-03 0.  1.
         12    1    3    3    0    0 -0.13056818953E+02  0.88543561358E+01  0.11328502023E+02  0.19422026204E+02  0.00000000000E+00 0. -1.
</event>
<event>
 7    1  0.5748623E-013  0.5052887E+02  0.7816164E-02  0.1300439E+00
        -11   -1    0    0    0    0  0.00000000000E+00  0.00000000000E+00  0.45593999997E+02  0.45594000000E+02  0.51100000000E-03 0. -1.
         11   -1    0    0    0    0 -0.00000000000E+00 -0.00000000000E+00 -0.45593999997E+02  0.45594000000E+02  0.51100000000E-03 0.  1.
    9900012    2    1    2    0    0  0.10195925522E+02 -0.18083985844E+02  0.34959657844E+02  0.50528866735E+02  0.30000020928E+02 0.  0.
         12    1    1    2    0    0 -0.10195925522E+02  0.18083985844E+02 -0.34959657844E+02  0.40659133265E+02  0.00000000000E+00 0. -1.
         11    1    3    3    0    0 -0.30235694959E+01 -0.20015394448E+02  0.19307169842E+02  0.27973644650E+02  0.51100000000E-03 0. -1.
        -11    1    3    3    0    0  0.49775514741E+01 -0.34764871165E+01  0.39010151727E+01  0.72166405610E+01  0.51100000000E-03 0.  1.
         12    1    3    3    0    0  0.82419435441E+01  0.54078957208E+01  0.11751472830E+02  0.15338581524E+02  0.00000000000E+00 0. -1.
</event>
<event>
 7    1  0.5748623E-013  0.5052882E+02  0.7816164E-02  0.1300439E+00
        -11   -1    0    0    0    0  0.00000000000E+00  0.00000000000E+00  0.45593999997E+02  0.45594000000E+02  0.51100000000E-03 0.  1.
         11   -1    0    0    0    0 -0.00000000000E+00 -0.00000000000E+00 -0.45593999997E+02  0.45594000000E+02  0.51100000000E-03 0. -1.
    9900012    2    1    2    0    0  0.16880065584E+02  0.21795790773E+02  0.29886051899E+02  0.50528816441E+02  0.29999868055E+02 0.  0.
         12    1    1    2    0    0 -0.16880065584E+02 -0.21795790773E+02 -0.29886051899E+02  0.40659183559E+02  0.00000000000E+00 0. -1.
         11    1    3    3    0    0  0.56704172738E+01 -0.29107127512E+01  0.18926034521E+02  0.19970494829E+02  0.51100000000E-03 0. -1.
        -11    1    3    3    0    0  0.43392729898E+01  0.40486018798E+01 -0.50020703095E+00  0.59557262022E+01  0.51100000000E-03 0.  1.
         12    1    3    3    0    0  0.68703753205E+01  0.20657901644E+02  0.11460224409E+02  0.24602595410E+02  0.00000000000E+00 0. -1.
</event>
<event>
 7    1  0.5748623E-013  0.5052887E+02  0.7816164E-02  0.1300439E+00
        -11   -1    0    0    0    0  0.00000000000E+00  0.00000000000E+00  0.45593999997E+02  0.45594000000E+02  0.51100000000E-03 0. -1.
         11   -1    0    0    0    0 -0.00000000000E+00 -0.00000000000E+00 -0.45593999997E+02  0.45594000000E+02  0.51100000000E-03 0.  1.
    9900012    2    1    2    0    0 -0.81183743539E+01  0.39819931651E+02  0.12768225786E+01  0.50528865298E+02  0.30000016559E+02 0.  0.
         12    1    1    2    0    0  0.81183743539E+01 -0.39819931651E+02 -0.12768225786E+01  0.40659134702E+02  0.00000000000E+00 0. -1.
         11    1    3    3    0    0  0.30851029753E+01  0.15365141986E+02 -0.10299985401E+01  0.15705615107E+02  0.51100000000E-03 0. -1.
        -11    1    3    3    0    0 -0.11440536134E+02  0.80758017925E+01  0.95111623010E+01  0.16928279600E+02  0.51100000000E-03 0.  1.
        -12    1    3    3    0    0  0.23705880477E+00  0.16378987872E+02 -0.72043411823E+01  0.17894970591E+02  0.00000000000E+00 0.  1.
</event>
<event>
 7    1  0.5748623E-013  0.5052886E+02  0.7816164E-02  0.1300439E+00
        -11   -1    0    0    0    0  0.00000000000E+00  0.00000000000E+00  0.45593999997E+02  0.45594000000E+02  0.51100000000E-03 0. -1.
         11   -1    0    0    0    0 -0.00000000000E+00 -0.00000000000E+00 -0.45593999997E+02  0.45594000000E+02  0.51100000000E-03 0.  1.
    9900012    2    1    2    0    0 -0.22618584831E+02 -0.97338843806E+01 -0.32354551575E+02  0.50528857209E+02  0.29999991972E+02 0.  0.
         12    1    1    2    0    0  0.22618584831E+02  0.97338843806E+01  0.32354551575E+02  0.40659142791E+02  0.00000000000E+00 0. -1.
         11    1    3    3    0    0 -0.59509238444E+01  0.94507487369E+01 -0.11554774788E+02  0.16069939855E+02  0.51100000000E-03 0. -1.
        -11    1    3    3    0    0 -0.15579748169E+02 -0.16419581006E+02 -0.21697768823E+02  0.31354814073E+02  0.51100000000E-03 0.  1.
        -12    1    3    3    0    0 -0.10879128175E+01 -0.27650521115E+01  0.89799203571E+00  0.31041032801E+01  0.00000000000E+00 0.  1.
</event>
<event>
 7    1  0.5748623E-013  0.5052885E+02  0.7816164E-02  0.1300439E+00
        -11   -1    0    0    0    0  0.00000000000E+00  0.00000000000E+00  0.45593999997E+02  0.45594000000E+02  0.51100000000E-03 0.  1.
         11   -1    0    0    0    0 -0.00000000000E+00 -0.00000000000E+00 -0.45593999997E+02  0.45594000000E+02  0.51100000000E-03 0. -1.
    9900012    2    1    2    0    0 -0.27697500327E+02 -0.12007127373E+02  0.27236814616E+02  0.50528847247E+02  0.29999961693E+02 0.  0.
         12    1    1    2    0    0  0.27697500327E+02  0.12007127373E+02 -0.27236814616E+02  0.40659152753E+02  0.00000000000E+00 0. -1.
         11    1    3    3    0    0  0.25169515299E+01  0.32150405000E+01  0.38281121234E+01  0.55969610603E+01  0.51100000000E-03 0. -1.
        -11    1    3    3    0    0 -0.21851661068E+02 -0.10665095174E+01  0.14289258342E+02  0.26130737422E+02  0.51100000000E-03 0.  1.
         12    1    3    3    0    0 -0.83627907886E+01 -0.14155658356E+02  0.91194441507E+01  0.18801148765E+02  0.00000000000E+00 0. -1.
</event>
<event>
 7    1  0.5748623E-013  0.5052887E+02  0.7816164E-02  0.1300439E+00
        -11   -1    0    0    0    0  0.00000000000E+00  0.00000000000E+00  0.45593999997E+02  0.45594000000E+02  0.51100000000E-03 0. -1.
         11   -1    0    0    0    0 -0.00000000000E+00 -0.00000000000E+00 -0.45593999997E+02  0.45594000000E+02  0.51100000000E-03 0.  1.
    9900012    2    1    2    0    0  0.18570112232E+02  0.16791683831E+02 -0.32036782727E+02  0.50528866196E+02  0.30000019290E+02 0.  0.
         12    1    1    2    0    0 -0.18570112232E+02 -0.16791683831E+02  0.32036782727E+02  0.40659133804E+02  0.00000000000E+00 0. -1.
         11    1    3    3    0    0 -0.24481802557E+01 -0.17802717822E+01  0.23732898526E+01  0.38464866006E+01  0.51100000000E-03 0. -1.
        -11    1    3    3    0    0  0.15903600472E+02  0.54867327710E+01 -0.13905589494E+02  0.21826455597E+02  0.51100000000E-03 0.  1.
         12    1    3    3    0    0  0.51146920163E+01  0.13085222843E+02 -0.20504483085E+02  0.24855923999E+02  0.00000000000E+00 0. -1.
</event>
<event>
 7    1  0.5748623E-013  0.5052886E+02  0.7816164E-02  0.1300439E+00
        -11   -1    0    0    0    0  0.00000000000E+00  0.00000000000E+00  0.45593999997E+02  0.45594000000E+02  0.51100000000E-03 0.  1.
         11   -1    0    0    0    0 -0.00000000000E+00 -0.00000000000E+00 -0.45593999997E+02  0.45594000000E+02  0.51100000000E-03 0. -1.
    9900012    2    1    2    0    0  0.27986924600E+02 -0.69786784934E+01  0.28656514318E+02  0.50528859393E+02  0.29999998610E+02 0.  0.
         12    1    1    2    0    0 -0.27986924600E+02  0.69786784934E+01 -0.28656514318E+02  0.40659140607E+02  0.00000000000E+00 0. -1.
         11    1    3    3    0    0  0.18034972151E+02 -0.89310880982E+01  0.21867809714E+01  0.20243679665E+02  0.51100000000E-03 0. -1.
        -11    1    3    3    0    0  0.10048292972E+02 -0.16766571786E+01  0.23435111721E+02  0.25553548336E+02  0.51100000000E-03 0.  1.
        -12    1    3    3    0    0 -0.96340523057E-01  0.36290667835E+01  0.30346216259E+01  0.47316313917E+01  0.00000000000E+00 0.  1.
</event>
<event>
 7    1  0.5748623E-013  0.5052882E+02  0.7816164E-02  0.1300439E+00
        -11   -1    0    0    0    0  0.00000000000E+00  0.00000000000E+00  0.45593999997E+02  0.45594000000E+02  0.51100000000E-03 0. -1.
         11   -1    0    0    0    0 -0.00000000000E+00 -0.00000000000E+00 -0.45593999997E+02  0.45594000000E+02  0.51100000000E-03 0.  1.
    9900012    2    1    2    0    0  0.29438956389E+02 -0.48607637965E+01 -0.27620454080E+02  0.50528823157E+02  0.29999888469E+02 0.  0.
         12    1    1    2    0    0 -0.29438956389E+02  0.48607637965E+01  0.27620454080E+02  0.40659176843E+02  0.00000000000E+00 0. -1.
         11    1    3    3    0    0  0.17902295275E+02  0.83599385893E+01 -0.53027986223E+01  0.20457282880E+02  0.51100000000E-03 0. -1.
        -11    1    3    3    0    0  0.77463694049E+01 -0.54291019989E+01 -0.18126963072E+02  0.20446715578E+02  0.51100000000E-03 0.  1.
         12    1    3    3    0    0  0.37902917092E+01 -0.77916003869E+01 -0.41906923857E+01  0.96248246997E+01  0.00000000000E+00 0. -1.
</event>
<event>
 7    1  0.5748623E-013  0.5052886E+02  0.7816164E-02  0.1300439E+00
        -11   -1    0    0    0    0  0.00000000000E+00  0.00000000000E+00  0.45593999997E+02  0.45594000000E+02  0.51100000000E-03 0. -1.
         11   -1    0    0    0    0 -0.00000000000E+00 -0.00000000000E+00 -0.45593999997E+02  0.45594000000E+02  0.51100000000E-03 0.  1.
    9900012    2    1    2    0    0  0.26670177161E+02  0.29961596076E+02  0.66460786928E+01  0.50528856486E+02  0.29999989776E+02 0.  0.
         12    1    1    2    0    0 -0.26670177161E+02 -0.29961596076E+02 -0.66460786928E+01  0.40659143514E+02  0.00000000000E+00 0. -1.
         11    1    3    3    0    0 -0.12937577611E+01 -0.86905488609E+00 -0.36577370893E+01  0.39759409471E+01  0.51100000000E-03 0. -1.
        -11    1    3    3    0    0  0.22799203801E+02  0.32567682390E+02  0.10437373605E+02  0.41102267556E+02  0.51100000000E-03 0.  1.
        -12    1    3    3    0    0  0.51647311220E+01 -0.17370314280E+01 -0.13355782333E+00  0.54506479832E+01  0.00000000000E+00 0.  1.
</event>
<event>
 7    1  0.5748623E-013  0.5052885E+02  0.7816164E-02  0.1300439E+00
        -11   -1    0    0    0    0  0.00000000000E+00  0.00000000000E+00  0.45593999997E+02  0.45594000000E+02  0.51100000000E-03 0.  1.
         11   -1    0    0    0    0 -0.00000000000E+00 -0.00000000000E+00 -0.45593999997E+02  0.45594000000E+02  0.51100000000E-03 0. -1.
    9900012    2    1    2    0    0  0.87015062269E+01 -0.39693962869E+02  0.13562450048E+01  0.50528852206E+02  0.29999976764E+02 0.  0.
         12    1    1    2    0    0 -0.87015062269E+01  0.39693962869E+02 -0.13562450048E+01  0.40659147794E+02  0.00000000000E+00 0. -1.
         11    1    3    3    0    0  0.11492323505E+01  0.14119968247E+01 -0.25702904366E+01  0.31497401826E+01  0.51100000000E-03 0. -1.
        -11    1    3    3    0    0  0.73649465866E+01 -0.35440879820E+02 -0.52664532958E+01  0.36579146124E+02  0.51100000000E-03 0.  1.
        -12    1    3    3    0    0  0.18732728988E+00 -0.56650798740E+01  0.91929887371E+01  0.10799965899E+02  0.00000000000E+00 0.  1.
</event>
<event>
 7    1  0.5748623E-013  0.5052886E+02  0.7816164E-02  0.1300439E+00
        -11   -1    0    0    0    0  0.00000000000E+00  0.00000000000E+00  0.45593999997E+02  0.45594000000E+02  0.51100000000E-03 0. -1.
         11   -1    0    0    0    0 -0.00000000000E+00 -0.00000000000E+00 -0.45593999997E+02  0.45594000000E+02  0.51100000000E-03 0.  1.
    9900012    2    1    2    0    0  0.54241131431E+01  0.38335279956E+02  0.12415770522E+02  0.50528855267E+02  0.29999986071E+02 0.  0.
         12    1    1    2    0    0 -0.54241131431E+01 -0.38335279956E+02 -0.12415770522E+02  0.40659144733E+02  0.00000000000E+00 0. -1.
         11    1    3    3    0    0 -0.67493174487E+01  0.28906125441E+02  0.48519384093E+01  0.30077544458E+02  0.51100000000E-03 0. -1.
        -11    1    3    3    0    0  0.87537728230E+01  0.70204901605E+00  0.65346763739E+00  0.88061587353E+01  0.51100000000E-03 0.  1.
        -12    1    3    3    0    0  0.34196577689E+01  0.87271054998E+01  0.69103644751E+01  0.11645152075E+02  0.00000000000E+00 0.  1.
</event>
<event>
 7    1  0.5748623E-013  0.5052887E+02  0.7816164E-02  0.1300439E+00
        -11   -1    0    0    0    0  0.00000000000E+00  0.00000000000E+00  0.45593999997E+02  0.45594000000E+02  0.51100000000E-03 0. -1.
         11   -1    0    0    0    0 -0.00000000000E+00 -0.00000000000E+00 -0.45593999997E+02  0.45594000000E+02  0.51100000000E-03 0.  1.
    9900012    2    1    2    0    0  0.71384942368E+01  0.32274084534E+02 -0.23676794006E+02  0.50528865641E+02  0.30000017601E+02 0.  0.
         12    1    1    2    0    0 -0.71384942368E+01 -0.32274084534E+02  0.23676794006E+02  0.40659134359E+02  0.00000000000E+00 0. -1.
         11    1    3    3    0    0 -0.54280546388E+01  0.11913216158E+02  0.90596651321E+00  0.13122853043E+02  0.51100000000E-03 0. -1.
        -11    1    3    3    0    0  0.31706335567E+01  0.30818867280E+01 -0.14785618040E+02  0.15432609762E+02  0.51100000000E-03 0.  1.
         12    1    3    3    0    0  0.93959153189E+01  0.17278981648E+02 -0.97971424785E+01  0.21973402836E+02  0.00000000000E+00 0. -1.
</event>
<event>
 7    1  0.5748623E-013  0.5052891E+02  0.7816164E-02  0.1300439E+00
        -11   -1    0    0    0    0  0.00000000000E+00  0.00000000000E+00  0.45593999997E+02  0.45594000000E+02  0.51100000000E-03 0.  1.
         11   -1    0    0    0    0 -0.00000000000E+00 -0.00000000000E+00 -0.45593999997E+02  0.45594000000E+02  0.51100000000E-03 0. -1.
    9900012    2    1    2    0    0 -0.19652887050E+02  0.11782416866E+01  0.35574397089E+02  0.50528905677E+02  0.30000139297E+02 0.  0.
         12    1    1    2    0    0  0.19652887050E+02 -0.11782416866E+01 -0.35574397089E+02  0.40659094323E+02  0.00000000000E+00 0. -1.
         11    1    3    3    0    0 -0.49815135417E+01  0.11106936595E+02  0.22804676344E+01  0.12384669983E+02  0.51100000000E-03 0. -1.
        -11    1    3    3    0    0 -0.12977997315E+02 -0.84158662150E+01  0.31971136883E+02  0.35516317550E+02  0.51100000000E-03 0.  1.
        -12    1    3    3    0    0 -0.16933761931E+01 -0.15128286934E+01  0.13227925721E+01  0.26279181448E+01  0.00000000000E+00 0.  1.
</event>
<event>
 7    1  0.5748623E-013  0.5052884E+02  0.7816164E-02  0.1300439E+00
        -11   -1    0    0    0    0  0.00000000000E+00  0.00000000000E+00  0.45593999997E+02  0.45594000000E+02  0.51100000000E-03 0. -1.
         11   -1    0    0    0    0 -0.00000000000E+00 -0.00000000000E+00 -0.45593999997E+02  0.45594000000E+02  0.51100000000E-03 0.  1.
    9900012    2    1    2    0    0 -0.14936660801E+02 -0.93767159442E+00 -0.37804548143E+02  0.50528844522E+02  0.29999953409E+02 0.  0.
         12    1    1    2    0    0  0.14936660801E+02  0.93767159442E+00  0.37804548143E+02  0.40659155478E+02  0.00000000000E+00 0. -1.
         11    1    3    3    0    0 -0.83781554313E+01 -0.82753909307E+00  0.13247198858E+01  0.85225109222E+01  0.51100000000E-03 0. -1.
        -11    1    3    3    0    0 -0.88374856578E+01  0.41998607260E+01 -0.19995379969E+02  0.22261069230E+02  0.51100000000E-03 0.  1.
         12    1    3    3    0    0  0.22789802880E+01 -0.43099932273E+01 -0.19133888059E+02  0.19745264370E+02  0.00000000000E+00 0. -1.
</event>
<event>
 7    1  0.5748623E-013  0.5052885E+02  0.7816164E-02  0.1300439E+00
        -11   -1    0    0    0    0  0.00000000000E+00  0.00000000000E+00  0.45593999997E+02  0.45594000000E+02  0.51100000000E-03 0. -1.
         11   -1    0    0    0    0 -0.00000000000E+00 -0.00000000000E+00 -0.45593999997E+02  0.45594000000E+02  0.51100000000E-03 0.  1.
    9900012    2    1    2    0    0 -0.26801656771E+02  0.23141939136E+01 -0.30487411043E+02  0.50528849354E+02  0.29999968097E+02 0.  0.
         12    1    1    2    0    0  0.26801656771E+02 -0.23141939136E+01  0.30487411043E+02  0.40659150646E+02  0.00000000000E+00 0. -1.
         11    1    3    3    0    0 -0.22587656840E+02 -0.11109965487E+02 -0.23529720136E+02  0.34456948567E+02  0.51100000000E-03 0. -1.
        -11    1    3    3    0    0 -0.33014725747E+01  0.13098023338E+02 -0.63301489145E+01  0.14917396625E+02  0.51100000000E-03 0.  1.
         12    1    3    3    0    0 -0.91252735624E+00  0.32613606227E+00 -0.62754199288E+00  0.11545041619E+01  0.00000000000E+00 0. -1.
</event>
<event>
 7    1  0.5748623E-013  0.5052885E+02  0.7816164E-02  0.1300439E+00
        -11   -1    0    0    0    0  0.00000000000E+00  0.00000000000E+00  0.45593999997E+02  0.45594000000E+02  0.51100000000E-03 0. -1.
         11   -1    0    0    0    0 -0.00000000000E+00 -0.00000000000E+00 -0.45593999997E+02  0.45594000000E+02  0.51100000000E-03 0.  1.
    9900012    2    1    2    0    0  0.29415919389E+02  0.71749534459E+01 -0.27136506073E+02  0.50528853030E+02  0.29999979271E+02 0.  0.
         12    1    1    2    0    0 -0.29415919389E+02 -0.71749534459E+01  0.27136506073E+02  0.40659146970E+02  0.00000000000E+00 0. -1.
         11    1    3    3    0    0 -0.55867249389E+01  0.71958650969E-01 -0.28300252734E+01  0.62630437408E+01  0.51100000000E-03 0. -1.
        -11    1    3    3    0    0  0.19534669268E+02  0.35403892546E+01 -0.77008605356E+01  0.21294152078E+02  0.51100000000E-03 0.  1.
        -12    1    3    3    0    0  0.15467975060E+02  0.35626055403E+01 -0.16605620264E+02  0.22971657212E+02  0.00000000000E+00 0.  1.
</event>
<event>
 7    1  0.5748623E-013  0.5052886E+02  0.7816164E-02  0.1300439E+00
        -11   -1    0    0    0    0  0.00000000000E+00  0.00000000000E+00  0.45593999997E+02  0.45594000000E+02  0.51100000000E-03 0.  1.
         11   -1    0    0    0    0 -0.00000000000E+00 -0.00000000000E+00 -0.45593999997E+02  0.45594000000E+02  0.51100000000E-03 0. -1.
    9900012    2    1    2    0    0  0.16953440411E+02 -0.10280763964E+02  0.35497216192E+02  0.50528860722E+02  0.30000002651E+02 0.  0.
         12    1    1    2    0    0 -0.16953440411E+02  0.10280763964E+02 -0.35497216192E+02  0.40659139278E+02  0.00000000000E+00 0. -1.
         11    1    3    3    0    0  0.12752886631E+02 -0.53979258862E+01  0.81996493854E+01  0.16093724603E+02  0.51100000000E-03 0. -1.
        -11    1    3    3    0    0 -0.60918180171E+01 -0.43276591759E+01  0.21155738292E+02  0.22436669620E+02  0.51100000000E-03 0.  1.
        -12    1    3    3    0    0  0.10292371797E+02 -0.55517890166E+00  0.61418285142E+01  0.11998466498E+02  0.00000000000E+00 0.  1.
</event>
<event>
 7    1  0.5748623E-013  0.5052886E+02  0.7816164E-02  0.1300439E+00
        -11   -1    0    0    0    0  0.00000000000E+00  0.00000000000E+00  0.45593999997E+02  0.45594000000E+02  0.51100000000E-03 0.  1.
         11   -1    0    0    0    0 -0.00000000000E+00 -0.00000000000E+00 -0.45593999997E+02  0.45594000000E+02  0.51100000000E-03 0. -1.
    9900012    2    1    2    0    0  0.30738206935E+02  0.53054109475E+00  0.26609155798E+02  0.50528855743E+02  0.29999987517E+02 0.  0.
         12    1    1    2    0    0 -0.30738206935E+02 -0.53054109475E+00 -0.26609155798E+02  0.40659144257E+02  0.00000000000E+00 0. -1.
         11    1    3    3    0    0  0.95838407200E+01  0.54682918282E+01 -0.39178639117E+01  0.11709051044E+02  0.51100000000E-03 0. -1.
        -11    1    3    3    0    0  0.48120341210E+01 -0.43546385037E+01  0.14669746728E+02  0.16041197530E+02  0.51100000000E-03 0.  1.
         12    1    3    3    0    0  0.16342332094E+02 -0.58311222980E+00  0.15857272981E+02  0.22778607169E+02  0.00000000000E+00 0. -1.
</event>
<event>
 7    1  0.5748623E-013  0.5052885E+02  0.7816164E-02  0.1300439E+00
        -11   -1    0    0    0    0  0.00000000000E+00  0.00000000000E+00  0.45593999997E+02  0.45594000000E+02  0.51100000000E-03 0. -1.
         11   -1    0    0    0    0 -0.00000000000E+00 -0.00000000000E+00 -0.45593999997E+02  0.45594000000E+02  0.51100000000E-03 0.  1.
    9900012    2    1    2    0    0  0.13446021307E+02  0.35610054024E+02  0.14293186923E+02  0.50528848152E+02  0.29999964444E+02 0.  0.
         12    1    1    2    0    0 -0.13446021307E+02 -0.35610054024E+02 -0.14293186923E+02  0.40659151848E+02  0.00000000000E+00 0. -1.
         11    1    3    3    0    0 -0.86767005519E+01  0.53287660444E+01  0.64570585654E+01  0.12057134220E+02  0.51100000000E-03 0. -1.
        -11    1    3    3    0    0  0.69418372734E+01  0.11539916267E+02  0.40130767801E+01  0.14052172703E+02  0.51100000000E-03 0.  1.
         12    1    3    3    0    0  0.15180884586E+02  0.18741371713E+02  0.38230515772E+01  0.24419541229E+02  0.00000000000E+00 0. -1.
</event>
<event>
 7    1  0.5748623E-013  0.5052886E+02  0.7816164E-02  0.1300439E+00
        -11   -1    0    0    0    0  0.00000000000E+00  0.00000000000E+00  0.45593999997E+02  0.45594000000E+02  0.51100000000E-03 0. -1.
         11   -1    0    0    0    0 -0.00000000000E+00 -0.00000000000E+00 -0.45593999997E+02  0.45594000000E+02  0.51100000000E-03 0.  1.
    9900012    2    1    2    0    0  0.36309670133E+02  0.17463288897E+02  0.54595793459E+01  0.50528860672E+02  0.30000002498E+02 0.  0.
         12    1    1    2    0    0 -0.36309670133E+02 -0.17463288897E+02 -0.54595793459E+01  0.40659139328E+02  0.00000000000E+00 0. -1.
         11    1    3    3    0    0  0.19182534845E+02  0.16650155954E+01  0.10353161256E+02  0.21861607175E+02  0.51100000000E-03 0. -1.
        -11    1    3    3    0    0  0.15599147456E+02  0.10287342380E+02 -0.98289132646E+01  0.21113274280E+02  0.51100000000E-03 0.  1.
        -12    1    3    3    0    0  0.15279878323E+01  0.55109309214E+01  0.49353313546E+01  0.75539792173E+01  0.00000000000E+00 0.  1.
</event>
<event>
 7    1  0.5748623E-013  0.5052886E+02  0.7816164E-02  0.1300439E+00
        -11   -1    0    0    0    0  0.00000000000E+00  0.00000000000E+00  0.45593999997E+02  0.45594000000E+02  0.51100000000E-03 0. -1.
         11   -1    0    0    0    0 -0.00000000000E+00 -0.00000000000E+00 -0.45593999997E+02  0.45594000000E+02  0.51100000000E-03 0.  1.
    9900012    2    1    2    0    0  0.31959620080E+02 -0.23782210751E+02 -0.81335619649E+01  0.50528859649E+02  0.29999999389E+02 0.  0.
         12    1    1    2    0    0 -0.31959620080E+02  0.23782210751E+02  0.81335619649E+01  0.40659140351E+02  0.00000000000E+00 0. -1.
         11    1    3    3    0    0  0.24675147464E+02 -0.16303084760E+02  0.66341275079E+01  0.30309488995E+02  0.51100000000E-03 0. -1.
        -11    1    3    3    0    0  0.41564015200E+00 -0.69052556406E+01 -0.74623653374E+01  0.10175569217E+02  0.51100000000E-03 0.  1.
         12    1    3    3    0    0  0.68688324636E+01 -0.57387035040E+00 -0.73053241354E+01  0.10043801437E+02  0.00000000000E+00 0. -1.
</event>
<event>
 7    1  0.5748623E-013  0.5052878E+02  0.7816164E-02  0.1300439E+00
        -11   -1    0    0    0    0  0.00000000000E+00  0.00000000000E+00  0.45593999997E+02  0.45594000000E+02  0.51100000000E-03 0.  1.
         11   -1    0    0    0    0 -0.00000000000E+00 -0.00000000000E+00 -0.45593999997E+02  0.45594000000E+02  0.51100000000E-03 0. -1.
    9900012    2    1    2    0    0  0.17586874576E+02 -0.40135445626E-01  0.36658863074E+02  0.50528781979E+02  0.29999763302E+02 0.  0.
         12    1    1    2    0    0 -0.17586874576E+02  0.40135445626E-01 -0.36658863074E+02  0.40659218021E+02  0.00000000000E+00 0. -1.
         11    1    3    3    0    0 -0.22231972182E+01  0.53721473743E+01  0.97994114416E+01  0.11394342374E+02  0.51100000000E-03 0. -1.
        -11    1    3    3    0    0  0.10012815898E+02 -0.12756927412E+02  0.15347008409E+02  0.22327703567E+02  0.51100000000E-03 0.  1.
        -12    1    3    3    0    0  0.97972558967E+01  0.73446445917E+01  0.11512443223E+02  0.16806736038E+02  0.00000000000E+00 0.  1.
</event>
<event>
 7    1  0.5748623E-013  0.5052885E+02  0.7816164E-02  0.1300439E+00
        -11   -1    0    0    0    0  0.00000000000E+00  0.00000000000E+00  0.45593999997E+02  0.45594000000E+02  0.51100000000E-03 0. -1.
         11   -1    0    0    0    0 -0.00000000000E+00 -0.00000000000E+00 -0.45593999997E+02  0.45594000000E+02  0.51100000000E-03 0.  1.
    9900012    2    1    2    0    0  0.38454853268E+02 -0.45607432243E+01 -0.12393146282E+02  0.50528853509E+02  0.29999980725E+02 0.  0.
         12    1    1    2    0    0 -0.38454853268E+02  0.45607432243E+01  0.12393146282E+02  0.40659146491E+02  0.00000000000E+00 0. -1.
         11    1    3    3    0    0  0.22796797426E+02  0.88282173470E+01 -0.93864470433E+01  0.26186576385E+02  0.51100000000E-03 0. -1.
        -11    1    3    3    0    0  0.16879922941E+02 -0.82838902202E+01 -0.32751801325E+01  0.19086158357E+02  0.51100000000E-03 0.  1.
         12    1    3    3    0    0 -0.12218670991E+01 -0.51050703512E+01  0.26848089380E+00  0.52561187666E+01  0.00000000000E+00 0. -1.
</event>
<event>
 7    1  0.5748623E-013  0.5052886E+02  0.7816164E-02  0.1300439E+00
        -11   -1    0    0    0    0  0.00000000000E+00  0.00000000000E+00  0.45593999997E+02  0.45594000000E+02  0.51100000000E-03 0.  1.
         11   -1    0    0    0    0 -0.00000000000E+00 -0.00000000000E+00 -0.45593999997E+02  0.45594000000E+02  0.51100000000E-03 0. -1.
    9900012    2    1    2    0    0 -0.16444889047E+02 -0.40006434189E+01  0.36969262325E+02  0.50528857358E+02  0.29999992425E+02 0.  0.
         12    1    1    2    0    0  0.16444889047E+02  0.40006434189E+01 -0.36969262325E+02  0.40659142642E+02  0.00000000000E+00 0. -1.
         11    1    3    3    0    0 -0.16775784927E+02 -0.34958544624E+01  0.11519723303E+02  0.20648292509E+02  0.51100000000E-03 0. -1.
        -11    1    3    3    0    0  0.36040614618E+01 -0.72519340559E+01  0.11897766750E+02  0.14392243066E+02  0.51100000000E-03 0.  1.
         12    1    3    3    0    0 -0.32731655824E+01  0.67471450994E+01  0.13551772272E+02  0.15488321782E+02  0.00000000000E+00 0. -1.
</event>
<event>
 7    1  0.5748623E-013  0.5052886E+02  0.7816164E-02  0.1300439E+00
        -11   -1    0    0    0    0  0.00000000000E+00  0.00000000000E+00  0.45593999997E+02  0.45594000000E+02  0.51100000000E-03 0.  1.
         11   -1    0    0    0    0 -0.00000000000E+00 -0.00000000000E+00 -0.45593999997E+02  0.45594000000E+02  0.51100000000E-03 0. -1.
    9900012    2    1    2    0    0 -0.47123810755E+01  0.25670407034E+02  0.31176746349E+02  0.50528857785E+02  0.29999993724E+02 0.  0.
         12    1    1    2    0    0  0.47123810755E+01 -0.25670407034E+02 -0.31176746349E+02  0.40659142215E+02  0.00000000000E+00 0. -1.
         11    1    3    3    0    0  0.10015603543E+00  0.17633584183E+02  0.12562471434E+02  0.21651074134E+02  0.51100000000E-03 0. -1.
        -11    1    3    3    0    0  0.16880795580E+01  0.33268436668E+01  0.20329540982E+02  0.20669004286E+02  0.51100000000E-03 0.  1.
        -12    1    3    3    0    0 -0.65006166690E+01  0.47099791840E+01 -0.17152660662E+01  0.82087793653E+01  0.00000000000E+00 0.  1.
</event>
<event>
 7    1  0.5748623E-013  0.5052888E+02  0.7816164E-02  0.1300439E+00
        -11   -1    0    0    0    0  0.00000000000E+00  0.00000000000E+00  0.45593999997E+02  0.45594000000E+02  0.51100000000E-03 0.  1.
         11   -1    0    0    0    0 -0.00000000000E+00 -0.00000000000E+00 -0.45593999997E+02  0.45594000000E+02  0.51100000000E-03 0. -1.
    9900012    2    1    2    0    0 -0.24268184871E+02  0.11731989682E+02  0.30439775905E+02  0.50528876350E+02  0.30000050154E+02 0.  0.
         12    1    1    2    0    0  0.24268184871E+02 -0.11731989682E+02 -0.30439775905E+02  0.40659123650E+02  0.00000000000E+00 0. -1.
         11    1    3    3    0    0  0.25934781621E+01  0.93285202924E+01  0.99931219794E+01  0.13914377707E+02  0.51100000000E-03 0. -1.
        -11    1    3    3    0    0 -0.14730342273E+02  0.82755962677E+01  0.11380953615E+02  0.20371415820E+02  0.51100000000E-03 0.  1.
         12    1    3    3    0    0 -0.12131320761E+02 -0.58721268783E+01  0.90657003107E+01  0.16243082823E+02  0.00000000000E+00 0. -1.
</event>
<event>
 7    1  0.5748623E-013  0.5052886E+02  0.7816164E-02  0.1300439E+00
        -11   -1    0    0    0    0  0.00000000000E+00  0.00000000000E+00  0.45593999997E+02  0.45594000000E+02  0.51100000000E-03 0.  1.
         11   -1    0    0    0    0 -0.00000000000E+00 -0.00000000000E+00 -0.45593999997E+02  0.45594000000E+02  0.51100000000E-03 0. -1.
    9900012    2    1    2    0    0  0.38127047428E+02 -0.10457579011E+02  0.94938479687E+01  0.50528857688E+02  0.29999993428E+02 0.  0.
         12    1    1    2    0    0 -0.38127047428E+02  0.10457579011E+02 -0.94938479687E+01  0.40659142312E+02  0.00000000000E+00 0. -1.
         11    1    3    3    0    0  0.26243252242E+01 -0.66775186284E+01  0.66751936936E+01  0.97997218850E+01  0.51100000000E-03 0. -1.
        -11    1    3    3    0    0  0.35209113698E+02  0.79717956557E+00  0.51354154553E+01  0.35590584075E+02  0.51100000000E-03 0.  1.
        -12    1    3    3    0    0  0.29360850564E+00 -0.45772399478E+01 -0.23167611801E+01  0.51385517279E+01  0.00000000000E+00 0.  1.
</event>
<event>
 7    1  0.5748623E-013  0.5052886E+02  0.7816164E-02  0.1300439E+00
        -11   -1    0    0    0    0  0.00000000000E+00  0.00000000000E+00  0.45593999997E+02  0.45594000000E+02  0.51100000000E-03 0.  1.
         11   -1    0    0    0    0 -0.00000000000E+00 -0.00000000000E+00 -0.45593999997E+02  0.45594000000E+02  0.51100000000E-03 0. -1.
    9900012    2    1    2    0    0  0.28734516240E+02  0.23858188366E+02  0.16071105169E+02  0.50528855924E+02  0.29999988067E+02 0.  0.
         12    1    1    2    0    0 -0.28734516240E+02 -0.23858188366E+02 -0.16071105169E+02  0.40659144076E+02  0.00000000000E+00 0. -1.
         11    1    3    3    0    0  0.56966758615E+01  0.21561741804E+02  0.63908723310E+01  0.23199225739E+02  0.51100000000E-03 0. -1.
        -11    1    3    3    0    0  0.13582022371E+02  0.23289031801E+01  0.11193316765E+02  0.17753463385E+02  0.51100000000E-03 0.  1.
         12    1    3    3    0    0  0.94558180075E+01 -0.32456618023E-01 -0.15130839263E+01  0.95761668005E+01  0.00000000000E+00 0. -1.
</event>
<event>
 7    1  0.5748623E-013  0.5052886E+02  0.7816164E-02  0.1300439E+00
        -11   -1    0    0    0    0  0.00000000000E+00  0.00000000000E+00  0.45593999997E+02  0.45594000000E+02  0.51100000000E-03 0.  1.
         11   -1    0    0    0    0 -0.00000000000E+00 -0.00000000000E+00 -0.45593999997E+02  0.45594000000E+02  0.51100000000E-03 0. -1.
    9900012    2    1    2    0    0 -0.19623630017E+02  0.34741608179E+02  0.78166265061E+01  0.50528857807E+02  0.29999993790E+02 0.  0.
         12    1    1    2    0    0  0.19623630017E+02 -0.34741608179E+02 -0.78166265061E+01  0.40659142193E+02  0.00000000000E+00 0. -1.
         11    1    3    3    0    0 -0.32100840099E+01  0.15095145988E+01 -0.77708610416E+01  0.85422219161E+01  0.51100000000E-03 0. -1.
        -11    1    3    3    0    0 -0.13488793149E+02  0.21277439266E+02  0.15689644221E+02  0.29678980751E+02  0.51100000000E-03 0.  1.
        -12    1    3    3    0    0 -0.29247528580E+01  0.11954654314E+02 -0.10215667364E+00  0.12307655140E+02  0.00000000000E+00 0.  1.
</event>
<event>
 7    1  0.5748623E-013  0.5052886E+02  0.7816164E-02  0.1300439E+00
        -11   -1    0    0    0    0  0.00000000000E+00  0.00000000000E+00  0.45593999997E+02  0.45594000000E+02  0.51100000000E-03 0.  1.
         11   -1    0    0    0    0 -0.00000000000E+00 -0.00000000000E+00 -0.45593999997E+02  0.45594000000E+02  0.51100000000E-03 0. -1.
    9900012    2    1    2    0    0  0.12293170924E+02 -0.16391650495E+02  0.35119192532E+02  0.50528856608E+02  0.29999990144E+02 0.  0.
         12    1    1    2    0    0 -0.12293170924E+02  0.16391650495E+02 -0.35119192532E+02  0.40659143392E+02  0.00000000000E+00 0. -1.
         11    1    3    3    0    0  0.46925292702E+00 -0.22855025986E+01  0.19015425205E+01  0.30099143935E+01  0.51100000000E-03 0. -1.
        -11    1    3    3    0    0 -0.82496776348E+01 -0.10378961478E+02  0.16246580343E+02  0.20969773378E+02  0.51100000000E-03 0.  1.
        -12    1    3    3    0    0  0.20073595631E+02 -0.37271864180E+01  0.16971069669E+02  0.26549168836E+02  0.00000000000E+00 0.  1.
</event>
<event>
 7    1  0.5748623E-013  0.5052886E+02  0.7816164E-02  0.1300439E+00
        -11   -1    0    0    0    0  0.00000000000E+00  0.00000000000E+00  0.45593999997E+02  0.45594000000E+02  0.51100000000E-03 0. -1.
         11   -1    0    0    0    0 -0.00000000000E+00 -0.00000000000E+00 -0.45593999997E+02  0.45594000000E+02  0.51100000000E-03 0.  1.
    9900012    2    1    2    0    0 -0.14213726630E+02 -0.12505198850E+02  0.35982711837E+02  0.50528861124E+02  0.30000003874E+02 0.  0.
         12    1    1    2    0    0  0.14213726630E+02  0.12505198850E+02 -0.35982711837E+02  0.40659138876E+02  0.00000000000E+00 0. -1.
         11    1    3    3    0    0 -0.74924694124E+01 -0.92058879843E+01  0.30168872683E+02  0.32419845013E+02  0.51100000000E-03 0. -1.
        -11    1    3    3    0    0 -0.57506190133E+01  0.80919310640E+00 -0.42495244632E+01  0.71960316108E+01  0.51100000000E-03 0.  1.
        -12    1    3    3    0    0 -0.97063820425E+00 -0.41085039719E+01  0.10063363617E+02  0.10912984500E+02  0.00000000000E+00 0.  1.
</event>
<event>
 7    1  0.5748623E-013  0.5052886E+02  0.7816164E-02  0.1300439E+00
        -11   -1    0    0    0    0  0.00000000000E+00  0.00000000000E+00  0.45593999997E+02  0.45594000000E+02  0.51100000000E-03 0.  1.
         11   -1    0    0    0    0 -0.00000000000E+00 -0.00000000000E+00 -0.45593999997E+02  0.45594000000E+02  0.51100000000E-03 0. -1.
    9900012    2    1    2    0    0 -0.94404797952E+01  0.25527270147E+02  0.30205981419E+02  0.50528862117E+02  0.30000006890E+02 0.  0.
         12    1    1    2    0    0  0.94404797952E+01 -0.25527270147E+02 -0.30205981419E+02  0.40659137883E+02  0.00000000000E+00 0. -1.
         11    1    3    3    0    0 -0.16727691449E+02  0.21013861713E+02  0.12895321269E+02  0.29794082571E+02  0.51100000000E-03 0. -1.
        -11    1    3    3    0    0  0.17877859971E+01  0.13388322878E+01  0.12681317224E+02  0.12876507968E+02  0.51100000000E-03 0.  1.
         12    1    3    3    0    0  0.54994256571E+01  0.31745761465E+01  0.46293429256E+01  0.78582715778E+01  0.00000000000E+00 0. -1.
</event>
<event>
 7    1  0.5748623E-013  0.5052886E+02  0.7816164E-02  0.1300439E+00
        -11   -1    0    0    0    0  0.00000000000E+00  0.00000000000E+00  0.45593999997E+02  0.45594000000E+02  0.51100000000E-03 0.  1.
         11   -1    0    0    0    0 -0.00000000000E+00 -0.00000000000E+00 -0.45593999997E+02  0.45594000000E+02  0.51100000000E-03 0. -1.
    9900012    2    1    2    0    0  0.22820401364E+02  0.33626279523E+02 -0.12915626637E+01  0.50528861702E+02  0.30000005631E+02 0.  0.
         12    1    1    2    0    0 -0.22820401364E+02 -0.33626279523E+02  0.12915626637E+01  0.40659138298E+02  0.00000000000E+00 0. -1.
         11    1    3    3    0    0 -0.25002694996E+01 -0.40498911574E+01 -0.15540907273E+01  0.50068117807E+01  0.51100000000E-03 0. -1.
        -11    1    3    3    0    0  0.17788132849E+02  0.25380068943E+02  0.16411095123E+01  0.31036411044E+02  0.51100000000E-03 0.  1.
         12    1    3    3    0    0  0.75325380149E+01  0.12296101738E+02 -0.13785814487E+01  0.14485638878E+02  0.00000000000E+00 0. -1.
</event>
<event>
 7    1  0.5748623E-013  0.5052885E+02  0.7816164E-02  0.1300439E+00
        -11   -1    0    0    0    0  0.00000000000E+00  0.00000000000E+00  0.45593999997E+02  0.45594000000E+02  0.51100000000E-03 0. -1.
         11   -1    0    0    0    0 -0.00000000000E+00 -0.00000000000E+00 -0.45593999997E+02  0.45594000000E+02  0.51100000000E-03 0.  1.
    9900012    2    1    2    0    0 -0.26821615540E+02 -0.21403973609E+02 -0.21809102078E+02  0.50528854905E+02  0.29999984970E+02 0.  0.
         12    1    1    2    0    0  0.26821615540E+02  0.21403973609E+02  0.21809102078E+02  0.40659145095E+02  0.00000000000E+00 0. -1.
         11    1    3    3    0    0 -0.16836316160E+02 -0.88443745152E+01 -0.87533712206E+00  0.19038138505E+02  0.51100000000E-03 0.  1.
        -11    1    3    3    0    0 -0.48342864587E+01 -0.66489062428E+01 -0.22085987248E+02  0.23566270659E+02  0.51100000000E-03 0. -1.
         12    1    3    3    0    0 -0.51510129212E+01 -0.59106928508E+01  0.11522222925E+01  0.79244457411E+01  0.00000000000E+00 0. -1.
</event>
<event>
 7    1  0.5748623E-013  0.5052886E+02  0.7816164E-02  0.1300439E+00
        -11   -1    0    0    0    0  0.00000000000E+00  0.00000000000E+00  0.45593999997E+02  0.45594000000E+02  0.51100000000E-03 0. -1.
         11   -1    0    0    0    0 -0.00000000000E+00 -0.00000000000E+00 -0.45593999997E+02  0.45594000000E+02  0.51100000000E-03 0.  1.
    9900012    2    1    2    0    0 -0.22494056192E+02  0.32787304750E+02  0.84956343716E+01  0.50528859329E+02  0.29999998416E+02 0.  0.
         12    1    1    2    0    0  0.22494056192E+02 -0.32787304750E+02 -0.84956343716E+01  0.40659140671E+02  0.00000000000E+00 0. -1.
         11    1    3    3    0    0 -0.12262434835E+02  0.23184396402E+02  0.82714597032E+01  0.27500919812E+02  0.51100000000E-03 0. -1.
        -11    1    3    3    0    0  0.31177363443E+01  0.59228444222E+01 -0.48655029352E+01  0.82748706960E+01  0.51100000000E-03 0.  1.
         12    1    3    3    0    0 -0.13349357701E+02  0.36800639260E+01  0.50896776036E+01  0.14753068821E+02  0.00000000000E+00 0. -1.
</event>
<event>
 7    1  0.5748623E-013  0.5052883E+02  0.7816164E-02  0.1300439E+00
        -11   -1    0    0    0    0  0.00000000000E+00  0.00000000000E+00  0.45593999997E+02  0.45594000000E+02  0.51100000000E-03 0.  1.
         11   -1    0    0    0    0 -0.00000000000E+00 -0.00000000000E+00 -0.45593999997E+02  0.45594000000E+02  0.51100000000E-03 0. -1.
    9900012    2    1    2    0    0 -0.99127563476E+01 -0.10760015623E+02  0.37935835831E+02  0.50528827421E+02  0.29999901430E+02 0.  0.
         12    1    1    2    0    0  0.99127563476E+01  0.10760015623E+02 -0.37935835831E+02  0.40659172579E+02  0.00000000000E+00 0. -1.
         11    1    3    3    0    0 -0.54953757632E+01  0.34770213360E+01  0.57413311525E+01  0.86747746837E+01  0.51100000000E-03 0. -1.
        -11    1    3    3    0    0  0.85348628866E+01 -0.60550553873E+01  0.18743774471E+02  0.21467106510E+02  0.51100000000E-03 0.  1.
        -12    1    3    3    0    0 -0.12952243471E+02 -0.81819815718E+01  0.13450730207E+02  0.20386946227E+02  0.00000000000E+00 0.  1.
</event>
<event>
 7    1  0.5748623E-013  0.5052886E+02  0.7816164E-02  0.1300439E+00
        -11   -1    0    0    0    0  0.00000000000E+00  0.00000000000E+00  0.45593999997E+02  0.45594000000E+02  0.51100000000E-03 0. -1.
         11   -1    0    0    0    0 -0.00000000000E+00 -0.00000000000E+00 -0.45593999997E+02  0.45594000000E+02  0.51100000000E-03 0.  1.
    9900012    2    1    2    0    0 -0.40627807871E+01 -0.39796193999E+02 -0.72747898600E+01  0.50528858199E+02  0.29999994980E+02 0.  0.
         12    1    1    2    0    0  0.40627807871E+01  0.39796193999E+02  0.72747898600E+01  0.40659141801E+02  0.00000000000E+00 0. -1.
         11    1    3    3    0    0 -0.84796144896E+01 -0.34499266587E+01 -0.98558870670E+01  0.13451556266E+02  0.51100000000E-03 0. -1.
        -11    1    3    3    0    0  0.19634760898E+01 -0.17773379806E+02  0.38817439042E+01  0.18297983607E+02  0.51100000000E-03 0.  1.
         12    1    3    3    0    0  0.24533576127E+01 -0.18572887534E+02 -0.13006466972E+01  0.18779318325E+02  0.00000000000E+00 0. -1.
</event>
<event>
 7    1  0.5748623E-013  0.5052881E+02  0.7816164E-02  0.1300439E+00
        -11   -1    0    0    0    0  0.00000000000E+00  0.00000000000E+00  0.45593999997E+02  0.45594000000E+02  0.51100000000E-03 0.  1.
         11   -1    0    0    0    0 -0.00000000000E+00 -0.00000000000E+00 -0.45593999997E+02  0.45594000000E+02  0.51100000000E-03 0. -1.
    9900012    2    1    2    0    0 -0.38872547825E+02  0.11473118282E+02  0.32345779257E+01  0.50528807781E+02  0.29999841732E+02 0.  0.
         12    1    1    2    0    0  0.38872547825E+02 -0.11473118282E+02 -0.32345779257E+01  0.40659192219E+02  0.00000000000E+00 0. -1.
         11    1    3    3    0    0 -0.30265861093E+02  0.38828777557E+01 -0.68364028633E+01  0.31270361234E+02  0.51100000000E-03 0. -1.
        -11    1    3    3    0    0 -0.96217258551E+01  0.53495738007E+01  0.11886340761E+02  0.16201254433E+02  0.51100000000E-03 0.  1.
        -12    1    3    3    0    0  0.10150391227E+01  0.22406667253E+01 -0.18153599715E+01  0.30571921138E+01  0.00000000000E+00 0.  1.
</event>
<event>
 7    1  0.5748623E-013  0.5052887E+02  0.7816164E-02  0.1300439E+00
        -11   -1    0    0    0    0  0.00000000000E+00  0.00000000000E+00  0.45593999997E+02  0.45594000000E+02  0.51100000000E-03 0. -1.
         11   -1    0    0    0    0 -0.00000000000E+00 -0.00000000000E+00 -0.45593999997E+02  0.45594000000E+02  0.51100000000E-03 0.  1.
    9900012    2    1    2    0    0 -0.32261814783E+02  0.10175581281E+02 -0.22556545885E+02  0.50528869294E+02  0.30000028706E+02 0.  0.
         12    1    1    2    0    0  0.32261814783E+02 -0.10175581281E+02  0.22556545885E+02  0.40659130706E+02  0.00000000000E+00 0. -1.
         11    1    3    3    0    0 -0.15320049809E+02  0.19670668163E+02 -0.11244362192E+02  0.27350955989E+02  0.51100000000E-03 0. -1.
        -11    1    3    3    0    0 -0.16912679635E+02 -0.94677499375E+01 -0.11797813268E+02  0.22690646079E+02  0.51100000000E-03 0.  1.
        -12    1    3    3    0    0 -0.29085338840E-01 -0.27336944964E-01  0.48562957465E+00  0.48726722573E+00  0.00000000000E+00 0.  1.
</event>
<event>
 7    1  0.5748623E-013  0.5052884E+02  0.7816164E-02  0.1300439E+00
        -11   -1    0    0    0    0  0.00000000000E+00  0.00000000000E+00  0.45593999997E+02  0.45594000000E+02  0.51100000000E-03 0. -1.
         11   -1    0    0    0    0 -0.00000000000E+00 -0.00000000000E+00 -0.45593999997E+02  0.45594000000E+02  0.51100000000E-03 0.  1.
    9900012    2    1    2    0    0  0.18933139161E+02  0.35623110772E+02 -0.50693100295E+01  0.50528835182E+02  0.29999925018E+02 0.  0.
         12    1    1    2    0    0 -0.18933139161E+02 -0.35623110772E+02  0.50693100295E+01  0.40659164818E+02  0.00000000000E+00 0. -1.
         11    1    3    3    0    0 -0.15410376231E+01  0.10095827566E+01 -0.80976544089E+01  0.83045807531E+01  0.51100000000E-03 0. -1.
        -11    1    3    3    0    0  0.12098183727E+02  0.16621536395E+02 -0.44171934586E+01  0.21027437313E+02  0.51100000000E-03 0.  1.
         12    1    3    3    0    0  0.83759930573E+01  0.17991991620E+02  0.74455378380E+01  0.21196817116E+02  0.00000000000E+00 0. -1.
</event>
<event>
 7    1  0.5748623E-013  0.5052886E+02  0.7816164E-02  0.1300439E+00
        -11   -1    0    0    0    0  0.00000000000E+00  0.00000000000E+00  0.45593999997E+02  0.45594000000E+02  0.51100000000E-03 0. -1.
         11   -1    0    0    0    0 -0.00000000000E+00 -0.00000000000E+00 -0.45593999997E+02  0.45594000000E+02  0.51100000000E-03 0.  1.
    9900012    2    1    2    0    0  0.15853370369E+02 -0.69722794970E+01 -0.36786189078E+02  0.50528859080E+02  0.29999997660E+02 0.  0.
         12    1    1    2    0    0 -0.15853370369E+02  0.69722794970E+01  0.36786189078E+02  0.40659140920E+02  0.00000000000E+00 0. -1.
         11    1    3    3    0    0  0.97264065301E+00 -0.55302932653E+01 -0.18674818120E+02  0.19500743717E+02  0.51100000000E-03 0. -1.
        -11    1    3    3    0    0  0.77486029525E+01  0.92058360748E+01 -0.11336080940E+02  0.16531636244E+02  0.51100000000E-03 0.  1.
        -12    1    3    3    0    0  0.71321267634E+01 -0.10647822306E+02 -0.67752900183E+01  0.14496479120E+02  0.00000000000E+00 0.  1.
</event>
<event>
 7    1  0.5748623E-013  0.5052886E+02  0.7816164E-02  0.1300439E+00
        -11   -1    0    0    0    0  0.00000000000E+00  0.00000000000E+00  0.45593999997E+02  0.45594000000E+02  0.51100000000E-03 0.  1.
         11   -1    0    0    0    0 -0.00000000000E+00 -0.00000000000E+00 -0.45593999997E+02  0.45594000000E+02  0.51100000000E-03 0. -1.
    9900012    2    1    2    0    0  0.10545827472E+02  0.44642250399E+01  0.39013098016E+02  0.50528860817E+02  0.30000002940E+02 0.  0.
         12    1    1    2    0    0 -0.10545827472E+02 -0.44642250399E+01 -0.39013098016E+02  0.40659139183E+02  0.00000000000E+00 0. -1.
         11    1    3    3    0    0  0.42253102388E+01 -0.23892120495E+00  0.15793263579E+00  0.42350056593E+01  0.51100000000E-03 0. -1.
        -11    1    3    3    0    0 -0.33628047050E+01  0.11595721971E+02  0.26650391024E+02  0.29257692416E+02  0.51100000000E-03 0.  1.
        -12    1    3    3    0    0  0.96833219379E+01 -0.68925757259E+01  0.12204774356E+02  0.17036162742E+02  0.00000000000E+00 0.  1.
</event>
<event>
 7    1  0.5748623E-013  0.5052884E+02  0.7816164E-02  0.1300439E+00
        -11   -1    0    0    0    0  0.00000000000E+00  0.00000000000E+00  0.45593999997E+02  0.45594000000E+02  0.51100000000E-03 0.  1.
         11   -1    0    0    0    0 -0.00000000000E+00 -0.00000000000E+00 -0.45593999997E+02  0.45594000000E+02  0.51100000000E-03 0. -1.
    9900012    2    1    2    0    0 -0.24329929032E+02 -0.88595868532E+01  0.31348514955E+02  0.50528842166E+02  0.29999946247E+02 0.  0.
         12    1    1    2    0    0  0.24329929032E+02  0.88595868532E+01 -0.31348514955E+02  0.40659157834E+02  0.00000000000E+00 0. -1.
         11    1    3    3    0    0 -0.81992027940E+01  0.27968531071E+01  0.26719553284E+02  0.28088856184E+02  0.51100000000E-03 0. -1.
        -11    1    3    3    0    0 -0.42025343111E+01 -0.44833813982E+01  0.58284735854E+01  0.84695400108E+01  0.51100000000E-03 0.  1.
         12    1    3    3    0    0 -0.11928191927E+02 -0.71730585621E+01 -0.11995119150E+01  0.13970445971E+02  0.00000000000E+00 0. -1.
</event>
<event>
 7    1  0.5748623E-013  0.5052885E+02  0.7816164E-02  0.1300439E+00
        -11   -1    0    0    0    0  0.00000000000E+00  0.00000000000E+00  0.45593999997E+02  0.45594000000E+02  0.51100000000E-03 0. -1.
         11   -1    0    0    0    0 -0.00000000000E+00 -0.00000000000E+00 -0.45593999997E+02  0.45594000000E+02  0.51100000000E-03 0.  1.
    9900012    2    1    2    0    0  0.34026843004E+02 -0.22103104500E+02 -0.26063216805E+01  0.50528853599E+02  0.29999981000E+02 0.  0.
         12    1    1    2    0    0 -0.34026843004E+02  0.22103104500E+02  0.26063216805E+01  0.40659146401E+02  0.00000000000E+00 0. -1.
         11    1    3    3    0    0  0.71144228070E+01 -0.13898563461E+02  0.84235968149E+01  0.17740971274E+02  0.51100000000E-03 0. -1.
        -11    1    3    3    0    0  0.25670506718E+02 -0.39727559877E+01 -0.11388802885E+02  0.28363048791E+02  0.51100000000E-03 0.  1.
        -12    1    3    3    0    0  0.12419134784E+01 -0.42317850509E+01  0.35888438916E+00  0.44248335347E+01  0.00000000000E+00 0.  1.
</event>
<event>
 7    1  0.5748623E-013  0.5052886E+02  0.7816164E-02  0.1300439E+00
        -11   -1    0    0    0    0  0.00000000000E+00  0.00000000000E+00  0.45593999997E+02  0.45594000000E+02  0.51100000000E-03 0. -1.
         11   -1    0    0    0    0 -0.00000000000E+00 -0.00000000000E+00 -0.45593999997E+02  0.45594000000E+02  0.51100000000E-03 0.  1.
    9900012    2    1    2    0    0  0.50538390663E+00  0.35129029089E+02 -0.20466106566E+02  0.50528860614E+02  0.30000002323E+02 0.  0.
         12    1    1    2    0    0 -0.50538390663E+00 -0.35129029089E+02  0.20466106566E+02  0.40659139386E+02  0.00000000000E+00 0. -1.
         11    1    3    3    0    0  0.73411555103E+01  0.21532244895E+02 -0.12079356512E+02  0.25757348242E+02  0.51100000000E-03 0.  1.
        -11    1    3    3    0    0 -0.10703083214E+02  0.76830658191E+01 -0.11074772959E+02  0.17211510306E+02  0.51100000000E-03 0. -1.
         12    1    3    3    0    0  0.38673116099E+01  0.59137183743E+01  0.26880229054E+01  0.75600020660E+01  0.00000000000E+00 0. -1.
</event>
<event>
 7    1  0.5748623E-013  0.5052886E+02  0.7816164E-02  0.1300439E+00
        -11   -1    0    0    0    0  0.00000000000E+00  0.00000000000E+00  0.45593999997E+02  0.45594000000E+02  0.51100000000E-03 0. -1.
         11   -1    0    0    0    0 -0.00000000000E+00 -0.00000000000E+00 -0.45593999997E+02  0.45594000000E+02  0.51100000000E-03 0.  1.
    9900012    2    1    2    0    0 -0.36158053725E+02  0.12800779551E+02  0.13487061261E+02  0.50528860465E+02  0.30000001869E+02 0.  0.
         12    1    1    2    0    0  0.36158053725E+02 -0.12800779551E+02 -0.13487061261E+02  0.40659139535E+02  0.00000000000E+00 0. -1.
         11    1    3    3    0    0 -0.98929935010E+01 -0.23775850910E+01  0.15674842329E+02  0.18687560397E+02  0.51100000000E-03 0. -1.
        -11    1    3    3    0    0 -0.13135088136E+02  0.33162467286E+01  0.19017131486E+01  0.13680078431E+02  0.51100000000E-03 0.  1.
         12    1    3    3    0    0 -0.13129972087E+02  0.11862117913E+02 -0.40894942167E+01  0.18161221637E+02  0.00000000000E+00 0. -1.
</event>
<event>
 7    1  0.5748623E-013  0.5052885E+02  0.7816164E-02  0.1300439E+00
        -11   -1    0    0    0    0  0.00000000000E+00  0.00000000000E+00  0.45593999997E+02  0.45594000000E+02  0.51100000000E-03 0.  1.
         11   -1    0    0    0    0 -0.00000000000E+00 -0.00000000000E+00 -0.45593999997E+02  0.45594000000E+02  0.51100000000E-03 0. -1.
    9900012    2    1    2    0    0  0.10945478500E+02  0.38416561821E+02  0.75848941435E+01  0.50528851694E+02  0.29999975210E+02 0.  0.
         12    1    1    2    0    0 -0.10945478500E+02 -0.38416561821E+02 -0.75848941435E+01  0.40659148306E+02  0.00000000000E+00 0. -1.
         11    1    3    3    0    0 -0.55051750611E+01  0.13293615726E+02 -0.70891366070E+01  0.16040044564E+02  0.51100000000E-03 0. -1.
        -11    1    3    3    0    0  0.90867650299E+01  0.78426753707E+01  0.85307602498E+01  0.14725852314E+02  0.51100000000E-03 0.  1.
         12    1    3    3    0    0  0.73638885312E+01  0.17280270725E+02  0.61432705006E+01  0.19762954816E+02  0.00000000000E+00 0. -1.
</event>
<event>
 7    1  0.5748623E-013  0.5052886E+02  0.7816164E-02  0.1300439E+00
        -11   -1    0    0    0    0  0.00000000000E+00  0.00000000000E+00  0.45593999997E+02  0.45594000000E+02  0.51100000000E-03 0.  1.
         11   -1    0    0    0    0 -0.00000000000E+00 -0.00000000000E+00 -0.45593999997E+02  0.45594000000E+02  0.51100000000E-03 0. -1.
    9900012    2    1    2    0    0  0.12249776229E+01  0.33133947633E+02  0.23533100089E+02  0.50528857661E+02  0.29999993347E+02 0.  0.
         12    1    1    2    0    0 -0.12249776229E+01 -0.33133947633E+02 -0.23533100089E+02  0.40659142339E+02  0.00000000000E+00 0. -1.
         11    1    3    3    0    0 -0.25588457613E+01  0.17144552033E+02 -0.32865290176E+01  0.17643260166E+02  0.51100000000E-03 0. -1.
        -11    1    3    3    0    0  0.59129989066E+01  0.75746396460E+01  0.94994161935E+01  0.13512129000E+02  0.51100000000E-03 0.  1.
         12    1    3    3    0    0 -0.21291755224E+01  0.84147559533E+01  0.17320212913E+02  0.19373468495E+02  0.00000000000E+00 0. -1.
</event>
<event>
 7    1  0.5748623E-013  0.5052888E+02  0.7816164E-02  0.1300439E+00
        -11   -1    0    0    0    0  0.00000000000E+00  0.00000000000E+00  0.45593999997E+02  0.45594000000E+02  0.51100000000E-03 0.  1.
         11   -1    0    0    0    0 -0.00000000000E+00 -0.00000000000E+00 -0.45593999997E+02  0.45594000000E+02  0.51100000000E-03 0. -1.
    9900012    2    1    2    0    0 -0.26613979043E+02 -0.93619788136E+01  0.29278210667E+02  0.50528878666E+02  0.30000057192E+02 0.  0.
         12    1    1    2    0    0  0.26613979043E+02  0.93619788136E+01 -0.29278210667E+02  0.40659121334E+02  0.00000000000E+00 0. -1.
         11    1    3    3    0    0 -0.10053184983E+02  0.41336426439E+01  0.19110788776E+02  0.21985808552E+02  0.51100000000E-03 0. -1.
        -11    1    3    3    0    0 -0.18245620117E+02 -0.13788925258E+02  0.12172558572E+02  0.25907687965E+02  0.51100000000E-03 0.  1.
        -12    1    3    3    0    0  0.16848260573E+01  0.29330380064E+00 -0.20051366803E+01  0.26353821486E+01  0.00000000000E+00 0.  1.
</event>
<event>
 7    1  0.5748623E-013  0.5052886E+02  0.7816164E-02  0.1300439E+00
        -11   -1    0    0    0    0  0.00000000000E+00  0.00000000000E+00  0.45593999997E+02  0.45594000000E+02  0.51100000000E-03 0.  1.
         11   -1    0    0    0    0 -0.00000000000E+00 -0.00000000000E+00 -0.45593999997E+02  0.45594000000E+02  0.51100000000E-03 0. -1.
    9900012    2    1    2    0    0  0.13886327039E+02 -0.26566658920E+02  0.27469034884E+02  0.50528864221E+02  0.30000013286E+02 0.  0.
         12    1    1    2    0    0 -0.13886327039E+02  0.26566658920E+02 -0.27469034884E+02  0.40659135779E+02  0.00000000000E+00 0. -1.
         11    1    3    3    0    0  0.10848160932E+02 -0.28542202673E+02  0.19786460757E+02  0.36384666531E+02  0.51100000000E-03 0. -1.
        -11    1    3    3    0    0 -0.10782716596E+01  0.31351564255E+01 -0.17778740537E+01  0.37620090372E+01  0.51100000000E-03 0.  1.
        -12    1    3    3    0    0  0.41164377658E+01 -0.11596126730E+01  0.94604481808E+01  0.10382188652E+02  0.00000000000E+00 0.  1.
</event>
<event>
 7    1  0.5748623E-013  0.5052887E+02  0.7816164E-02  0.1300439E+00
        -11   -1    0    0    0    0  0.00000000000E+00  0.00000000000E+00  0.45593999997E+02  0.45594000000E+02  0.51100000000E-03 0. -1.
         11   -1    0    0    0    0 -0.00000000000E+00 -0.00000000000E+00 -0.45593999997E+02  0.45594000000E+02  0.51100000000E-03 0.  1.
    9900012    2    1    2    0    0 -0.37504004740E+02  0.84895562267E+01  0.13211437450E+02  0.50528867988E+02  0.30000024737E+02 0.  0.
         12    1    1    2    0    0  0.37504004740E+02 -0.84895562267E+01 -0.13211437450E+02  0.40659132012E+02  0.00000000000E+00 0. -1.
         11    1    3    3    0    0 -0.10219769770E+02 -0.35227885659E+00  0.10814622109E+02  0.14883677172E+02  0.51100000000E-03 0. -1.
        -11    1    3    3    0    0 -0.20876017859E+02  0.36004533388E+01 -0.77430483269E+01  0.22554959178E+02  0.51100000000E-03 0.  1.
        -12    1    3    3    0    0 -0.64082171112E+01  0.52413817445E+01  0.10139863668E+02  0.13090231638E+02  0.00000000000E+00 0.  1.
</event>
<event>
 7    1  0.5748623E-013  0.5052886E+02  0.7816164E-02  0.1300439E+00
        -11   -1    0    0    0    0  0.00000000000E+00  0.00000000000E+00  0.45593999997E+02  0.45594000000E+02  0.51100000000E-03 0.  1.
         11   -1    0    0    0    0 -0.00000000000E+00 -0.00000000000E+00 -0.45593999997E+02  0.45594000000E+02  0.51100000000E-03 0. -1.
    9900012    2    1    2    0    0 -0.34760035990E+01 -0.21173581401E+02  0.34536395657E+02  0.50528858650E+02  0.29999996353E+02 0.  0.
         12    1    1    2    0    0  0.34760035990E+01  0.21173581401E+02 -0.34536395657E+02  0.40659141350E+02  0.00000000000E+00 0. -1.
         11    1    3    3    0    0  0.11725162337E+01 -0.26269284616E+00  0.25788618809E+02  0.25816596643E+02  0.51100000000E-03 0. -1.
        -11    1    3    3    0    0  0.29132783587E+00 -0.15750562733E+02  0.75495959974E+01  0.17468872268E+02  0.51100000000E-03 0.  1.
         12    1    3    3    0    0 -0.49398476686E+01 -0.51603258217E+01  0.11981808498E+01  0.72433897398E+01  0.00000000000E+00 0. -1.
</event>
<event>
 7    1  0.5748623E-013  0.5052886E+02  0.7816164E-02  0.1300439E+00
        -11   -1    0    0    0    0  0.00000000000E+00  0.00000000000E+00  0.45593999997E+02  0.45594000000E+02  0.51100000000E-03 0.  1.
         11   -1    0    0    0    0 -0.00000000000E+00 -0.00000000000E+00 -0.45593999997E+02  0.45594000000E+02  0.51100000000E-03 0. -1.
    9900012    2    1    2    0    0  0.33019065038E+02 -0.19088840747E+02  0.14089831292E+02  0.50528857819E+02  0.29999993828E+02 0.  0.
         12    1    1    2    0    0 -0.33019065038E+02  0.19088840747E+02 -0.14089831292E+02  0.40659142181E+02  0.00000000000E+00 0. -1.
         11    1    3    3    0    0  0.56448391107E+01  0.12233234806E+01 -0.27740251561E+01  0.64074912993E+01  0.51100000000E-03 0. -1.
        -11    1    3    3    0    0  0.24791455639E+02 -0.22574672250E+02  0.20355164310E+02  0.39224543519E+02  0.51100000000E-03 0.  1.
        -12    1    3    3    0    0  0.25827702881E+01  0.22625080225E+01 -0.34913078626E+01  0.48968230012E+01  0.00000000000E+00 0.  1.
</event>
<event>
 7    1  0.5748623E-013  0.5052886E+02  0.7816164E-02  0.1300439E+00
        -11   -1    0    0    0    0  0.00000000000E+00  0.00000000000E+00  0.45593999997E+02  0.45594000000E+02  0.51100000000E-03 0.  1.
         11   -1    0    0    0    0 -0.00000000000E+00 -0.00000000000E+00 -0.45593999997E+02  0.45594000000E+02  0.51100000000E-03 0. -1.
    9900012    2    1    2    0    0 -0.10196582635E+02  0.21832005774E+02  0.32749940366E+02  0.50528863665E+02  0.30000011597E+02 0.  0.
         12    1    1    2    0    0  0.10196582635E+02 -0.21832005774E+02 -0.32749940366E+02  0.40659136335E+02  0.00000000000E+00 0. -1.
         11    1    3    3    0    0 -0.20568743361E+01 -0.20975514190E+01  0.86798806839E+01  0.91635573299E+01  0.51100000000E-03 0. -1.
        -11    1    3    3    0    0 -0.66433244934E+01  0.27283598732E+02  0.15576316183E+02  0.32111526687E+02  0.51100000000E-03 0.  1.
        -12    1    3    3    0    0 -0.14963838053E+01 -0.33540415397E+01  0.84937434991E+01  0.92537796479E+01  0.00000000000E+00 0.  1.
</event>
<event>
 7    1  0.5748623E-013  0.5052886E+02  0.7816164E-02  0.1300439E+00
        -11   -1    0    0    0    0  0.00000000000E+00  0.00000000000E+00  0.45593999997E+02  0.45594000000E+02  0.51100000000E-03 0. -1.
         11   -1    0    0    0    0 -0.00000000000E+00 -0.00000000000E+00 -0.45593999997E+02  0.45594000000E+02  0.51100000000E-03 0.  1.
    9900012    2    1    2    0    0  0.29387744429E+02 -0.85807041665E+01 -0.26756259156E+02  0.50528863134E+02  0.30000009983E+02 0.  0.
         12    1    1    2    0    0 -0.29387744429E+02  0.85807041665E+01  0.26756259156E+02  0.40659136866E+02  0.00000000000E+00 0. -1.
         11    1    3    3    0    0  0.27082550284E-01  0.70198215615E+01 -0.79437937860E+01  0.10601060711E+02  0.51100000000E-03 0. -1.
        -11    1    3    3    0    0  0.20034838442E+02 -0.47369272414E+01 -0.13681449927E+02  0.24718723742E+02  0.51100000000E-03 0.  1.
         12    1    3    3    0    0  0.93258234375E+01 -0.10863598487E+02 -0.51310154426E+01  0.15209078681E+02  0.00000000000E+00 0. -1.
</event>
<event>
 7    1  0.5748623E-013  0.5052886E+02  0.7816164E-02  0.1300439E+00
        -11   -1    0    0    0    0  0.00000000000E+00  0.00000000000E+00  0.45593999997E+02  0.45594000000E+02  0.51100000000E-03 0.  1.
         11   -1    0    0    0    0 -0.00000000000E+00 -0.00000000000E+00 -0.45593999997E+02  0.45594000000E+02  0.51100000000E-03 0. -1.
    9900012    2    1    2    0    0 -0.16204490099E+02  0.19315770442E+02  0.31897985713E+02  0.50528856136E+02  0.29999988712E+02 0.  0.
         12    1    1    2    0    0  0.16204490099E+02 -0.19315770442E+02 -0.31897985713E+02  0.40659143864E+02  0.00000000000E+00 0. -1.
         11    1    3    3    0    0 -0.12424808147E+01 -0.55861695739E+01  0.71606665212E+01  0.91664712061E+01  0.51100000000E-03 0. -1.
        -11    1    3    3    0    0 -0.55244588575E+01  0.19491486537E+02  0.88507894819E+01  0.22108237555E+02  0.51100000000E-03 0.  1.
        -12    1    3    3    0    0 -0.94375504265E+01  0.54104534797E+01  0.15886529710E+02  0.19254147375E+02  0.00000000000E+00 0.  1.
</event>
<event>
 7    1  0.5748623E-013  0.5052887E+02  0.7816164E-02  0.1300439E+00
        -11   -1    0    0    0    0  0.00000000000E+00  0.00000000000E+00  0.45593999997E+02  0.45594000000E+02  0.51100000000E-03 0.  1.
         11   -1    0    0    0    0 -0.00000000000E+00 -0.00000000000E+00 -0.45593999997E+02  0.45594000000E+02  0.51100000000E-03 0. -1.
    9900012    2    1    2    0    0 -0.35001605010E+02  0.75529825750E+01  0.19261479050E+02  0.50528874650E+02  0.30000044985E+02 0.  0.
         12    1    1    2    0    0  0.35001605010E+02 -0.75529825750E+01 -0.19261479050E+02  0.40659125350E+02  0.00000000000E+00 0. -1.
         11    1    3    3    0    0 -0.12537605914E+02 -0.81160616684E+01  0.14307319050E+02  0.20682393423E+02  0.51100000000E-03 0. -1.
        -11    1    3    3    0    0 -0.19314920905E+02  0.14454303047E+02  0.78807708084E+01  0.25379117300E+02  0.51100000000E-03 0.  1.
        -12    1    3    3    0    0 -0.31490781913E+01  0.12147411969E+01 -0.29266108080E+01  0.44673639265E+01  0.00000000000E+00 0.  1.
</event>
<event>
 7    1  0.5748623E-013  0.5052887E+02  0.7816164E-02  0.1300439E+00
        -11   -1    0    0    0    0  0.00000000000E+00  0.00000000000E+00  0.45593999997E+02  0.45594000000E+02  0.51100000000E-03 0.  1.
         11   -1    0    0    0    0 -0.00000000000E+00 -0.00000000000E+00 -0.45593999997E+02  0.45594000000E+02  0.51100000000E-03 0. -1.
    9900012    2    1    2    0    0 -0.27482193769E+02 -0.28784873565E+02  0.83261745503E+01  0.50528866916E+02  0.30000021478E+02 0.  0.
         12    1    1    2    0    0  0.27482193769E+02  0.28784873565E+02 -0.83261745503E+01  0.40659133084E+02  0.00000000000E+00 0. -1.
         11    1    3    3    0    0  0.44916041826E+01 -0.27228424653E+01 -0.15065213586E+00  0.52546242065E+01  0.51100000000E-03 0. -1.
        -11    1    3    3    0    0 -0.25196156479E+02 -0.27220203192E+02  0.45864716050E+01  0.37374075041E+02  0.51100000000E-03 0.  1.
        -12    1    3    3    0    0 -0.67776414727E+01  0.11581720926E+01  0.38903550811E+01  0.79001676682E+01  0.00000000000E+00 0.  1.
</event>
<event>
 7    1  0.5748623E-013  0.5052886E+02  0.7816164E-02  0.1300439E+00
        -11   -1    0    0    0    0  0.00000000000E+00  0.00000000000E+00  0.45593999997E+02  0.45594000000E+02  0.51100000000E-03 0.  1.
         11   -1    0    0    0    0 -0.00000000000E+00 -0.00000000000E+00 -0.45593999997E+02  0.45594000000E+02  0.51100000000E-03 0. -1.
    9900012    2    1    2    0    0 -0.26210022574E+02 -0.40466106800E+01  0.30819239341E+02  0.50528857672E+02  0.29999993380E+02 0.  0.
         12    1    1    2    0    0  0.26210022574E+02  0.40466106800E+01 -0.30819239341E+02  0.40659142328E+02  0.00000000000E+00 0. -1.
         11    1    3    3    0    0 -0.98615931295E+01 -0.10215015116E+02  0.63083971625E+01  0.15536840988E+02  0.51100000000E-03 0. -1.
        -11    1    3    3    0    0 -0.38782395925E+01  0.18558700283E+01  0.20864155896E+02  0.21302534999E+02  0.51100000000E-03 0.  1.
         12    1    3    3    0    0 -0.12470189852E+02  0.43125344076E+01  0.36466862828E+01  0.13689481685E+02  0.00000000000E+00 0. -1.
</event>
<event>
 7    1  0.5748623E-013  0.5052886E+02  0.7816164E-02  0.1300439E+00
        -11   -1    0    0    0    0  0.00000000000E+00  0.00000000000E+00  0.45593999997E+02  0.45594000000E+02  0.51100000000E-03 0.  1.
         11   -1    0    0    0    0 -0.00000000000E+00 -0.00000000000E+00 -0.45593999997E+02  0.45594000000E+02  0.51100000000E-03 0. -1.
    9900012    2    1    2    0    0  0.26073331289E+02 -0.29996519084E+02  0.85764764528E+01  0.50528859453E+02  0.29999998795E+02 0.  0.
         12    1    1    2    0    0 -0.26073331289E+02  0.29996519084E+02 -0.85764764528E+01  0.40659140547E+02  0.00000000000E+00 0. -1.
         11    1    3    3    0    0 -0.64524860931E+00 -0.43381448934E+01 -0.67856045541E+00  0.44380504095E+01  0.51100000000E-03 0. -1.
        -11    1    3    3    0    0  0.29477794255E+02 -0.23873345757E+02  0.18364846144E+01  0.37976962329E+02  0.51100000000E-03 0.  1.
        -12    1    3    3    0    0 -0.27592143568E+01 -0.17850284334E+01  0.74185522938E+01  0.81138467147E+01  0.00000000000E+00 0.  1.
</event>
<event>
 7    1  0.5748623E-013  0.5052886E+02  0.7816164E-02  0.1300439E+00
        -11   -1    0    0    0    0  0.00000000000E+00  0.00000000000E+00  0.45593999997E+02  0.45594000000E+02  0.51100000000E-03 0.  1.
         11   -1    0    0    0    0 -0.00000000000E+00 -0.00000000000E+00 -0.45593999997E+02  0.45594000000E+02  0.51100000000E-03 0. -1.
    9900012    2    1    2    0    0 -0.28505116783E+02  0.15218087864E+02  0.24678603856E+02  0.50528863643E+02  0.30000011528E+02 0.  0.
         12    1    1    2    0    0  0.28505116783E+02 -0.15218087864E+02 -0.24678603856E+02  0.40659136357E+02  0.00000000000E+00 0. -1.
         11    1    3    3    0    0  0.44149985537E+01  0.38619543546E+01  0.52633197419E+01  0.78809541702E+01  0.51100000000E-03 0. -1.
        -11    1    3    3    0    0 -0.26117509016E+02  0.14976339049E+02  0.13833455546E+02  0.33132755713E+02  0.51100000000E-03 0.  1.
        -12    1    3    3    0    0 -0.68026063207E+01 -0.36202055398E+01  0.55818285676E+01  0.95151537593E+01  0.00000000000E+00 0.  1.
</event>
<event>
 7    1  0.5748623E-013  0.5052886E+02  0.7816164E-02  0.1300439E+00
        -11   -1    0    0    0    0  0.00000000000E+00  0.00000000000E+00  0.45593999997E+02  0.45594000000E+02  0.51100000000E-03 0.  1.
         11   -1    0    0    0    0 -0.00000000000E+00 -0.00000000000E+00 -0.45593999997E+02  0.45594000000E+02  0.51100000000E-03 0. -1.
    9900012    2    1    2    0    0 -0.35585529963E+02  0.73344537614E+01  0.18249432432E+02  0.50528856639E+02  0.29999990240E+02 0.  0.
         12    1    1    2    0    0  0.35585529963E+02 -0.73344537614E+01 -0.18249432432E+02  0.40659143361E+02  0.00000000000E+00 0. -1.
         11    1    3    3    0    0 -0.19517273543E+01 -0.45375338171E+01  0.16810868775E+01  0.52177108158E+01  0.51100000000E-03 0. -1.
        -11    1    3    3    0    0 -0.10430400277E+02  0.15478649846E+02  0.65436778765E+01  0.19778816229E+02  0.51100000000E-03 0.  1.
        -12    1    3    3    0    0 -0.23203402332E+02 -0.36066622673E+01  0.10024667678E+02  0.25532329595E+02  0.00000000000E+00 0.  1.
</event>
<event>
 7    1  0.5748623E-013  0.5052880E+02  0.7816164E-02  0.1300439E+00
        -11   -1    0    0    0    0  0.00000000000E+00  0.00000000000E+00  0.45593999997E+02  0.45594000000E+02  0.51100000000E-03 0. -1.
         11   -1    0    0    0    0 -0.00000000000E+00 -0.00000000000E+00 -0.45593999997E+02  0.45594000000E+02  0.51100000000E-03 0.  1.
    9900012    2    1    2    0    0  0.80393102308E+01 -0.35759930752E+02 -0.17600208841E+02  0.50528800455E+02  0.29999819463E+02 0.  0.
         12    1    1    2    0    0 -0.80393102308E+01  0.35759930752E+02  0.17600208841E+02  0.40659199545E+02  0.00000000000E+00 0. -1.
         11    1    3    3    0    0 -0.34257779386E+01 -0.14553496900E+02 -0.59291930236E+01  0.16084015564E+02  0.51100000000E-03 0. -1.
        -11    1    3    3    0    0  0.13890524562E+02 -0.18963161498E+02 -0.12799668244E+01  0.23541165688E+02  0.51100000000E-03 0.  1.
        -12    1    3    3    0    0 -0.24254363929E+01 -0.22432723547E+01 -0.10391048993E+02  0.10903619203E+02  0.00000000000E+00 0.  1.
</event>
<event>
 7    1  0.5748623E-013  0.5052886E+02  0.7816164E-02  0.1300439E+00
        -11   -1    0    0    0    0  0.00000000000E+00  0.00000000000E+00  0.45593999997E+02  0.45594000000E+02  0.51100000000E-03 0.  1.
         11   -1    0    0    0    0 -0.00000000000E+00 -0.00000000000E+00 -0.45593999997E+02  0.45594000000E+02  0.51100000000E-03 0. -1.
    9900012    2    1    2    0    0 -0.28531798215E+02 -0.12051662966E+02  0.26341219951E+02  0.50528856402E+02  0.29999989519E+02 0.  0.
         12    1    1    2    0    0  0.28531798215E+02  0.12051662966E+02 -0.26341219951E+02  0.40659143598E+02  0.00000000000E+00 0. -1.
         11    1    3    3    0    0  0.23278615114E+01  0.53938555365E+01  0.23139062302E+01  0.63140144969E+01  0.51100000000E-03 0. -1.
        -11    1    3    3    0    0 -0.15943997245E+02 -0.97072183450E+01  0.19093160876E+02  0.26701871258E+02  0.51100000000E-03 0.  1.
         12    1    3    3    0    0 -0.14915662481E+02 -0.77383001580E+01  0.49341528446E+01  0.17512970647E+02  0.00000000000E+00 0. -1.
</event>
<event>
 7    1  0.5748623E-013  0.5052886E+02  0.7816164E-02  0.1300439E+00
        -11   -1    0    0    0    0  0.00000000000E+00  0.00000000000E+00  0.45593999997E+02  0.45594000000E+02  0.51100000000E-03 0.  1.
         11   -1    0    0    0    0 -0.00000000000E+00 -0.00000000000E+00 -0.45593999997E+02  0.45594000000E+02  0.51100000000E-03 0. -1.
    9900012    2    1    2    0    0  0.61755183461E-01  0.77411817920E+01  0.39915356666E+02  0.50528863179E+02  0.30000010118E+02 0.  0.
         12    1    1    2    0    0 -0.61755183461E-01 -0.77411817920E+01 -0.39915356666E+02  0.40659136821E+02  0.00000000000E+00 0. -1.
         11    1    3    3    0    0  0.16697313639E+01 -0.46635681871E+01  0.57055707636E+01  0.75558195494E+01  0.51100000000E-03 0. -1.
        -11    1    3    3    0    0 -0.11655596546E+02  0.10554676658E+02  0.19219329069E+02  0.24832171479E+02  0.51100000000E-03 0.  1.
        -12    1    3    3    0    0  0.10047620366E+02  0.18500733208E+01  0.14990456834E+02  0.18140872151E+02  0.00000000000E+00 0.  1.
</event>
<event>
 7    1  0.5748623E-013  0.5052886E+02  0.7816164E-02  0.1300439E+00
        -11   -1    0    0    0    0  0.00000000000E+00  0.00000000000E+00  0.45593999997E+02  0.45594000000E+02  0.51100000000E-03 0.  1.
         11   -1    0    0    0    0 -0.00000000000E+00 -0.00000000000E+00 -0.45593999997E+02  0.45594000000E+02  0.51100000000E-03 0. -1.
    9900012    2    1    2    0    0 -0.20282367544E+02  0.21666978411E+02 -0.27790879337E+02  0.50528863745E+02  0.30000011839E+02 0.  0.
         12    1    1    2    0    0  0.20282367544E+02 -0.21666978411E+02  0.27790879337E+02  0.40659136255E+02  0.00000000000E+00 0. -1.
         11    1    3    3    0    0 -0.40334699556E+01  0.75698747676E+00 -0.17211345450E+02  0.17693849846E+02  0.51100000000E-03 0. -1.
        -11    1    3    3    0    0 -0.18974027603E+02  0.17317397946E+02 -0.11640023947E+02  0.28202768531E+02  0.51100000000E-03 0.  1.
         12    1    3    3    0    0  0.27251300142E+01  0.35925929890E+01  0.10604900593E+01  0.46322453676E+01  0.00000000000E+00 0. -1.
</event>
<event>
 7    1  0.5748623E-013  0.5052887E+02  0.7816164E-02  0.1300439E+00
        -11   -1    0    0    0    0  0.00000000000E+00  0.00000000000E+00  0.45593999997E+02  0.45594000000E+02  0.51100000000E-03 0. -1.
         11   -1    0    0    0    0 -0.00000000000E+00 -0.00000000000E+00 -0.45593999997E+02  0.45594000000E+02  0.51100000000E-03 0.  1.
    9900012    2    1    2    0    0  0.22110778965E+02 -0.15726156608E+01 -0.34085269147E+02  0.50528865242E+02  0.30000016390E+02 0.  0.
         12    1    1    2    0    0 -0.22110778965E+02  0.15726156608E+01  0.34085269147E+02  0.40659134758E+02  0.00000000000E+00 0. -1.
         11    1    3    3    0    0  0.22440087811E+02  0.60694335216E+01 -0.24118661796E+02  0.33497841890E+02  0.51100000000E-03 0. -1.
        -11    1    3    3    0    0  0.15834171451E+01 -0.71888232357E+01 -0.51715615606E+00  0.73792845263E+01  0.51100000000E-03 0.  1.
        -12    1    3    3    0    0 -0.19127259910E+01 -0.45322594671E+00 -0.94494511946E+01  0.96517388254E+01  0.00000000000E+00 0.  1.
</event>
<event>
 7    1  0.5748623E-013  0.5052885E+02  0.7816164E-02  0.1300439E+00
        -11   -1    0    0    0    0  0.00000000000E+00  0.00000000000E+00  0.45593999997E+02  0.45594000000E+02  0.51100000000E-03 0. -1.
         11   -1    0    0    0    0 -0.00000000000E+00 -0.00000000000E+00 -0.45593999997E+02  0.45594000000E+02  0.51100000000E-03 0.  1.
    9900012    2    1    2    0    0 -0.39010056987E+02  0.55724380877E+01 -0.10016464765E+02  0.50528853689E+02  0.29999981272E+02 0.  0.
         12    1    1    2    0    0  0.39010056987E+02 -0.55724380877E+01  0.10016464765E+02  0.40659146311E+02  0.00000000000E+00 0. -1.
         11    1    3    3    0    0  0.45939051628E+00 -0.92048400651E+00  0.20587397230E+01  0.23014647425E+01  0.51100000000E-03 0. -1.
        -11    1    3    3    0    0 -0.33522730348E+02  0.91051201884E+01 -0.18272518222E+02  0.39249988358E+02  0.51100000000E-03 0.  1.
        -12    1    3    3    0    0 -0.59467171554E+01 -0.26121980942E+01  0.61973137341E+01  0.89774005886E+01  0.00000000000E+00 0.  1.
</event>
<event>
 7    1  0.5748623E-013  0.5052885E+02  0.7816164E-02  0.1300439E+00
        -11   -1    0    0    0    0  0.00000000000E+00  0.00000000000E+00  0.45593999997E+02  0.45594000000E+02  0.51100000000E-03 0. -1.
         11   -1    0    0    0    0 -0.00000000000E+00 -0.00000000000E+00 -0.45593999997E+02  0.45594000000E+02  0.51100000000E-03 0.  1.
    9900012    2    1    2    0    0  0.39063059256E+02 -0.68931196779E+01 -0.89290949488E+01  0.50528850550E+02  0.29999971733E+02 0.  0.
         12    1    1    2    0    0 -0.39063059256E+02  0.68931196779E+01  0.89290949488E+01  0.40659149450E+02  0.00000000000E+00 0. -1.
         11    1    3    3    0    0  0.94862392656E+01  0.63939326403E+01 -0.83685285664E+00  0.11470459144E+02  0.51100000000E-03 0. -1.
        -11    1    3    3    0    0  0.31893503002E+02 -0.15071924944E+02 -0.77192937776E+01  0.36110191801E+02  0.51100000000E-03 0.  1.
        -12    1    3    3    0    0 -0.23166830109E+01  0.17848726261E+01 -0.37294831453E+00  0.29481996049E+01  0.00000000000E+00 0.  1.
</event>
<event>
 7    1  0.5748623E-013  0.5052886E+02  0.7816164E-02  0.1300439E+00
        -11   -1    0    0    0    0  0.00000000000E+00  0.00000000000E+00  0.45593999997E+02  0.45594000000E+02  0.51100000000E-03 0.  1.
         11   -1    0    0    0    0 -0.00000000000E+00 -0.00000000000E+00 -0.45593999997E+02  0.45594000000E+02  0.51100000000E-03 0. -1.
    9900012    2    1    2    0    0  0.18058353236E+02  0.34110476809E+02  0.12788151051E+02  0.50528861335E+02  0.30000004513E+02 0.  0.
         12    1    1    2    0    0 -0.18058353236E+02 -0.34110476809E+02 -0.12788151051E+02  0.40659138665E+02  0.00000000000E+00 0. -1.
         11    1    3    3    0    0 -0.49826797302E+01  0.84281890479E+01  0.10669446424E+02  0.14480972176E+02  0.51100000000E-03 0. -1.
        -11    1    3    3    0    0  0.18629509582E+02  0.15735486186E+02  0.47710909046E+01  0.24848087682E+02  0.51100000000E-03 0.  1.
        -12    1    3    3    0    0  0.44115233841E+01  0.99468015748E+01 -0.26523862779E+01  0.11199801476E+02  0.00000000000E+00 0.  1.
</event>
<event>
 7    1  0.5748623E-013  0.5052886E+02  0.7816164E-02  0.1300439E+00
        -11   -1    0    0    0    0  0.00000000000E+00  0.00000000000E+00  0.45593999997E+02  0.45594000000E+02  0.51100000000E-03 0. -1.
         11   -1    0    0    0    0 -0.00000000000E+00 -0.00000000000E+00 -0.45593999997E+02  0.45594000000E+02  0.51100000000E-03 0.  1.
    9900012    2    1    2    0    0  0.40008424079E+02  0.57379347035E+01 -0.44235682516E+01  0.50528857756E+02  0.29999993635E+02 0.  0.
         12    1    1    2    0    0 -0.40008424079E+02 -0.57379347035E+01  0.44235682516E+01  0.40659142244E+02  0.00000000000E+00 0. -1.
         11    1    3    3    0    0  0.18021098836E+02  0.46908599550E+01  0.11300352956E+02  0.21782152042E+02  0.51100000000E-03 0. -1.
        -11    1    3    3    0    0  0.18041778338E+02 -0.29792772095E+01 -0.10644634425E+02  0.21158688537E+02  0.51100000000E-03 0.  1.
         12    1    3    3    0    0  0.39455469040E+01  0.40263519580E+01 -0.50792867821E+01  0.75880171769E+01  0.00000000000E+00 0. -1.
</event>
<event>
 7    1  0.5748623E-013  0.5052887E+02  0.7816164E-02  0.1300439E+00
        -11   -1    0    0    0    0  0.00000000000E+00  0.00000000000E+00  0.45593999997E+02  0.45594000000E+02  0.51100000000E-03 0.  1.
         11   -1    0    0    0    0 -0.00000000000E+00 -0.00000000000E+00 -0.45593999997E+02  0.45594000000E+02  0.51100000000E-03 0. -1.
    9900012    2    1    2    0    0 -0.27293523587E+02 -0.30135817646E+02 -0.24678226066E+00  0.50528870195E+02  0.30000031446E+02 0.  0.
         12    1    1    2    0    0  0.27293523587E+02  0.30135817646E+02  0.24678226066E+00  0.40659129805E+02  0.00000000000E+00 0. -1.
         11    1    3    3    0    0 -0.24514376424E+02 -0.28589054951E+02 -0.73052498500E+01  0.38362160915E+02  0.51100000000E-03 0.  1.
        -11    1    3    3    0    0  0.29593892618E+01  0.54455202179E+00  0.24893490420E+00  0.30193526715E+01  0.51100000000E-03 0. -1.
         12    1    3    3    0    0 -0.57385364249E+01 -0.20913147175E+01  0.68095326852E+01  0.91473566093E+01  0.00000000000E+00 0. -1.
</event>
<event>
 7    1  0.5748623E-013  0.5052886E+02  0.7816164E-02  0.1300439E+00
        -11   -1    0    0    0    0  0.00000000000E+00  0.00000000000E+00  0.45593999997E+02  0.45594000000E+02  0.51100000000E-03 0. -1.
         11   -1    0    0    0    0 -0.00000000000E+00 -0.00000000000E+00 -0.45593999997E+02  0.45594000000E+02  0.51100000000E-03 0.  1.
    9900012    2    1    2    0    0 -0.15048634387E+02  0.91570746703E+01 -0.36644946835E+02  0.50528861519E+02  0.30000005074E+02 0.  0.
         12    1    1    2    0    0  0.15048634387E+02 -0.91570746703E+01  0.36644946835E+02  0.40659138481E+02  0.00000000000E+00 0. -1.
         11    1    3    3    0    0 -0.11404392842E+01 -0.52020175790E+00 -0.95406723743E+00  0.15752638460E+01  0.51100000000E-03 0. -1.
        -11    1    3    3    0    0 -0.14765317324E+02 -0.67588808766E+01 -0.23074797152E+02  0.28216011948E+02  0.51100000000E-03 0.  1.
        -12    1    3    3    0    0  0.85712222093E+00  0.16436157305E+02 -0.12616082446E+02  0.20737585726E+02  0.00000000000E+00 0.  1.
</event>
<event>
 7    1  0.5748623E-013  0.5052885E+02  0.7816164E-02  0.1300439E+00
        -11   -1    0    0    0    0  0.00000000000E+00  0.00000000000E+00  0.45593999997E+02  0.45594000000E+02  0.51100000000E-03 0.  1.
         11   -1    0    0    0    0 -0.00000000000E+00 -0.00000000000E+00 -0.45593999997E+02  0.45594000000E+02  0.51100000000E-03 0. -1.
    9900012    2    1    2    0    0 -0.27440032719E+02  0.20235422418E+02  0.22152616520E+02  0.50528854230E+02  0.29999982918E+02 0.  0.
         12    1    1    2    0    0  0.27440032719E+02 -0.20235422418E+02 -0.22152616520E+02  0.40659145770E+02  0.00000000000E+00 0. -1.
         11    1    3    3    0    0 -0.21206769856E+02  0.41737311549E+01  0.28457911512E+01  0.21800129519E+02  0.51100000000E-03 0.  1.
        -11    1    3    3    0    0 -0.88854523288E+01  0.16347629426E+02  0.16848567578E+02  0.25101204764E+02  0.51100000000E-03 0. -1.
        -12    1    3    3    0    0  0.26521894662E+01 -0.28593816323E+00  0.24582577915E+01  0.36275199471E+01  0.00000000000E+00 0.  1.
</event>
<event>
 7    1  0.5748623E-013  0.5052886E+02  0.7816164E-02  0.1300439E+00
        -11   -1    0    0    0    0  0.00000000000E+00  0.00000000000E+00  0.45593999997E+02  0.45594000000E+02  0.51100000000E-03 0.  1.
         11   -1    0    0    0    0 -0.00000000000E+00 -0.00000000000E+00 -0.45593999997E+02  0.45594000000E+02  0.51100000000E-03 0. -1.
    9900012    2    1    2    0    0  0.39398825010E+02 -0.97345305956E+01  0.24773885024E+01  0.50528856479E+02  0.29999989752E+02 0.  0.
         12    1    1    2    0    0 -0.39398825010E+02  0.97345305956E+01 -0.24773885024E+01  0.40659143521E+02  0.00000000000E+00 0. -1.
         11    1    3    3    0    0 -0.14120174593E+00 -0.28847859631E+01 -0.74881634798E+01  0.80258657195E+01  0.51100000000E-03 0. -1.
        -11    1    3    3    0    0  0.26224544626E+02 -0.43226288001E+00  0.38610740103E+01  0.26510780539E+02  0.51100000000E-03 0.  1.
         12    1    3    3    0    0  0.13315482130E+02 -0.64174817525E+01  0.61044779718E+01  0.15992210220E+02  0.00000000000E+00 0. -1.
</event>
<event>
 7    1  0.5748623E-013  0.5052886E+02  0.7816164E-02  0.1300439E+00
        -11   -1    0    0    0    0  0.00000000000E+00  0.00000000000E+00  0.45593999997E+02  0.45594000000E+02  0.51100000000E-03 0.  1.
         11   -1    0    0    0    0 -0.00000000000E+00 -0.00000000000E+00 -0.45593999997E+02  0.45594000000E+02  0.51100000000E-03 0. -1.
    9900012    2    1    2    0    0  0.14436650018E+02 -0.33486579323E+02  0.17983272907E+02  0.50528856343E+02  0.29999989339E+02 0.  0.
         12    1    1    2    0    0 -0.14436650018E+02  0.33486579323E+02 -0.17983272907E+02  0.40659143657E+02  0.00000000000E+00 0. -1.
         11    1    3    3    0    0 -0.11394283014E+01  0.26728819196E+01  0.87594209807E+01  0.92287621482E+01  0.51100000000E-03 0. -1.
        -11    1    3    3    0    0  0.71793671769E+01 -0.20554937660E+02  0.10836490548E+01  0.21799611712E+02  0.51100000000E-03 0.  1.
         12    1    3    3    0    0  0.83967111420E+01 -0.15604523583E+02  0.81402028717E+01  0.19500482482E+02  0.00000000000E+00 0. -1.
</event>
<event>
 7    1  0.5748623E-013  0.5052889E+02  0.7816164E-02  0.1300439E+00
        -11   -1    0    0    0    0  0.00000000000E+00  0.00000000000E+00  0.45593999997E+02  0.45594000000E+02  0.51100000000E-03 0. -1.
         11   -1    0    0    0    0 -0.00000000000E+00 -0.00000000000E+00 -0.45593999997E+02  0.45594000000E+02  0.51100000000E-03 0.  1.
    9900012    2    1    2    0    0 -0.23152474137E+02  0.19320861723E+02 -0.27273260040E+02  0.50528887004E+02  0.30000082538E+02 0.  0.
         12    1    1    2    0    0  0.23152474137E+02 -0.19320861723E+02  0.27273260040E+02  0.40659112996E+02  0.00000000000E+00 0. -1.
         11    1    3    3    0    0 -0.10748077386E+01  0.21377937572E+01  0.22632670511E+01  0.32935925414E+01  0.51100000000E-03 0. -1.
        -11    1    3    3    0    0 -0.19750214212E+02  0.15238796496E+02 -0.33796618965E+02  0.42005991642E+02  0.51100000000E-03 0.  1.
        -12    1    3    3    0    0 -0.23274521859E+01  0.19442714700E+01  0.42600918735E+01  0.52293028214E+01  0.00000000000E+00 0.  1.
</event>
<event>
 7    1  0.5748623E-013  0.5052886E+02  0.7816164E-02  0.1300439E+00
        -11   -1    0    0    0    0  0.00000000000E+00  0.00000000000E+00  0.45593999997E+02  0.45594000000E+02  0.51100000000E-03 0.  1.
         11   -1    0    0    0    0 -0.00000000000E+00 -0.00000000000E+00 -0.45593999997E+02  0.45594000000E+02  0.51100000000E-03 0. -1.
    9900012    2    1    2    0    0 -0.17233412417E+01  0.31685872365E+02  0.25420490264E+02  0.50528859111E+02  0.29999997754E+02 0.  0.
         12    1    1    2    0    0  0.17233412417E+01 -0.31685872365E+02 -0.25420490264E+02  0.40659140889E+02  0.00000000000E+00 0. -1.
         11    1    3    3    0    0 -0.12898909179E+02  0.11485260137E+02  0.64262998689E+01  0.18427978421E+02  0.51100000000E-03 0. -1.
        -11    1    3    3    0    0  0.11094304636E+02  0.12802307841E+02  0.77222386278E+01  0.18617616687E+02  0.51100000000E-03 0.  1.
         12    1    3    3    0    0  0.81263301565E-01  0.73983043871E+01  0.11271951767E+02  0.13483264003E+02  0.00000000000E+00 0. -1.
</event>
<event>
 7    1  0.5748623E-013  0.5052886E+02  0.7816164E-02  0.1300439E+00
        -11   -1    0    0    0    0  0.00000000000E+00  0.00000000000E+00  0.45593999997E+02  0.45594000000E+02  0.51100000000E-03 0.  1.
         11   -1    0    0    0    0 -0.00000000000E+00 -0.00000000000E+00 -0.45593999997E+02  0.45594000000E+02  0.51100000000E-03 0. -1.
    9900012    2    1    2    0    0  0.81879639474E+01 -0.21948179364E+02  0.33232515533E+02  0.50528863024E+02  0.30000009648E+02 0.  0.
         12    1    1    2    0    0 -0.81879639474E+01  0.21948179364E+02 -0.33232515533E+02  0.40659136976E+02  0.00000000000E+00 0. -1.
         11    1    3    3    0    0  0.11494571181E+02 -0.20084731708E+02  0.15376955922E+02  0.27784391088E+02  0.51100000000E-03 0. -1.
        -11    1    3    3    0    0 -0.70476063593E+01 -0.46553365712E+01  0.71530817246E+01  0.11068310278E+02  0.51100000000E-03 0.  1.
         12    1    3    3    0    0  0.37409991257E+01  0.27918889157E+01  0.10702477886E+02  0.11676161659E+02  0.00000000000E+00 0. -1.
</event>
<event>
 7    1  0.5748623E-013  0.5052885E+02  0.7816164E-02  0.1300439E+00
        -11   -1    0    0    0    0  0.00000000000E+00  0.00000000000E+00  0.45593999997E+02  0.45594000000E+02  0.51100000000E-03 0. -1.
         11   -1    0    0    0    0 -0.00000000000E+00 -0.00000000000E+00 -0.45593999997E+02  0.45594000000E+02  0.51100000000E-03 0.  1.
    9900012    2    1    2    0    0 -0.90593256247E+00  0.38306384591E+02  0.13600234599E+02  0.50528853484E+02  0.29999980651E+02 0.  0.
         12    1    1    2    0    0  0.90593256247E+00 -0.38306384591E+02 -0.13600234599E+02  0.40659146516E+02  0.00000000000E+00 0. -1.
         11    1    3    3    0    0 -0.71821162056E+00  0.99225179587E+01  0.66386342369E+01  0.11960085926E+02  0.51100000000E-03 0. -1.
        -11    1    3    3    0    0  0.11837668923E+02  0.18414876281E+02  0.68840145208E+01  0.22948370969E+02  0.51100000000E-03 0.  1.
        -12    1    3    3    0    0 -0.12025389865E+02  0.99689903516E+01  0.77585841166E-01  0.15620396589E+02  0.00000000000E+00 0.  1.
</event>
<event>
 7    1  0.5748623E-013  0.5052885E+02  0.7816164E-02  0.1300439E+00
        -11   -1    0    0    0    0  0.00000000000E+00  0.00000000000E+00  0.45593999997E+02  0.45594000000E+02  0.51100000000E-03 0.  1.
         11   -1    0    0    0    0 -0.00000000000E+00 -0.00000000000E+00 -0.45593999997E+02  0.45594000000E+02  0.51100000000E-03 0. -1.
    9900012    2    1    2    0    0  0.37632578955E+02  0.11139680243E+02  0.10623684560E+02  0.50528854062E+02  0.29999982408E+02 0.  0.
         12    1    1    2    0    0 -0.37632578955E+02 -0.11139680243E+02 -0.10623684560E+02  0.40659145938E+02  0.00000000000E+00 0. -1.
         11    1    3    3    0    0  0.14904102030E+02  0.13137174257E+02 -0.65898270557E+01  0.20931875828E+02  0.51100000000E-03 0. -1.
        -11    1    3    3    0    0  0.14091490099E+02  0.21177907100E+01  0.81373818407E+01  0.16409512917E+02  0.51100000000E-03 0.  1.
         12    1    3    3    0    0  0.86369868268E+01 -0.41152847242E+01  0.90761297751E+01  0.13187465318E+02  0.00000000000E+00 0. -1.
</event>
<event>
 7    1  0.5748623E-013  0.5052886E+02  0.7816164E-02  0.1300439E+00
        -11   -1    0    0    0    0  0.00000000000E+00  0.00000000000E+00  0.45593999997E+02  0.45594000000E+02  0.51100000000E-03 0.  1.
         11   -1    0    0    0    0 -0.00000000000E+00 -0.00000000000E+00 -0.45593999997E+02  0.45594000000E+02  0.51100000000E-03 0. -1.
    9900012    2    1    2    0    0 -0.95555787837E+01 -0.36136923025E+02 -0.15999355869E+02  0.50528859824E+02  0.29999999922E+02 0.  0.
         12    1    1    2    0    0  0.95555787837E+01  0.36136923025E+02  0.15999355869E+02  0.40659140176E+02  0.00000000000E+00 0. -1.
         11    1    3    3    0    0 -0.35953346843E+01 -0.79564957278E+01 -0.84483448567E+01  0.12149353351E+02  0.51100000000E-03 0. -1.
        -11    1    3    3    0    0 -0.36010918741E+01 -0.27868904241E+02  0.23479686751E+01  0.28198522008E+02  0.51100000000E-03 0.  1.
        -12    1    3    3    0    0 -0.23591522253E+01 -0.31152305603E+00 -0.98989796870E+01  0.10180984465E+02  0.00000000000E+00 0.  1.
</event>
<event>
 7    1  0.5748623E-013  0.5052887E+02  0.7816164E-02  0.1300439E+00
        -11   -1    0    0    0    0  0.00000000000E+00  0.00000000000E+00  0.45593999997E+02  0.45594000000E+02  0.51100000000E-03 0. -1.
         11   -1    0    0    0    0 -0.00000000000E+00 -0.00000000000E+00 -0.45593999997E+02  0.45594000000E+02  0.51100000000E-03 0.  1.
    9900012    2    1    2    0    0 -0.30969853614E+02 -0.13078476591E+02  0.22868893541E+02  0.50528872186E+02  0.30000037496E+02 0.  0.
         12    1    1    2    0    0  0.30969853614E+02  0.13078476591E+02 -0.22868893541E+02  0.40659127814E+02  0.00000000000E+00 0. -1.
         11    1    3    3    0    0 -0.40691112496E+01  0.73265972404E+01  0.70190154292E+01  0.10931755181E+02  0.51100000000E-03 0. -1.
        -11    1    3    3    0    0 -0.53763862070E+01 -0.12026653334E+02  0.52050114296E+01  0.14164676605E+02  0.51100000000E-03 0.  1.
         12    1    3    3    0    0 -0.21524356158E+02 -0.83784204972E+01  0.10644866682E+02  0.25432440400E+02  0.00000000000E+00 0. -1.
</event>
<event>
 7    1  0.5748623E-013  0.5052887E+02  0.7816164E-02  0.1300439E+00
        -11   -1    0    0    0    0  0.00000000000E+00  0.00000000000E+00  0.45593999997E+02  0.45594000000E+02  0.51100000000E-03 0. -1.
         11   -1    0    0    0    0 -0.00000000000E+00 -0.00000000000E+00 -0.45593999997E+02  0.45594000000E+02  0.51100000000E-03 0.  1.
    9900012    2    1    2    0    0  0.35455396707E+02  0.19058549142E+02 -0.57316176920E+01  0.50528869508E+02  0.30000029355E+02 0.  0.
         12    1    1    2    0    0 -0.35455396707E+02 -0.19058549142E+02  0.57316176920E+01  0.40659130492E+02  0.00000000000E+00 0. -1.
         11    1    3    3    0    0  0.12262831941E+01 -0.42174436782E+01 -0.25674626106E+01  0.50874813187E+01  0.51100000000E-03 0. -1.
        -11    1    3    3    0    0  0.13676658291E+02  0.17722976129E+02  0.44628487574E+01  0.22826999018E+02  0.51100000000E-03 0.  1.
        -12    1    3    3    0    0  0.20552455222E+02  0.55530166912E+01 -0.76270038388E+01  0.22614389171E+02  0.00000000000E+00 0.  1.
</event>
<event>
 7    1  0.5748623E-013  0.5052886E+02  0.7816164E-02  0.1300439E+00
        -11   -1    0    0    0    0  0.00000000000E+00  0.00000000000E+00  0.45593999997E+02  0.45594000000E+02  0.51100000000E-03 0.  1.
         11   -1    0    0    0    0 -0.00000000000E+00 -0.00000000000E+00 -0.45593999997E+02  0.45594000000E+02  0.51100000000E-03 0. -1.
    9900012    2    1    2    0    0  0.20817863296E+02  0.91814216560E+01  0.33696938292E+02  0.50528860977E+02  0.30000003424E+02 0.  0.
         12    1    1    2    0    0 -0.20817863296E+02 -0.91814216560E+01 -0.33696938292E+02  0.40659139023E+02  0.00000000000E+00 0. -1.
         11    1    3    3    0    0  0.10654916775E+02 -0.82027757479E+01  0.11834472509E+02  0.17912775365E+02  0.51100000000E-03 0. -1.
        -11    1    3    3    0    0  0.10394409967E+02  0.11043881950E+02  0.75096671120E+01  0.16923539449E+02  0.51100000000E-03 0.  1.
         12    1    3    3    0    0 -0.23146344482E+00  0.63403154540E+01  0.14352798671E+02  0.15692546163E+02  0.00000000000E+00 0. -1.
</event>
<event>
 7    1  0.5748623E-013  0.5052886E+02  0.7816164E-02  0.1300439E+00
        -11   -1    0    0    0    0  0.00000000000E+00  0.00000000000E+00  0.45593999997E+02  0.45594000000E+02  0.51100000000E-03 0. -1.
         11   -1    0    0    0    0 -0.00000000000E+00 -0.00000000000E+00 -0.45593999997E+02  0.45594000000E+02  0.51100000000E-03 0.  1.
    9900012    2    1    2    0    0 -0.12127681811E+02 -0.21305669723E+02 -0.32436915353E+02  0.50528859501E+02  0.29999998940E+02 0.  0.
         12    1    1    2    0    0  0.12127681811E+02  0.21305669723E+02  0.32436915353E+02  0.40659140499E+02  0.00000000000E+00 0. -1.
         11    1    3    3    0    0 -0.68034525242E+01 -0.57160525461E+01  0.69551531196E+00  0.89131343964E+01  0.51100000000E-03 0. -1.
        -11    1    3    3    0    0 -0.87455626672E+01 -0.13395385372E+02 -0.33894768804E+02  0.37480349094E+02  0.51100000000E-03 0.  1.
        -12    1    3    3    0    0  0.34213333804E+01 -0.21942318050E+01  0.76233813909E+00  0.41353760110E+01  0.00000000000E+00 0.  1.
</event>
<event>
 7    1  0.5748623E-013  0.5052885E+02  0.7816164E-02  0.1300439E+00
        -11   -1    0    0    0    0  0.00000000000E+00  0.00000000000E+00  0.45593999997E+02  0.45594000000E+02  0.51100000000E-03 0.  1.
         11   -1    0    0    0    0 -0.00000000000E+00 -0.00000000000E+00 -0.45593999997E+02  0.45594000000E+02  0.51100000000E-03 0. -1.
    9900012    2    1    2    0    0  0.27898660104E+02  0.15391550979E+02  0.25257309775E+02  0.50528846366E+02  0.29999959014E+02 0.  0.
         12    1    1    2    0    0 -0.27898660104E+02 -0.15391550979E+02 -0.25257309775E+02  0.40659153634E+02  0.00000000000E+00 0. -1.
         11    1    3    3    0    0  0.54677471689E+01  0.49879031878E+01 -0.52730220301E+01  0.90873647944E+01  0.51100000000E-03 0. -1.
        -11    1    3    3    0    0  0.20446153086E+02  0.53812199987E+01  0.28885258565E+02  0.35796101287E+02  0.51100000000E-03 0.  1.
         12    1    3    3    0    0  0.19847598488E+01  0.50224277930E+01  0.16450732402E+01  0.56453802846E+01  0.00000000000E+00 0. -1.
</event>
<event>
 7    1  0.5748623E-013  0.5052874E+02  0.7816164E-02  0.1300439E+00
        -11   -1    0    0    0    0  0.00000000000E+00  0.00000000000E+00  0.45593999997E+02  0.45594000000E+02  0.51100000000E-03 0. -1.
         11   -1    0    0    0    0 -0.00000000000E+00 -0.00000000000E+00 -0.45593999997E+02  0.45594000000E+02  0.51100000000E-03 0.  1.
    9900012    2    1    2    0    0 -0.11692469854E+01 -0.21828798305E+02 -0.34282826894E+02  0.50528735450E+02  0.29999621871E+02 0.  0.
         12    1    1    2    0    0  0.11692469854E+01  0.21828798305E+02  0.34282826894E+02  0.40659264550E+02  0.00000000000E+00 0. -1.
         11    1    3    3    0    0  0.21586958152E+01  0.19908967156E+01  0.23997651489E+01  0.37924280331E+01  0.51100000000E-03 0. -1.
        -11    1    3    3    0    0 -0.85977612409E+01 -0.14319925188E+02 -0.14847051252E+02  0.22347632691E+02  0.51100000000E-03 0.  1.
        -12    1    3    3    0    0  0.52698184403E+01 -0.94997698328E+01 -0.21835540791E+02  0.24388674726E+02  0.00000000000E+00 0.  1.
</event>
<event>
 7    1  0.5748623E-013  0.5052887E+02  0.7816164E-02  0.1300439E+00
        -11   -1    0    0    0    0  0.00000000000E+00  0.00000000000E+00  0.45593999997E+02  0.45594000000E+02  0.51100000000E-03 0. -1.
         11   -1    0    0    0    0 -0.00000000000E+00 -0.00000000000E+00 -0.45593999997E+02  0.45594000000E+02  0.51100000000E-03 0.  1.
    9900012    2    1    2    0    0  0.75804820550E+01 -0.39223360028E+02  0.75650087744E+01  0.50528867719E+02  0.30000023919E+02 0.  0.
         12    1    1    2    0    0 -0.75804820550E+01  0.39223360028E+02 -0.75650087744E+01  0.40659132281E+02  0.00000000000E+00 0. -1.
         11    1    3    3    0    0  0.15986419767E+01 -0.30563952506E+02  0.15493623027E+02  0.34303982330E+02  0.51100000000E-03 0. -1.
        -11    1    3    3    0    0  0.12271655147E+01 -0.82858508557E+01 -0.78125688420E+01  0.11454147361E+02  0.51100000000E-03 0.  1.
        -12    1    3    3    0    0  0.47546745637E+01 -0.37355666682E+00 -0.11604541065E+00  0.47707380275E+01  0.00000000000E+00 0.  1.
</event>
<event>
 7    1  0.5748623E-013  0.5052887E+02  0.7816164E-02  0.1300439E+00
        -11   -1    0    0    0    0  0.00000000000E+00  0.00000000000E+00  0.45593999997E+02  0.45594000000E+02  0.51100000000E-03 0. -1.
         11   -1    0    0    0    0 -0.00000000000E+00 -0.00000000000E+00 -0.45593999997E+02  0.45594000000E+02  0.51100000000E-03 0.  1.
    9900012    2    1    2    0    0 -0.24413449208E+01  0.25800690397E+02 -0.31329361729E+02  0.50528871919E+02  0.30000036684E+02 0.  0.
         12    1    1    2    0    0  0.24413449208E+01 -0.25800690397E+02  0.31329361729E+02  0.40659128081E+02  0.00000000000E+00 0. -1.
         11    1    3    3    0    0  0.63807962018E+01 -0.14315057131E+00 -0.10530303830E+01  0.64686880821E+01  0.51100000000E-03 0. -1.
        -11    1    3    3    0    0 -0.96900549779E+01  0.12009892220E+02 -0.24492589686E+02  0.28948603185E+02  0.51100000000E-03 0.  1.
         12    1    3    3    0    0  0.86791385523E+00  0.13933948748E+02 -0.57837416605E+01  0.15111580651E+02  0.00000000000E+00 0. -1.
</event>
<event>
 7    1  0.5748623E-013  0.5052886E+02  0.7816164E-02  0.1300439E+00
        -11   -1    0    0    0    0  0.00000000000E+00  0.00000000000E+00  0.45593999997E+02  0.45594000000E+02  0.51100000000E-03 0. -1.
         11   -1    0    0    0    0 -0.00000000000E+00 -0.00000000000E+00 -0.45593999997E+02  0.45594000000E+02  0.51100000000E-03 0.  1.
    9900012    2    1    2    0    0  0.27582916016E+02  0.29395894945E+02 -0.53131570527E+01  0.50528861624E+02  0.30000005393E+02 0.  0.
         12    1    1    2    0    0 -0.27582916016E+02 -0.29395894945E+02  0.53131570527E+01  0.40659138376E+02  0.00000000000E+00 0. -1.
         11    1    3    3    0    0 -0.37456022765E+01 -0.20965645671E+01 -0.27080069030E+00  0.43009827566E+01  0.51100000000E-03 0. -1.
        -11    1    3    3    0    0  0.24983489003E+02  0.18764309027E+02 -0.33533749358E+00  0.31247183353E+02  0.51100000000E-03 0.  1.
        -12    1    3    3    0    0  0.63450292898E+01  0.12728150485E+02 -0.47070188689E+01  0.14980695514E+02  0.00000000000E+00 0.  1.
</event>
<event>
 7    1  0.5748623E-013  0.5052886E+02  0.7816164E-02  0.1300439E+00
        -11   -1    0    0    0    0  0.00000000000E+00  0.00000000000E+00  0.45593999997E+02  0.45594000000E+02  0.51100000000E-03 0.  1.
         11   -1    0    0    0    0 -0.00000000000E+00 -0.00000000000E+00 -0.45593999997E+02  0.45594000000E+02  0.51100000000E-03 0. -1.
    9900012    2    1    2    0    0  0.33243809508E+02 -0.14620095549E+02  0.18282982703E+02  0.50528861778E+02  0.30000005861E+02 0.  0.
         12    1    1    2    0    0 -0.33243809508E+02  0.14620095549E+02 -0.18282982703E+02  0.40659138222E+02  0.00000000000E+00 0. -1.
         11    1    3    3    0    0  0.90940079604E+01  0.59779182408E+01  0.14721619492E+02  0.18307445698E+02  0.51100000000E-03 0. -1.
        -11    1    3    3    0    0  0.15415270929E+02 -0.12806066618E+02  0.42868628955E+01  0.20493977501E+02  0.51100000000E-03 0.  1.
         12    1    3    3    0    0  0.87345306179E+01 -0.77919471712E+01 -0.72549968426E+00  0.11727438579E+02  0.00000000000E+00 0. -1.
</event>
<event>
 7    1  0.5748623E-013  0.5052886E+02  0.7816164E-02  0.1300439E+00
        -11   -1    0    0    0    0  0.00000000000E+00  0.00000000000E+00  0.45593999997E+02  0.45594000000E+02  0.51100000000E-03 0.  1.
         11   -1    0    0    0    0 -0.00000000000E+00 -0.00000000000E+00 -0.45593999997E+02  0.45594000000E+02  0.51100000000E-03 0. -1.
    9900012    2    1    2    0    0  0.35604741119E+02 -0.12686824802E+02  0.14983749340E+02  0.50528857633E+02  0.29999993261E+02 0.  0.
         12    1    1    2    0    0 -0.35604741119E+02  0.12686824802E+02 -0.14983749340E+02  0.40659142367E+02  0.00000000000E+00 0. -1.
         11    1    3    3    0    0  0.25662269847E+02 -0.43467822301E+00  0.14435673836E+02  0.29447066377E+02  0.51100000000E-03 0.  1.
        -11    1    3    3    0    0 -0.30151861764E+01 -0.23601687453E+01 -0.23949465792E+01  0.45163606547E+01  0.51100000000E-03 0. -1.
        -12    1    3    3    0    0  0.12957657449E+02 -0.98919778336E+01  0.29430220831E+01  0.16565430601E+02  0.00000000000E+00 0.  1.
</event>
<event>
 7    1  0.5748623E-013  0.5052888E+02  0.7816164E-02  0.1300439E+00
        -11   -1    0    0    0    0  0.00000000000E+00  0.00000000000E+00  0.45593999997E+02  0.45594000000E+02  0.51100000000E-03 0. -1.
         11   -1    0    0    0    0 -0.00000000000E+00 -0.00000000000E+00 -0.45593999997E+02  0.45594000000E+02  0.51100000000E-03 0.  1.
    9900012    2    1    2    0    0 -0.36617106667E+02  0.76617147350E+00 -0.17656856393E+02  0.50528879288E+02  0.30000059082E+02 0.  0.
         12    1    1    2    0    0  0.36617106667E+02 -0.76617147350E+00  0.17656856393E+02  0.40659120712E+02  0.00000000000E+00 0. -1.
         11    1    3    3    0    0 -0.69029259308E+01  0.89625162317E+01 -0.78192382664E-01  0.11312965921E+02  0.51100000000E-03 0. -1.
        -11    1    3    3    0    0 -0.29759255090E+02 -0.33327740752E+01 -0.16654739202E+02  0.34265157007E+02  0.51100000000E-03 0.  1.
        -12    1    3    3    0    0  0.45074353559E-01 -0.48635706830E+01 -0.92392480857E+00  0.49507563602E+01  0.00000000000E+00 0.  1.
</event>
<event>
 7    1  0.5748623E-013  0.5052886E+02  0.7816164E-02  0.1300439E+00
        -11   -1    0    0    0    0  0.00000000000E+00  0.00000000000E+00  0.45593999997E+02  0.45594000000E+02  0.51100000000E-03 0. -1.
         11   -1    0    0    0    0 -0.00000000000E+00 -0.00000000000E+00 -0.45593999997E+02  0.45594000000E+02  0.51100000000E-03 0.  1.
    9900012    2    1    2    0    0 -0.94001103253E+01 -0.36180540133E+02  0.15992882497E+02  0.50528857743E+02  0.29999993597E+02 0.  0.
         12    1    1    2    0    0  0.94001103253E+01  0.36180540133E+02 -0.15992882497E+02  0.40659142257E+02  0.00000000000E+00 0. -1.
         11    1    3    3    0    0 -0.10611458109E+01 -0.97443278590E-01  0.12340737120E+02  0.12386658894E+02  0.51100000000E-03 0. -1.
        -11    1    3    3    0    0 -0.14690558520E+01 -0.23784657831E+02  0.32381606110E+01  0.24048986624E+02  0.51100000000E-03 0.  1.
        -12    1    3    3    0    0 -0.68699086624E+01 -0.12298439024E+02  0.41398476605E+00  0.14093212226E+02  0.00000000000E+00 0.  1.
</event>
<event>
 7    1  0.5748623E-013  0.5052886E+02  0.7816164E-02  0.1300439E+00
        -11   -1    0    0    0    0  0.00000000000E+00  0.00000000000E+00  0.45593999997E+02  0.45594000000E+02  0.51100000000E-03 0. -1.
         11   -1    0    0    0    0 -0.00000000000E+00 -0.00000000000E+00 -0.45593999997E+02  0.45594000000E+02  0.51100000000E-03 0.  1.
    9900012    2    1    2    0    0 -0.45316197468E+01  0.25728805088E+02 -0.31155396291E+02  0.50528859493E+02  0.29999998914E+02 0.  0.
         12    1    1    2    0    0  0.45316197468E+01 -0.25728805088E+02  0.31155396291E+02  0.40659140507E+02  0.00000000000E+00 0. -1.
         11    1    3    3    0    0  0.23483242533E+01 -0.53704871023E+01 -0.15212660783E+01  0.60556592752E+01  0.51100000000E-03 0. -1.
        -11    1    3    3    0    0  0.21034882184E+01  0.56209713444E+01 -0.70706045899E+01  0.92743426218E+01  0.51100000000E-03 0.  1.
         12    1    3    3    0    0 -0.89834322185E+01  0.25478320845E+02 -0.22563525622E+02  0.35198857596E+02  0.00000000000E+00 0. -1.
</event>
<event>
 7    1  0.5748623E-013  0.5052886E+02  0.7816164E-02  0.1300439E+00
        -11   -1    0    0    0    0  0.00000000000E+00  0.00000000000E+00  0.45593999997E+02  0.45594000000E+02  0.51100000000E-03 0.  1.
         11   -1    0    0    0    0 -0.00000000000E+00 -0.00000000000E+00 -0.45593999997E+02  0.45594000000E+02  0.51100000000E-03 0. -1.
    9900012    2    1    2    0    0  0.16412795163E+02 -0.79788254174E+01  0.36333517642E+02  0.50528855833E+02  0.29999987790E+02 0.  0.
         12    1    1    2    0    0 -0.16412795163E+02  0.79788254174E+01 -0.36333517642E+02  0.40659144167E+02  0.00000000000E+00 0. -1.
         11    1    3    3    0    0 -0.59005013587E+01 -0.10314603838E+02  0.16326261124E+02  0.20192913885E+02  0.51100000000E-03 0. -1.
        -11    1    3    3    0    0  0.10882315120E+02  0.66585740354E+00  0.12361971426E+02  0.16482914980E+02  0.51100000000E-03 0.  1.
         12    1    3    3    0    0  0.11430981402E+02  0.16699210174E+01  0.76452850921E+01  0.13853026967E+02  0.00000000000E+00 0. -1.
</event>
<event>
 7    1  0.5748623E-013  0.5052886E+02  0.7816164E-02  0.1300439E+00
        -11   -1    0    0    0    0  0.00000000000E+00  0.00000000000E+00  0.45593999997E+02  0.45594000000E+02  0.51100000000E-03 0.  1.
         11   -1    0    0    0    0 -0.00000000000E+00 -0.00000000000E+00 -0.45593999997E+02  0.45594000000E+02  0.51100000000E-03 0. -1.
    9900012    2    1    2    0    0 -0.48291286876E+01  0.35179280556E+02  0.19805649346E+02  0.50528855760E+02  0.29999987569E+02 0.  0.
         12    1    1    2    0    0  0.48291286876E+01 -0.35179280556E+02 -0.19805649346E+02  0.40659144240E+02  0.00000000000E+00 0. -1.
         11    1    3    3    0    0  0.53559739431E-01  0.19912638393E+02 -0.42140056823E+01  0.20353719085E+02  0.51100000000E-03 0. -1.
        -11    1    3    3    0    0  0.82884018608E-01  0.98862322554E+01  0.18605537164E+02  0.21069182979E+02  0.51100000000E-03 0.  1.
         12    1    3    3    0    0 -0.49655724456E+01  0.53804099070E+01  0.54141178642E+01  0.91059536968E+01  0.00000000000E+00 0. -1.
</event>
<event>
 7    1  0.5748623E-013  0.5052874E+02  0.7816164E-02  0.1300439E+00
        -11   -1    0    0    0    0  0.00000000000E+00  0.00000000000E+00  0.45593999997E+02  0.45594000000E+02  0.51100000000E-03 0.  1.
         11   -1    0    0    0    0 -0.00000000000E+00 -0.00000000000E+00 -0.45593999997E+02  0.45594000000E+02  0.51100000000E-03 0. -1.
    9900012    2    1    2    0    0 -0.14859268967E+01  0.25897497595E+02  0.31309532500E+02  0.50528742926E+02  0.29999644597E+02 0.  0.
         12    1    1    2    0    0  0.14859268967E+01 -0.25897497595E+02 -0.31309532500E+02  0.40659257074E+02  0.00000000000E+00 0. -1.
         11    1    3    3    0    0  0.43301908336E+00  0.20515445716E+02  0.11895765036E+02  0.23718774093E+02  0.51100000000E-03 0. -1.
        -11    1    3    3    0    0 -0.20069334039E+01  0.66994409612E+01  0.22441977635E+02  0.23506438507E+02  0.51100000000E-03 0.  1.
        -12    1    3    3    0    0  0.87987423832E-01 -0.13173890816E+01 -0.30282101704E+01  0.33035303261E+01  0.00000000000E+00 0.  1.
</event>
<event>
 7    1  0.5748623E-013  0.5052880E+02  0.7816164E-02  0.1300439E+00
        -11   -1    0    0    0    0  0.00000000000E+00  0.00000000000E+00  0.45593999997E+02  0.45594000000E+02  0.51100000000E-03 0. -1.
         11   -1    0    0    0    0 -0.00000000000E+00 -0.00000000000E+00 -0.45593999997E+02  0.45594000000E+02  0.51100000000E-03 0.  1.
    9900012    2    1    2    0    0  0.43020604071E+01  0.40410393500E+02 -0.12896890898E+01  0.50528795328E+02  0.29999803879E+02 0.  0.
         12    1    1    2    0    0 -0.43020604071E+01 -0.40410393500E+02  0.12896890898E+01  0.40659204672E+02  0.00000000000E+00 0. -1.
         11    1    3    3    0    0  0.86171743205E+00 -0.38080334384E+01 -0.83847086567E+00  0.39933331008E+01  0.51100000000E-03 0. -1.
        -11    1    3    3    0    0  0.13453102100E+01  0.31701136877E+02 -0.66377087724E+01  0.32416525367E+02  0.51100000000E-03 0.  1.
        -12    1    3    3    0    0  0.20950327651E+01  0.12517290062E+02  0.61864905482E+01  0.14118936861E+02  0.00000000000E+00 0.  1.
</event>
<event>
 7    1  0.5748623E-013  0.5052886E+02  0.7816164E-02  0.1300439E+00
        -11   -1    0    0    0    0  0.00000000000E+00  0.00000000000E+00  0.45593999997E+02  0.45594000000E+02  0.51100000000E-03 0. -1.
         11   -1    0    0    0    0 -0.00000000000E+00 -0.00000000000E+00 -0.45593999997E+02  0.45594000000E+02  0.51100000000E-03 0.  1.
    9900012    2    1    2    0    0  0.25021801696E+02 -0.46862308975E+01 -0.31703537983E+02  0.50528860305E+02  0.30000001382E+02 0.  0.
         12    1    1    2    0    0 -0.25021801696E+02  0.46862308975E+01  0.31703537983E+02  0.40659139695E+02  0.00000000000E+00 0. -1.
         11    1    3    3    0    0  0.68754009881E+01 -0.52146468972E+01 -0.62385663195E+01  0.10648163738E+02  0.51100000000E-03 0. -1.
        -11    1    3    3    0    0  0.10889034682E+02  0.12450258927E+02 -0.16032295716E+02  0.23035071735E+02  0.51100000000E-03 0.  1.
        -12    1    3    3    0    0  0.72573660258E+01 -0.11921842928E+02 -0.94326759473E+01  0.16845624831E+02  0.00000000000E+00 0.  1.
</event>
<event>
 7    1  0.5748623E-013  0.5052886E+02  0.7816164E-02  0.1300439E+00
        -11   -1    0    0    0    0  0.00000000000E+00  0.00000000000E+00  0.45593999997E+02  0.45594000000E+02  0.51100000000E-03 0.  1.
         11   -1    0    0    0    0 -0.00000000000E+00 -0.00000000000E+00 -0.45593999997E+02  0.45594000000E+02  0.51100000000E-03 0. -1.
    9900012    2    1    2    0    0 -0.26605998663E+02 -0.22971783375E+02  0.20434861073E+02  0.50528861502E+02  0.30000005022E+02 0.  0.
         12    1    1    2    0    0  0.26605998663E+02  0.22971783375E+02 -0.20434861073E+02  0.40659138498E+02  0.00000000000E+00 0. -1.
         11    1    3    3    0    0 -0.21172439581E+02 -0.18802982104E+02  0.82703082327E+01  0.29499531053E+02  0.51100000000E-03 0. -1.
        -11    1    3    3    0    0  0.24276747949E+01  0.12120747881E+01  0.11119461824E+02  0.11445748631E+02  0.51100000000E-03 0.  1.
        -12    1    3    3    0    0 -0.78612338768E+01 -0.53808760596E+01  0.10450910164E+01  0.95835818182E+01  0.00000000000E+00 0.  1.
</event>
<event>
 7    1  0.5748623E-013  0.5052886E+02  0.7816164E-02  0.1300439E+00
        -11   -1    0    0    0    0  0.00000000000E+00  0.00000000000E+00  0.45593999997E+02  0.45594000000E+02  0.51100000000E-03 0.  1.
         11   -1    0    0    0    0 -0.00000000000E+00 -0.00000000000E+00 -0.45593999997E+02  0.45594000000E+02  0.51100000000E-03 0. -1.
    9900012    2    1    2    0    0 -0.34831549572E+02 -0.18381244948E+02  0.10102395102E+02  0.50528863288E+02  0.30000010449E+02 0.  0.
         12    1    1    2    0    0  0.34831549572E+02  0.18381244948E+02 -0.10102395102E+02  0.40659136712E+02  0.00000000000E+00 0. -1.
         11    1    3    3    0    0  0.37203800689E+01  0.25087901790E+01  0.79018592612E+00  0.45562759001E+01  0.51100000000E-03 0. -1.
        -11    1    3    3    0    0 -0.33031264146E+02 -0.21431417880E+02  0.71484790065E+01  0.40018381225E+02  0.51100000000E-03 0.  1.
         12    1    3    3    0    0 -0.55206654942E+01  0.54138275341E+00  0.21637301692E+01  0.59542061628E+01  0.00000000000E+00 0. -1.
</event>
<event>
 7    1  0.5748623E-013  0.5052886E+02  0.7816164E-02  0.1300439E+00
        -11   -1    0    0    0    0  0.00000000000E+00  0.00000000000E+00  0.45593999997E+02  0.45594000000E+02  0.51100000000E-03 0. -1.
         11   -1    0    0    0    0 -0.00000000000E+00 -0.00000000000E+00 -0.45593999997E+02  0.45594000000E+02  0.51100000000E-03 0.  1.
    9900012    2    1    2    0    0 -0.21195279158E+02  0.26505523301E+02 -0.22391592604E+02  0.50528855353E+02  0.29999986332E+02 0.  0.
         12    1    1    2    0    0  0.21195279158E+02 -0.26505523301E+02  0.22391592604E+02  0.40659144647E+02  0.00000000000E+00 0. -1.
         11    1    3    3    0    0  0.46879504202E+01  0.87324406939E+01 -0.81976208287E+01  0.12862091087E+02  0.51100000000E-03 0. -1.
        -11    1    3    3    0    0 -0.17735282497E+02  0.15893456963E+02 -0.34671990788E+01  0.24065819936E+02  0.51100000000E-03 0.  1.
         12    1    3    3    0    0 -0.81479470808E+01  0.18796256449E+01 -0.10726772697E+02  0.13600944331E+02  0.00000000000E+00 0. -1.
</event>
<event>
 7    1  0.5748623E-013  0.5052888E+02  0.7816164E-02  0.1300439E+00
        -11   -1    0    0    0    0  0.00000000000E+00  0.00000000000E+00  0.45593999997E+02  0.45594000000E+02  0.51100000000E-03 0. -1.
         11   -1    0    0    0    0 -0.00000000000E+00 -0.00000000000E+00 -0.45593999997E+02  0.45594000000E+02  0.51100000000E-03 0.  1.
    9900012    2    1    2    0    0  0.29591816812E+02  0.11546847818E+02  0.25380281295E+02  0.50528880538E+02  0.30000062885E+02 0.  0.
         12    1    1    2    0    0 -0.29591816812E+02 -0.11546847818E+02 -0.25380281295E+02  0.40659119462E+02  0.00000000000E+00 0. -1.
         11    1    3    3    0    0  0.23408393711E+02  0.14629182393E+02  0.16676164370E+02  0.32249966387E+02  0.51100000000E-03 0. -1.
        -11    1    3    3    0    0 -0.60620500218E-02 -0.45479200297E+01 -0.26506480436E+01  0.52639860047E+01  0.51100000000E-03 0.  1.
         12    1    3    3    0    0  0.61894851509E+01  0.14655854546E+01  0.11354764969E+02  0.13014928147E+02  0.00000000000E+00 0. -1.
</event>
<event>
 7    1  0.5748623E-013  0.5052886E+02  0.7816164E-02  0.1300439E+00
        -11   -1    0    0    0    0  0.00000000000E+00  0.00000000000E+00  0.45593999997E+02  0.45594000000E+02  0.51100000000E-03 0.  1.
         11   -1    0    0    0    0 -0.00000000000E+00 -0.00000000000E+00 -0.45593999997E+02  0.45594000000E+02  0.51100000000E-03 0. -1.
    9900012    2    1    2    0    0  0.13276110216E+02  0.10206806421E+02  0.37050391812E+02  0.50528861627E+02  0.30000005403E+02 0.  0.
         12    1    1    2    0    0 -0.13276110216E+02 -0.10206806421E+02 -0.37050391812E+02  0.40659138373E+02  0.00000000000E+00 0. -1.
         11    1    3    3    0    0  0.74949930701E+01 -0.80230954674E+01  0.25600322421E+02  0.27855367352E+02  0.51100000000E-03 0. -1.
        -11    1    3    3    0    0  0.23235771518E+01  0.12148325189E+02  0.57039259195E+01  0.13620410671E+02  0.51100000000E-03 0.  1.
         12    1    3    3    0    0  0.34575399943E+01  0.60815766987E+01  0.57461434712E+01  0.90530836043E+01  0.00000000000E+00 0. -1.
</event>
<event>
 7    1  0.5748623E-013  0.5052886E+02  0.7816164E-02  0.1300439E+00
        -11   -1    0    0    0    0  0.00000000000E+00  0.00000000000E+00  0.45593999997E+02  0.45594000000E+02  0.51100000000E-03 0.  1.
         11   -1    0    0    0    0 -0.00000000000E+00 -0.00000000000E+00 -0.45593999997E+02  0.45594000000E+02  0.51100000000E-03 0. -1.
    9900012    2    1    2    0    0  0.32281233658E+00 -0.80328505478E+01  0.39856423508E+02  0.50528863382E+02  0.30000010734E+02 0.  0.
         12    1    1    2    0    0 -0.32281233658E+00  0.80328505478E+01 -0.39856423508E+02  0.40659136618E+02  0.00000000000E+00 0. -1.
         11    1    3    3    0    0 -0.78527478337E+01 -0.10408625747E+02  0.67086140077E+01  0.14663241137E+02  0.51100000000E-03 0. -1.
        -11    1    3    3    0    0  0.67478616766E+01  0.46826421160E+01  0.31786115663E+02  0.32830137428E+02  0.51100000000E-03 0.  1.
         12    1    3    3    0    0  0.14276984936E+01 -0.23068669164E+01  0.13616938375E+01  0.30354848157E+01  0.00000000000E+00 0. -1.
</event>
<event>
 7    1  0.5748623E-013  0.5052885E+02  0.7816164E-02  0.1300439E+00
        -11   -1    0    0    0    0  0.00000000000E+00  0.00000000000E+00  0.45593999997E+02  0.45594000000E+02  0.51100000000E-03 0.  1.
         11   -1    0    0    0    0 -0.00000000000E+00 -0.00000000000E+00 -0.45593999997E+02  0.45594000000E+02  0.51100000000E-03 0. -1.
    9900012    2    1    2    0    0 -0.20979860114E+02  0.33553032940E+02 -0.93383983584E+01  0.50528853012E+02  0.29999979215E+02 0.  0.
         12    1    1    2    0    0  0.20979860114E+02 -0.33553032940E+02  0.93383983584E+01  0.40659146988E+02  0.00000000000E+00 0. -1.
         11    1    3    3    0    0  0.17098153552E+00  0.13510217246E+01 -0.87370074942E+01  0.88424993413E+01  0.51100000000E-03 0. -1.
        -11    1    3    3    0    0 -0.40852529557E+01  0.15626670197E+02  0.56103984592E+01  0.17098499474E+02  0.51100000000E-03 0.  1.
         12    1    3    3    0    0 -0.17065588694E+02  0.16575341019E+02 -0.62117893234E+01  0.24587854196E+02  0.00000000000E+00 0. -1.
</event>
<event>
 7    1  0.5748623E-013  0.5052885E+02  0.7816164E-02  0.1300439E+00
        -11   -1    0    0    0    0  0.00000000000E+00  0.00000000000E+00  0.45593999997E+02  0.45594000000E+02  0.51100000000E-03 0. -1.
         11   -1    0    0    0    0 -0.00000000000E+00 -0.00000000000E+00 -0.45593999997E+02  0.45594000000E+02  0.51100000000E-03 0.  1.
    9900012    2    1    2    0    0 -0.37233119870E+02  0.12980235786E+02  0.99183881571E+01  0.50528853920E+02  0.29999981974E+02 0.  0.
         12    1    1    2    0    0  0.37233119870E+02 -0.12980235786E+02 -0.99183881571E+01  0.40659146080E+02  0.00000000000E+00 0. -1.
         11    1    3    3    0    0  0.11945558850E+01 -0.11869445452E+01 -0.18035837612E+01  0.24675323221E+01  0.51100000000E-03 0. -1.
        -11    1    3    3    0    0 -0.24574911086E+02  0.16326185401E+02  0.15789635539E+02  0.33463161467E+02  0.51100000000E-03 0.  1.
        -12    1    3    3    0    0 -0.13852764670E+02 -0.21590050694E+01 -0.40676636210E+01  0.14598160131E+02  0.00000000000E+00 0.  1.
</event>
<event>
 7    1  0.5748623E-013  0.5052885E+02  0.7816164E-02  0.1300439E+00
        -11   -1    0    0    0    0  0.00000000000E+00  0.00000000000E+00  0.45593999997E+02  0.45594000000E+02  0.51100000000E-03 0.  1.
         11   -1    0    0    0    0 -0.00000000000E+00 -0.00000000000E+00 -0.45593999997E+02  0.45594000000E+02  0.51100000000E-03 0. -1.
    9900012    2    1    2    0    0  0.38481592272E+02 -0.13117182051E+02  0.52262126587E+00  0.50528849226E+02  0.29999967706E+02 0.  0.
         12    1    1    2    0    0 -0.38481592272E+02  0.13117182051E+02 -0.52262126587E+00  0.40659150774E+02  0.00000000000E+00 0. -1.
         11    1    3    3    0    0  0.33483687996E+00 -0.77414620511E+01  0.85829535026E+00  0.77960901479E+01  0.51100000000E-03 0. -1.
        -11    1    3    3    0    0  0.23717920358E+02 -0.35397907811E+00  0.83636799396E+01  0.25151862549E+02  0.51100000000E-03 0.  1.
        -12    1    3    3    0    0  0.14428835034E+02 -0.50217409218E+01 -0.86993540240E+01  0.17580896529E+02  0.00000000000E+00 0.  1.
</event>
<event>
 7    1  0.5748623E-013  0.5052887E+02  0.7816164E-02  0.1300439E+00
        -11   -1    0    0    0    0  0.00000000000E+00  0.00000000000E+00  0.45593999997E+02  0.45594000000E+02  0.51100000000E-03 0.  1.
         11   -1    0    0    0    0 -0.00000000000E+00 -0.00000000000E+00 -0.45593999997E+02  0.45594000000E+02  0.51100000000E-03 0. -1.
    9900012    2    1    2    0    0  0.32219765175E+02 -0.23664279357E+02  0.74198004316E+01  0.50528870350E+02  0.30000031917E+02 0.  0.
         12    1    1    2    0    0 -0.32219765175E+02  0.23664279357E+02 -0.74198004316E+01  0.40659129650E+02  0.00000000000E+00 0. -1.
         11    1    3    3    0    0  0.15195187270E+02 -0.90413889599E+01 -0.70876387687E+01  0.19049279621E+02  0.51100000000E-03 0. -1.
        -11    1    3    3    0    0  0.24981158918E+01  0.10968280126E+01  0.89632507927E+01  0.93692838431E+01  0.51100000000E-03 0.  1.
         12    1    3    3    0    0  0.14526462013E+02 -0.15719718410E+02  0.55441884076E+01  0.22110306886E+02  0.00000000000E+00 0. -1.
</event>
<event>
 7    1  0.5748623E-013  0.5052882E+02  0.7816164E-02  0.1300439E+00
        -11   -1    0    0    0    0  0.00000000000E+00  0.00000000000E+00  0.45593999997E+02  0.45594000000E+02  0.51100000000E-03 0. -1.
         11   -1    0    0    0    0 -0.00000000000E+00 -0.00000000000E+00 -0.45593999997E+02  0.45594000000E+02  0.51100000000E-03 0.  1.
    9900012    2    1    2    0    0  0.21460594228E+02  0.33758853754E+02  0.72767804796E+01  0.50528820894E+02  0.29999881591E+02 0.  0.
         12    1    1    2    0    0 -0.21460594228E+02 -0.33758853754E+02 -0.72767804796E+01  0.40659179106E+02  0.00000000000E+00 0. -1.
         11    1    3    3    0    0  0.66126226633E+00 -0.49075638514E+01  0.15273770246E+01  0.51821165151E+01  0.51100000000E-03 0. -1.
        -11    1    3    3    0    0  0.12779111914E+02  0.22709198777E+02 -0.14328474422E+01  0.26097250094E+02  0.51100000000E-03 0.  1.
        -12    1    3    3    0    0  0.80202200469E+01  0.15957218828E+02  0.71822508971E+01  0.19249454286E+02  0.00000000000E+00 0.  1.
</event>
<event>
 7    1  0.5748623E-013  0.5052887E+02  0.7816164E-02  0.1300439E+00
        -11   -1    0    0    0    0  0.00000000000E+00  0.00000000000E+00  0.45593999997E+02  0.45594000000E+02  0.51100000000E-03 0.  1.
         11   -1    0    0    0    0 -0.00000000000E+00 -0.00000000000E+00 -0.45593999997E+02  0.45594000000E+02  0.51100000000E-03 0. -1.
    9900012    2    1    2    0    0  0.79970862646E+00  0.36444342784E+02  0.18009305997E+02  0.50528871169E+02  0.30000034404E+02 0.  0.
         12    1    1    2    0    0 -0.79970862646E+00 -0.36444342784E+02 -0.18009305997E+02  0.40659128831E+02  0.00000000000E+00 0. -1.
         11    1    3    3    0    0  0.75172501057E+01 -0.25909381373E+00 -0.17688239601E+01  0.77268957039E+01  0.51100000000E-03 0. -1.
        -11    1    3    3    0    0  0.13881766910E+01  0.37201581851E+01  0.16237894546E+01  0.42899072137E+01  0.51100000000E-03 0.  1.
         12    1    3    3    0    0 -0.81057181703E+01  0.32983278412E+02  0.18154340503E+02  0.38512068251E+02  0.00000000000E+00 0. -1.
</event>
<event>
 7    1  0.5748623E-013  0.5052886E+02  0.7816164E-02  0.1300439E+00
        -11   -1    0    0    0    0  0.00000000000E+00  0.00000000000E+00  0.45593999997E+02  0.45594000000E+02  0.51100000000E-03 0.  1.
         11   -1    0    0    0    0 -0.00000000000E+00 -0.00000000000E+00 -0.45593999997E+02  0.45594000000E+02  0.51100000000E-03 0. -1.
    9900012    2    1    2    0    0 -0.10405559676E+02  0.37639366392E+02  0.11321121127E+02  0.50528863780E+02  0.30000011946E+02 0.  0.
         12    1    1    2    0    0  0.10405559676E+02 -0.37639366392E+02 -0.11321121127E+02  0.40659136220E+02  0.00000000000E+00 0. -1.
         11    1    3    3    0    0 -0.88959646470E+01  0.65154508286E+01 -0.13957188598E+01  0.11114734270E+02  0.51100000000E-03 0. -1.
        -11    1    3    3    0    0  0.23703954234E+01  0.43316177872E+01  0.11269372063E+02  0.12303675633E+02  0.51100000000E-03 0.  1.
        -12    1    3    3    0    0 -0.38799904525E+01  0.26792297776E+02  0.14474679235E+01  0.27110453877E+02  0.00000000000E+00 0.  1.
</event>
<event>
 7    1  0.5748623E-013  0.5052887E+02  0.7816164E-02  0.1300439E+00
        -11   -1    0    0    0    0  0.00000000000E+00  0.00000000000E+00  0.45593999997E+02  0.45594000000E+02  0.51100000000E-03 0. -1.
         11   -1    0    0    0    0 -0.00000000000E+00 -0.00000000000E+00 -0.45593999997E+02  0.45594000000E+02  0.51100000000E-03 0.  1.
    9900012    2    1    2    0    0 -0.37809031449E+02  0.14751417585E+02 -0.24571710412E+01  0.50528869790E+02  0.30000030214E+02 0.  0.
         12    1    1    2    0    0  0.37809031449E+02 -0.14751417585E+02  0.24571710412E+01  0.40659130210E+02  0.00000000000E+00 0. -1.
         11    1    3    3    0    0  0.95232602470E+00  0.81435504464E+01  0.28776117784E+01  0.86893606519E+01  0.51100000000E-03 0. -1.
        -11    1    3    3    0    0 -0.18536288613E+02  0.22584031058E+01 -0.91637379134E+01  0.20800684435E+02  0.51100000000E-03 0.  1.
         12    1    3    3    0    0 -0.20225068861E+02  0.43494640328E+01  0.38289550939E+01  0.21038824704E+02  0.00000000000E+00 0. -1.
</event>
<event>
 7    1  0.5748623E-013  0.5052888E+02  0.7816164E-02  0.1300439E+00
        -11   -1    0    0    0    0  0.00000000000E+00  0.00000000000E+00  0.45593999997E+02  0.45594000000E+02  0.51100000000E-03 0. -1.
         11   -1    0    0    0    0 -0.00000000000E+00 -0.00000000000E+00 -0.45593999997E+02  0.45594000000E+02  0.51100000000E-03 0.  1.
    9900012    2    1    2    0    0 -0.11273528332E+01 -0.28246726808E+02 -0.29223546981E+02  0.50528878048E+02  0.30000055315E+02 0.  0.
         12    1    1    2    0    0  0.11273528332E+01  0.28246726808E+02  0.29223546981E+02  0.40659121952E+02  0.00000000000E+00 0. -1.
         11    1    3    3    0    0  0.10372112678E+02 -0.59020351220E+01 -0.29587447378E+01  0.12295076684E+02  0.51100000000E-03 0. -1.
        -11    1    3    3    0    0 -0.10025657168E+02 -0.99467375937E+01 -0.19368310225E+02  0.23970457476E+02  0.51100000000E-03 0.  1.
        -12    1    3    3    0    0 -0.14738083432E+01 -0.12397954092E+02 -0.68964920182E+01  0.14263343888E+02  0.00000000000E+00 0.  1.
</event>
<event>
 7    1  0.5748623E-013  0.5052886E+02  0.7816164E-02  0.1300439E+00
        -11   -1    0    0    0    0  0.00000000000E+00  0.00000000000E+00  0.45593999997E+02  0.45594000000E+02  0.51100000000E-03 0. -1.
         11   -1    0    0    0    0 -0.00000000000E+00 -0.00000000000E+00 -0.45593999997E+02  0.45594000000E+02  0.51100000000E-03 0.  1.
    9900012    2    1    2    0    0 -0.14675372738E+02 -0.27028091269E+02 -0.26594759181E+02  0.50528862054E+02  0.30000006699E+02 0.  0.
         12    1    1    2    0    0  0.14675372738E+02  0.27028091269E+02  0.26594759181E+02  0.40659137946E+02  0.00000000000E+00 0. -1.
         11    1    3    3    0    0 -0.80431739902E+01 -0.25324444815E+02 -0.19700339217E+02  0.33077537976E+02  0.51100000000E-03 0. -1.
        -11    1    3    3    0    0 -0.10851725414E+02 -0.24860153247E+01 -0.27109374443E+01  0.11458158610E+02  0.51100000000E-03 0.  1.
         12    1    3    3    0    0  0.42195266658E+01  0.78236887047E+00 -0.41834825193E+01  0.59931654676E+01  0.00000000000E+00 0. -1.
</event>
<event>
 7    1  0.5748623E-013  0.5052886E+02  0.7816164E-02  0.1300439E+00
        -11   -1    0    0    0    0  0.00000000000E+00  0.00000000000E+00  0.45593999997E+02  0.45594000000E+02  0.51100000000E-03 0.  1.
         11   -1    0    0    0    0 -0.00000000000E+00 -0.00000000000E+00 -0.45593999997E+02  0.45594000000E+02  0.51100000000E-03 0. -1.
    9900012    2    1    2    0    0  0.33972084763E+02  0.15649022801E+01  0.22284838894E+02  0.50528861951E+02  0.30000006387E+02 0.  0.
         12    1    1    2    0    0 -0.33972084763E+02 -0.15649022801E+01 -0.22284838894E+02  0.40659138049E+02  0.00000000000E+00 0. -1.
         11    1    3    3    0    0 -0.10602245741E+01 -0.48072687552E+01  0.30026742659E+01  0.57662780058E+01  0.51100000000E-03 0. -1.
        -11    1    3    3    0    0  0.19371434473E+02  0.56296880974E+01  0.20843154489E+02  0.29006601851E+02  0.51100000000E-03 0.  1.
        -12    1    3    3    0    0  0.15660874864E+02  0.74248293785E+00 -0.15609898605E+01  0.15755982095E+02  0.00000000000E+00 0.  1.
</event>
<event>
 7    1  0.5748623E-013  0.5052887E+02  0.7816164E-02  0.1300439E+00
        -11   -1    0    0    0    0  0.00000000000E+00  0.00000000000E+00  0.45593999997E+02  0.45594000000E+02  0.51100000000E-03 0.  1.
         11   -1    0    0    0    0 -0.00000000000E+00 -0.00000000000E+00 -0.45593999997E+02  0.45594000000E+02  0.51100000000E-03 0. -1.
    9900012    2    1    2    0    0  0.69959411787E+01 -0.30371282095E+02 -0.26111432298E+02  0.50528869835E+02  0.30000030351E+02 0.  0.
         12    1    1    2    0    0 -0.69959411787E+01  0.30371282095E+02  0.26111432298E+02  0.40659130165E+02  0.00000000000E+00 0. -1.
         11    1    3    3    0    0  0.44711415671E+01  0.33535702371E+01 -0.77419135853E+01  0.95485478724E+01  0.51100000000E-03 0. -1.
        -11    1    3    3    0    0 -0.37899474936E+01 -0.23049083347E+02 -0.76291860131E+01  0.24572920556E+02  0.51100000000E-03 0.  1.
        -12    1    3    3    0    0  0.63147471052E+01 -0.10675768985E+02 -0.10740332700E+02  0.16407401407E+02  0.00000000000E+00 0.  1.
</event>
<event>
 7    1  0.5748623E-013  0.5052884E+02  0.7816164E-02  0.1300439E+00
        -11   -1    0    0    0    0  0.00000000000E+00  0.00000000000E+00  0.45593999997E+02  0.45594000000E+02  0.51100000000E-03 0. -1.
         11   -1    0    0    0    0 -0.00000000000E+00 -0.00000000000E+00 -0.45593999997E+02  0.45594000000E+02  0.51100000000E-03 0.  1.
    9900012    2    1    2    0    0 -0.13306612807E+02 -0.24067446429E+02  0.29947608908E+02  0.50528841113E+02  0.29999943048E+02 0.  0.
         12    1    1    2    0    0  0.13306612807E+02  0.24067446429E+02 -0.29947608908E+02  0.40659158887E+02  0.00000000000E+00 0. -1.
         11    1    3    3    0    0 -0.14580016943E+02 -0.82766933617E+00  0.20020492244E+02  0.24780678775E+02  0.51100000000E-03 0. -1.
        -11    1    3    3    0    0  0.53017602987E-02 -0.14333718452E+02  0.84289712134E+01  0.16628381423E+02  0.51100000000E-03 0.  1.
         12    1    3    3    0    0  0.12681023757E+01 -0.89060586417E+01  0.14981454511E+01  0.91197809161E+01  0.00000000000E+00 0. -1.
</event>
<event>
 7    1  0.5748623E-013  0.5052887E+02  0.7816164E-02  0.1300439E+00
        -11   -1    0    0    0    0  0.00000000000E+00  0.00000000000E+00  0.45593999997E+02  0.45594000000E+02  0.51100000000E-03 0. -1.
         11   -1    0    0    0    0 -0.00000000000E+00 -0.00000000000E+00 -0.45593999997E+02  0.45594000000E+02  0.51100000000E-03 0.  1.
    9900012    2    1    2    0    0 -0.34575216625E+01 -0.25294099826E+02 -0.31645206747E+02  0.50528867543E+02  0.30000023384E+02 0.  0.
         12    1    1    2    0    0  0.34575216625E+01  0.25294099826E+02  0.31645206747E+02  0.40659132457E+02  0.00000000000E+00 0. -1.
         11    1    3    3    0    0 -0.79207394661E+00  0.26607033337E+01 -0.72685807683E+01  0.77806805624E+01  0.51100000000E-03 0. -1.
        -11    1    3    3    0    0 -0.43041554125E+01 -0.29733933425E+02 -0.26084365642E+02  0.39787267837E+02  0.51100000000E-03 0.  1.
        -12    1    3    3    0    0  0.16387076966E+01  0.17791302657E+01  0.17077396630E+01  0.29609191435E+01  0.00000000000E+00 0.  1.
</event>
<event>
 7    1  0.5748623E-013  0.5052884E+02  0.7816164E-02  0.1300439E+00
        -11   -1    0    0    0    0  0.00000000000E+00  0.00000000000E+00  0.45593999997E+02  0.45594000000E+02  0.51100000000E-03 0. -1.
         11   -1    0    0    0    0 -0.00000000000E+00 -0.00000000000E+00 -0.45593999997E+02  0.45594000000E+02  0.51100000000E-03 0.  1.
    9900012    2    1    2    0    0 -0.38946257884E+02 -0.86291522183E+01 -0.78672547973E+01  0.50528843968E+02  0.29999951725E+02 0.  0.
         12    1    1    2    0    0  0.38946257884E+02  0.86291522183E+01  0.78672547973E+01  0.40659156032E+02  0.00000000000E+00 0. -1.
         11    1    3    3    0    0  0.96830900379E+00  0.35185933341E+01 -0.25875128434E+01  0.44736276503E+01  0.51100000000E-03 0. -1.
        -11    1    3    3    0    0 -0.31634138030E+02 -0.12182768219E+02 -0.11393339215E+02  0.35762364422E+02  0.51100000000E-03 0.  1.
        -12    1    3    3    0    0 -0.82804288585E+01  0.35022666696E-01  0.61135972609E+01  0.10292851895E+02  0.00000000000E+00 0.  1.
</event>
<event>
 7    1  0.5748623E-013  0.5052884E+02  0.7816164E-02  0.1300439E+00
        -11   -1    0    0    0    0  0.00000000000E+00  0.00000000000E+00  0.45593999997E+02  0.45594000000E+02  0.51100000000E-03 0.  1.
         11   -1    0    0    0    0 -0.00000000000E+00 -0.00000000000E+00 -0.45593999997E+02  0.45594000000E+02  0.51100000000E-03 0. -1.
    9900012    2    1    2    0    0 -0.25233479344E+02  0.11961294357E+02  0.29552764396E+02  0.50528844501E+02  0.29999953344E+02 0.  0.
         12    1    1    2    0    0  0.25233479344E+02 -0.11961294357E+02 -0.29552764396E+02  0.40659155499E+02  0.00000000000E+00 0. -1.
         11    1    3    3    0    0 -0.84845977879E+01 -0.34940901602E+01  0.22644749220E+02  0.24433209637E+02  0.51100000000E-03 0. -1.
        -11    1    3    3    0    0 -0.15438538715E+02  0.86913453171E+01  0.73737823383E+01  0.19190117960E+02  0.51100000000E-03 0.  1.
         12    1    3    3    0    0 -0.13103428408E+01  0.67640391997E+01 -0.46576716231E+00  0.69055169035E+01  0.00000000000E+00 0. -1.
</event>
<event>
 7    1  0.5748623E-013  0.5052888E+02  0.7816164E-02  0.1300439E+00
        -11   -1    0    0    0    0  0.00000000000E+00  0.00000000000E+00  0.45593999997E+02  0.45594000000E+02  0.51100000000E-03 0. -1.
         11   -1    0    0    0    0 -0.00000000000E+00 -0.00000000000E+00 -0.45593999997E+02  0.45594000000E+02  0.51100000000E-03 0.  1.
    9900012    2    1    2    0    0  0.39793727418E+02 -0.61165369002E+01 -0.56754817455E+01  0.50528882221E+02  0.30000067999E+02 0.  0.
         12    1    1    2    0    0 -0.39793727418E+02  0.61165369002E+01  0.56754817455E+01  0.40659117779E+02  0.00000000000E+00 0. -1.
         11    1    3    3    0    0  0.67522521510E+01 -0.60132228684E+01 -0.28262714088E+01  0.94730971024E+01  0.51100000000E-03 0. -1.
        -11    1    3    3    0    0  0.13665552633E+02 -0.64953686806E+00  0.10731762819E+02  0.17387925707E+02  0.51100000000E-03 0.  1.
        -12    1    3    3    0    0  0.19375922634E+02  0.54622283618E+00 -0.13580973155E+02  0.23667859412E+02  0.00000000000E+00 0.  1.
</event>
<event>
 7    1  0.5748623E-013  0.5052886E+02  0.7816164E-02  0.1300439E+00
        -11   -1    0    0    0    0  0.00000000000E+00  0.00000000000E+00  0.45593999997E+02  0.45594000000E+02  0.51100000000E-03 0. -1.
         11   -1    0    0    0    0 -0.00000000000E+00 -0.00000000000E+00 -0.45593999997E+02  0.45594000000E+02  0.51100000000E-03 0.  1.
    9900012    2    1    2    0    0 -0.13848977241E+02  0.30567581117E+02 -0.22956359367E+02  0.50528860544E+02  0.30000002109E+02 0.  0.
         12    1    1    2    0    0  0.13848977241E+02 -0.30567581117E+02  0.22956359367E+02  0.40659139456E+02  0.00000000000E+00 0. -1.
         11    1    3    3    0    0 -0.10381745480E+02  0.51621222068E+01 -0.12937725522E+01  0.11666275865E+02  0.51100000000E-03 0. -1.
        -11    1    3    3    0    0  0.13493042239E+01  0.16658872013E+02 -0.23371159430E+02  0.28732381245E+02  0.51100000000E-03 0.  1.
        -12    1    3    3    0    0 -0.48165359848E+01  0.87465868965E+01  0.17085726150E+01  0.10130203434E+02  0.00000000000E+00 0.  1.
</event>
<event>
 7    1  0.5748623E-013  0.5052886E+02  0.7816164E-02  0.1300439E+00
        -11   -1    0    0    0    0  0.00000000000E+00  0.00000000000E+00  0.45593999997E+02  0.45594000000E+02  0.51100000000E-03 0. -1.
         11   -1    0    0    0    0 -0.00000000000E+00 -0.00000000000E+00 -0.45593999997E+02  0.45594000000E+02  0.51100000000E-03 0.  1.
    9900012    2    1    2    0    0 -0.32604937034E+02 -0.13111844913E+02 -0.20449044822E+02  0.50528857975E+02  0.29999994301E+02 0.  0.
         12    1    1    2    0    0  0.32604937034E+02  0.13111844913E+02  0.20449044822E+02  0.40659142025E+02  0.00000000000E+00 0. -1.
         11    1    3    3    0    0 -0.80999255056E+01 -0.14309797994E+01  0.48187194392E+01  0.95329194729E+01  0.51100000000E-03 0. -1.
        -11    1    3    3    0    0 -0.15888873427E+02 -0.13691276061E+01 -0.21990311734E+02  0.27164399857E+02  0.51100000000E-03 0.  1.
        -12    1    3    3    0    0 -0.86161381021E+01 -0.10311737508E+02 -0.32774525280E+01  0.13831538645E+02  0.00000000000E+00 0.  1.
</event>
<event>
 7    1  0.5748623E-013  0.5052886E+02  0.7816164E-02  0.1300439E+00
        -11   -1    0    0    0    0  0.00000000000E+00  0.00000000000E+00  0.45593999997E+02  0.45594000000E+02  0.51100000000E-03 0.  1.
         11   -1    0    0    0    0 -0.00000000000E+00 -0.00000000000E+00 -0.45593999997E+02  0.45594000000E+02  0.51100000000E-03 0. -1.
    9900012    2    1    2    0    0  0.24143560193E+02  0.10174309022E+02  0.31092402732E+02  0.50528861168E+02  0.30000004007E+02 0.  0.
         12    1    1    2    0    0 -0.24143560193E+02 -0.10174309022E+02 -0.31092402732E+02  0.40659138832E+02  0.00000000000E+00 0. -1.
         11    1    3    3    0    0  0.18978753024E+02 -0.58225397013E+01  0.12003867755E+02  0.23198876616E+02  0.51100000000E-03 0. -1.
        -11    1    3    3    0    0  0.40376157815E+01  0.15160545832E+02  0.11098797724E+02  0.19217903171E+02  0.51100000000E-03 0.  1.
         12    1    3    3    0    0  0.11271913881E+01  0.83630289157E+00  0.79897372537E+01  0.81120813811E+01  0.00000000000E+00 0. -1.
</event>
<event>
 7    1  0.5748623E-013  0.5052886E+02  0.7816164E-02  0.1300439E+00
        -11   -1    0    0    0    0  0.00000000000E+00  0.00000000000E+00  0.45593999997E+02  0.45594000000E+02  0.51100000000E-03 0. -1.
         11   -1    0    0    0    0 -0.00000000000E+00 -0.00000000000E+00 -0.45593999997E+02  0.45594000000E+02  0.51100000000E-03 0.  1.
    9900012    2    1    2    0    0 -0.26672057826E+02 -0.21145192427E+02 -0.22240673453E+02  0.50528863424E+02  0.30000010863E+02 0.  0.
         12    1    1    2    0    0  0.26672057826E+02  0.21145192427E+02  0.22240673453E+02  0.40659136576E+02  0.00000000000E+00 0. -1.
         11    1    3    3    0    0 -0.81145312579E+01 -0.91203188274E+00 -0.57623319126E+01  0.99940927063E+01  0.51100000000E-03 0. -1.
        -11    1    3    3    0    0 -0.10644473107E+02 -0.25221233487E+02 -0.99487306643E+01  0.29127180921E+02  0.51100000000E-03 0.  1.
        -12    1    3    3    0    0 -0.79130534619E+01  0.49880729423E+01 -0.65296108759E+01  0.11407589796E+02  0.00000000000E+00 0.  1.
</event>
<event>
 7    1  0.5748623E-013  0.5052885E+02  0.7816164E-02  0.1300439E+00
        -11   -1    0    0    0    0  0.00000000000E+00  0.00000000000E+00  0.45593999997E+02  0.45594000000E+02  0.51100000000E-03 0.  1.
         11   -1    0    0    0    0 -0.00000000000E+00 -0.00000000000E+00 -0.45593999997E+02  0.45594000000E+02  0.51100000000E-03 0. -1.
    9900012    2    1    2    0    0  0.11671113581E+02  0.32502875610E+02 -0.21459598971E+02  0.50528853389E+02  0.29999980361E+02 0.  0.
         12    1    1    2    0    0 -0.11671113581E+02 -0.32502875610E+02  0.21459598971E+02  0.40659146611E+02  0.00000000000E+00 0. -1.
         11    1    3    3    0    0  0.12581982063E+02  0.10974066365E+02  0.23953399688E+01  0.16866358796E+02  0.51100000000E-03 0. -1.
        -11    1    3    3    0    0 -0.26975342114E+01  0.13411000463E+02 -0.20615891166E+02  0.24741596413E+02  0.51100000000E-03 0.  1.
         12    1    3    3    0    0  0.17866657295E+01  0.81178087821E+01 -0.32390477741E+01  0.89208981798E+01  0.00000000000E+00 0. -1.
</event>
<event>
 7    1  0.5748623E-013  0.5052886E+02  0.7816164E-02  0.1300439E+00
        -11   -1    0    0    0    0  0.00000000000E+00  0.00000000000E+00  0.45593999997E+02  0.45594000000E+02  0.51100000000E-03 0.  1.
         11   -1    0    0    0    0 -0.00000000000E+00 -0.00000000000E+00 -0.45593999997E+02  0.45594000000E+02  0.51100000000E-03 0. -1.
    9900012    2    1    2    0    0  0.12311264413E+01 -0.33199554952E+02  0.23440121913E+02  0.50528862815E+02  0.30000009014E+02 0.  0.
         12    1    1    2    0    0 -0.12311264413E+01  0.33199554952E+02 -0.23440121913E+02  0.40659137185E+02  0.00000000000E+00 0. -1.
         11    1    3    3    0    0  0.40396881993E+01  0.22618097790E+01  0.14775045266E+00  0.46321371613E+01  0.51100000000E-03 0. -1.
        -11    1    3    3    0    0 -0.79484158519E+01 -0.27331875597E+02  0.11550334181E+02  0.30718381438E+02  0.51100000000E-03 0.  1.
        -12    1    3    3    0    0  0.51398540939E+01 -0.81294891336E+01  0.11742037279E+02  0.15178344216E+02  0.00000000000E+00 0.  1.
</event>
<event>
 7    1  0.5748623E-013  0.5052886E+02  0.7816164E-02  0.1300439E+00
        -11   -1    0    0    0    0  0.00000000000E+00  0.00000000000E+00  0.45593999997E+02  0.45594000000E+02  0.51100000000E-03 0. -1.
         11   -1    0    0    0    0 -0.00000000000E+00 -0.00000000000E+00 -0.45593999997E+02  0.45594000000E+02  0.51100000000E-03 0.  1.
    9900012    2    1    2    0    0  0.32602725929E+02 -0.13482301679E+02  0.20210271242E+02  0.50528864985E+02  0.30000015607E+02 0.  0.
         12    1    1    2    0    0 -0.32602725929E+02  0.13482301679E+02 -0.20210271242E+02  0.40659135015E+02  0.00000000000E+00 0. -1.
         11    1    3    3    0    0 -0.88756577400E+00 -0.23292482595E+01  0.13534734663E+02  0.13762347660E+02  0.51100000000E-03 0. -1.
        -11    1    3    3    0    0  0.15392952137E+02 -0.43998409484E+01  0.69387190166E+01  0.17448421067E+02  0.51100000000E-03 0.  1.
         12    1    3    3    0    0  0.18097339565E+02 -0.67532124708E+01 -0.26318243787E+00  0.19318096258E+02  0.00000000000E+00 0. -1.
</event>
<event>
 7    1  0.5785316E-013  0.5052886E+02  0.7816164E-02  0.1300439E+00
        -11   -1    0    0    0    0  0.00000000000E+00  0.00000000000E+00  0.45593999997E+02  0.45594000000E+02  0.51100000000E-03 0. -1.
         11   -1    0    0    0    0 -0.00000000000E+00 -0.00000000000E+00 -0.45593999997E+02  0.45594000000E+02  0.51100000000E-03 0.  1.
    9900012    2    1    2    0    0 -0.22126500421E+02 -0.80791648841E+01 -0.33140775818E+02  0.50528856527E+02  0.29999989899E+02 0.  0.
         12    1    1    2    0    0  0.22126500421E+02  0.80791648841E+01  0.33140775818E+02  0.40659143473E+02  0.00000000000E+00 0. -1.
         11    1    3    3    0    0 -0.71174932077E+01 -0.65574779187E+01  0.71449373582E+00  0.97041088090E+01  0.51100000000E-03 0. -1.
        -11    1    3    3    0    0 -0.34003028212E+01 -0.22418953802E+01 -0.27038052067E+02  0.27343087134E+02  0.51100000000E-03 0.  1.
        -12    1    3    3    0    0 -0.11608704392E+02  0.72020841484E+00 -0.68172174876E+01  0.13481660584E+02  0.00000000000E+00 0.  1.
</event>
<event>
 7    1  0.5748623E-013  0.5052888E+02  0.7816164E-02  0.1300439E+00
        -11   -1    0    0    0    0  0.00000000000E+00  0.00000000000E+00  0.45593999997E+02  0.45594000000E+02  0.51100000000E-03 0.  1.
         11   -1    0    0    0    0 -0.00000000000E+00 -0.00000000000E+00 -0.45593999997E+02  0.45594000000E+02  0.51100000000E-03 0. -1.
    9900012    2    1    2    0    0  0.15237162528E+02  0.18567282361E+02  0.32806236074E+02  0.50528877758E+02  0.30000054432E+02 0.  0.
         12    1    1    2    0    0 -0.15237162528E+02 -0.18567282361E+02 -0.32806236074E+02  0.40659122242E+02  0.00000000000E+00 0. -1.
         11    1    3    3    0    0  0.14504630364E+02  0.15184687689E+02  0.42549898484E+01  0.21425778424E+02  0.51100000000E-03 0. -1.
        -11    1    3    3    0    0 -0.25873957296E+00  0.31686854321E+01  0.93622770155E+01  0.98873527655E+01  0.51100000000E-03 0.  1.
         12    1    3    3    0    0  0.99127173682E+00  0.21390924040E+00  0.19188969210E+02  0.19215746568E+02  0.00000000000E+00 0. -1.
</event>
<event>
 7    1  0.5748623E-013  0.5052886E+02  0.7816164E-02  0.1300439E+00
        -11   -1    0    0    0    0  0.00000000000E+00  0.00000000000E+00  0.45593999997E+02  0.45594000000E+02  0.51100000000E-03 0. -1.
         11   -1    0    0    0    0 -0.00000000000E+00 -0.00000000000E+00 -0.45593999997E+02  0.45594000000E+02  0.51100000000E-03 0.  1.
    9900012    2    1    2    0    0 -0.25030045683E+02 -0.21166227225E+02 -0.24055217587E+02  0.50528857671E+02  0.29999993375E+02 0.  0.
         12    1    1    2    0    0  0.25030045683E+02  0.21166227225E+02  0.24055217587E+02  0.40659142329E+02  0.00000000000E+00 0. -1.
         11    1    3    3    0    0 -0.10453110162E+02 -0.33270907733E+00 -0.19970356167E+00  0.10460310185E+02  0.51100000000E-03 0. -1.
        -11    1    3    3    0    0 -0.19125253449E+01 -0.17337098042E+02 -0.19647878551E+02  0.26273025207E+02  0.51100000000E-03 0.  1.
        -12    1    3    3    0    0 -0.12664410175E+02 -0.34964201051E+01 -0.42076354747E+01  0.13795522278E+02  0.00000000000E+00 0.  1.
</event>
<event>
 7    1  0.5748623E-013  0.5052897E+02  0.7816164E-02  0.1300438E+00
        -11   -1    0    0    0    0  0.00000000000E+00  0.00000000000E+00  0.45593999997E+02  0.45594000000E+02  0.51100000000E-03 0. -1.
         11   -1    0    0    0    0 -0.00000000000E+00 -0.00000000000E+00 -0.45593999997E+02  0.45594000000E+02  0.51100000000E-03 0.  1.
    9900012    2    1    2    0    0 -0.26399708186E+02  0.21072355712E+02  0.22631119930E+02  0.50528974472E+02  0.30000348403E+02 0.  0.
         12    1    1    2    0    0  0.26399708186E+02 -0.21072355712E+02 -0.22631119930E+02  0.40659025528E+02  0.00000000000E+00 0. -1.
         11    1    3    3    0    0 -0.22854979455E+01 -0.34767936617E+01  0.10441342779E+02  0.11239805795E+02  0.51100000000E-03 0. -1.
        -11    1    3    3    0    0 -0.11086988214E+02  0.21128499637E+02  0.84189802824E+01  0.25302451142E+02  0.51100000000E-03 0.  1.
         12    1    3    3    0    0 -0.13027222027E+02  0.34206497372E+01  0.37707968694E+01  0.13986717535E+02  0.00000000000E+00 0. -1.
</event>
<event>
 7    1  0.5748623E-013  0.5052886E+02  0.7816164E-02  0.1300439E+00
        -11   -1    0    0    0    0  0.00000000000E+00  0.00000000000E+00  0.45593999997E+02  0.45594000000E+02  0.51100000000E-03 0.  1.
         11   -1    0    0    0    0 -0.00000000000E+00 -0.00000000000E+00 -0.45593999997E+02  0.45594000000E+02  0.51100000000E-03 0. -1.
    9900012    2    1    2    0    0  0.24016982973E+02 -0.31851761364E+02 -0.78622860729E+01  0.50528859387E+02  0.29999998593E+02 0.  0.
         12    1    1    2    0    0 -0.24016982973E+02  0.31851761364E+02  0.78622860729E+01  0.40659140613E+02  0.00000000000E+00 0. -1.
         11    1    3    3    0    0  0.12357470143E+02 -0.66138400309E+01 -0.12348449186E+02  0.18679779063E+02  0.51100000000E-03 0. -1.
        -11    1    3    3    0    0  0.41030714436E+01 -0.12311852682E+02  0.94735743489E+01  0.16067530082E+02  0.51100000000E-03 0.  1.
        -12    1    3    3    0    0  0.75564413867E+01 -0.12926068651E+02 -0.49874112356E+01  0.15781550242E+02  0.00000000000E+00 0.  1.
</event>
<event>
 7    1  0.5748623E-013  0.5052887E+02  0.7816164E-02  0.1300439E+00
        -11   -1    0    0    0    0  0.00000000000E+00  0.00000000000E+00  0.45593999997E+02  0.45594000000E+02  0.51100000000E-03 0. -1.
         11   -1    0    0    0    0 -0.00000000000E+00 -0.00000000000E+00 -0.45593999997E+02  0.45594000000E+02  0.51100000000E-03 0.  1.
    9900012    2    1    2    0    0  0.29995573907E+02  0.25844167043E+02 -0.92471430835E+01  0.50528867209E+02  0.30000022367E+02 0.  0.
         12    1    1    2    0    0 -0.29995573907E+02 -0.25844167043E+02  0.92471430835E+01  0.40659132791E+02  0.00000000000E+00 0. -1.
         11    1    3    3    0    0  0.17338793980E+02  0.20212926911E+02 -0.18051506278E+02  0.32172240677E+02  0.51100000000E-03 0. -1.
        -11    1    3    3    0    0  0.93806452354E+01  0.68747579998E+01  0.92016112315E+01  0.14829984899E+02  0.51100000000E-03 0.  1.
         12    1    3    3    0    0  0.32761346914E+01 -0.12435178681E+01 -0.39724803728E+00  0.35266416330E+01  0.00000000000E+00 0. -1.
</event>
<event>
 7    1  0.5748623E-013  0.5052886E+02  0.7816164E-02  0.1300439E+00
        -11   -1    0    0    0    0  0.00000000000E+00  0.00000000000E+00  0.45593999997E+02  0.45594000000E+02  0.51100000000E-03 0.  1.
         11   -1    0    0    0    0 -0.00000000000E+00 -0.00000000000E+00 -0.45593999997E+02  0.45594000000E+02  0.51100000000E-03 0. -1.
    9900012    2    1    2    0    0  0.25370246320E+02  0.20708698859E+01  0.31705325266E+02  0.50528861413E+02  0.30000004750E+02 0.  0.
         12    1    1    2    0    0 -0.25370246320E+02 -0.20708698859E+01 -0.31705325266E+02  0.40659138587E+02  0.00000000000E+00 0. -1.
         11    1    3    3    0    0  0.14811841130E+02 -0.76477476305E+01  0.32485302369E+01  0.16983275021E+02  0.51100000000E-03 0. -1.
        -11    1    3    3    0    0  0.94549615035E+01  0.47137884203E+01  0.10591888163E+02  0.14960086678E+02  0.51100000000E-03 0.  1.
         12    1    3    3    0    0  0.11034436868E+01  0.50048290961E+01  0.17864906866E+02  0.18585499713E+02  0.00000000000E+00 0. -1.
</event>
<event>
 7    1  0.5748623E-013  0.5052889E+02  0.7816164E-02  0.1300439E+00
        -11   -1    0    0    0    0  0.00000000000E+00  0.00000000000E+00  0.45593999997E+02  0.45594000000E+02  0.51100000000E-03 0.  1.
         11   -1    0    0    0    0 -0.00000000000E+00 -0.00000000000E+00 -0.45593999997E+02  0.45594000000E+02  0.51100000000E-03 0. -1.
    9900012    2    1    2    0    0  0.11694284448E+02 -0.10781314564E+02  0.37418853128E+02  0.50528885377E+02  0.30000077593E+02 0.  0.
         12    1    1    2    0    0 -0.11694284448E+02  0.10781314564E+02 -0.37418853128E+02  0.40659114623E+02  0.00000000000E+00 0. -1.
         11    1    3    3    0    0 -0.64028752248E+01 -0.80214671947E+01  0.15102221725E+02  0.18259732977E+02  0.51100000000E-03 0. -1.
        -11    1    3    3    0    0  0.95244005319E+01 -0.12490201246E+01  0.21472762048E+02  0.23523472681E+02  0.51100000000E-03 0.  1.
         12    1    3    3    0    0  0.85727591414E+01 -0.15108272451E+01  0.84386935525E+00  0.87456797191E+01  0.00000000000E+00 0. -1.
</event>
<event>
 7    1  0.5748623E-013  0.5052886E+02  0.7816164E-02  0.1300439E+00
        -11   -1    0    0    0    0  0.00000000000E+00  0.00000000000E+00  0.45593999997E+02  0.45594000000E+02  0.51100000000E-03 0.  1.
         11   -1    0    0    0    0 -0.00000000000E+00 -0.00000000000E+00 -0.45593999997E+02  0.45594000000E+02  0.51100000000E-03 0. -1.
    9900012    2    1    2    0    0 -0.13487294262E+02 -0.64056911288E+01  0.37818321731E+02  0.50528862725E+02  0.30000008740E+02 0.  0.
         12    1    1    2    0    0  0.13487294262E+02  0.64056911288E+01 -0.37818321731E+02  0.40659137275E+02  0.00000000000E+00 0. -1.
         11    1    3    3    0    0 -0.45156530971E+01  0.60157532127E+01 -0.15494112281E+01  0.76799143891E+01  0.51100000000E-03 0. -1.
        -11    1    3    3    0    0 -0.44961249238E+01 -0.14411289816E+01  0.15417032922E+02  0.16123799070E+02  0.51100000000E-03 0.  1.
         12    1    3    3    0    0 -0.44755162410E+01 -0.10980315360E+02  0.23950700038E+02  0.26725149266E+02  0.00000000000E+00 0. -1.
</event>
<event>
 7    1  0.5748623E-013  0.5052886E+02  0.7816164E-02  0.1300439E+00
        -11   -1    0    0    0    0  0.00000000000E+00  0.00000000000E+00  0.45593999997E+02  0.45594000000E+02  0.51100000000E-03 0.  1.
         11   -1    0    0    0    0 -0.00000000000E+00 -0.00000000000E+00 -0.45593999997E+02  0.45594000000E+02  0.51100000000E-03 0. -1.
    9900012    2    1    2    0    0 -0.31993232251E+02  0.16696439889E+02  0.18730399644E+02  0.50528857293E+02  0.29999992229E+02 0.  0.
         12    1    1    2    0    0  0.31993232251E+02 -0.16696439889E+02 -0.18730399644E+02  0.40659142707E+02  0.00000000000E+00 0. -1.
         11    1    3    3    0    0 -0.80338190343E+01  0.50828177467E+01 -0.23358139190E+01  0.97894489859E+01  0.51100000000E-03 0. -1.
        -11    1    3    3    0    0 -0.80095821673E+01 -0.67047916812E+01  0.80134266215E+01  0.13165205827E+02  0.51100000000E-03 0.  1.
        -12    1    3    3    0    0 -0.15949831049E+02  0.18318413823E+02  0.13052786942E+02  0.27574202481E+02  0.00000000000E+00 0.  1.
</event>
<event>
 7    1  0.5748623E-013  0.5052885E+02  0.7816164E-02  0.1300439E+00
        -11   -1    0    0    0    0  0.00000000000E+00  0.00000000000E+00  0.45593999997E+02  0.45594000000E+02  0.51100000000E-03 0. -1.
         11   -1    0    0    0    0 -0.00000000000E+00 -0.00000000000E+00 -0.45593999997E+02  0.45594000000E+02  0.51100000000E-03 0.  1.
    9900012    2    1    2    0    0  0.38528874891E+02  0.58349461216E+01 -0.11603698148E+02  0.50528848419E+02  0.29999965253E+02 0.  0.
         12    1    1    2    0    0 -0.38528874891E+02 -0.58349461216E+01  0.11603698148E+02  0.40659151581E+02  0.00000000000E+00 0. -1.
         11    1    3    3    0    0  0.72143387454E+01 -0.79800076530E+01  0.37780790934E+01  0.11401801944E+02  0.51100000000E-03 0. -1.
        -11    1    3    3    0    0  0.66272408144E+01  0.83872723248E+01 -0.41458675161E+01  0.11465377254E+02  0.51100000000E-03 0.  1.
         12    1    3    3    0    0  0.24687295331E+02  0.54276814498E+01 -0.11235909725E+02  0.27661669220E+02  0.00000000000E+00 0. -1.
</event>
<event>
 7    1  0.5748623E-013  0.5052880E+02  0.7816164E-02  0.1300439E+00
        -11   -1    0    0    0    0  0.00000000000E+00  0.00000000000E+00  0.45593999997E+02  0.45594000000E+02  0.51100000000E-03 0.  1.
         11   -1    0    0    0    0 -0.00000000000E+00 -0.00000000000E+00 -0.45593999997E+02  0.45594000000E+02  0.51100000000E-03 0. -1.
    9900012    2    1    2    0    0 -0.12299766149E+02 -0.10738633833E+02  0.37236643824E+02  0.50528804888E+02  0.29999832936E+02 0.  0.
         12    1    1    2    0    0  0.12299766149E+02  0.10738633833E+02 -0.37236643824E+02  0.40659195112E+02  0.00000000000E+00 0. -1.
         11    1    3    3    0    0 -0.11987889021E+02 -0.10129857233E+02  0.93875116056E+01  0.18287943164E+02  0.51100000000E-03 0. -1.
        -11    1    3    3    0    0  0.66485289529E+01  0.26298013983E+00  0.49546251247E+01  0.82958065418E+01  0.51100000000E-03 0.  1.
        -12    1    3    3    0    0 -0.69604060802E+01 -0.87175674021E+00  0.22894507094E+02  0.23945055182E+02  0.00000000000E+00 0.  1.
</event>
<event>
 7    1  0.5748623E-013  0.5052886E+02  0.7816164E-02  0.1300439E+00
        -11   -1    0    0    0    0  0.00000000000E+00  0.00000000000E+00  0.45593999997E+02  0.45594000000E+02  0.51100000000E-03 0.  1.
         11   -1    0    0    0    0 -0.00000000000E+00 -0.00000000000E+00 -0.45593999997E+02  0.45594000000E+02  0.51100000000E-03 0. -1.
    9900012    2    1    2    0    0 -0.39532110557E+02  0.92971589554E+01  0.19850912966E+01  0.50528861824E+02  0.30000006001E+02 0.  0.
         12    1    1    2    0    0  0.39532110557E+02 -0.92971589554E+01 -0.19850912966E+01  0.40659138176E+02  0.00000000000E+00 0. -1.
         11    1    3    3    0    0 -0.20749053174E+01  0.12250737795E+00 -0.71865445532E+01  0.74810870206E+01  0.51100000000E-03 0. -1.
        -11    1    3    3    0    0 -0.27680796856E+02  0.13668776401E+02  0.94456363732E+01  0.32284392663E+02  0.51100000000E-03 0.  1.
         12    1    3    3    0    0 -0.97764083838E+01 -0.44941248235E+01 -0.27400052341E+00  0.10763382141E+02  0.00000000000E+00 0. -1.
</event>
<event>
 7    1  0.5748623E-013  0.5052886E+02  0.7816164E-02  0.1300439E+00
        -11   -1    0    0    0    0  0.00000000000E+00  0.00000000000E+00  0.45593999997E+02  0.45594000000E+02  0.51100000000E-03 0. -1.
         11   -1    0    0    0    0 -0.00000000000E+00 -0.00000000000E+00 -0.45593999997E+02  0.45594000000E+02  0.51100000000E-03 0.  1.
    9900012    2    1    2    0    0  0.21348795868E+02 -0.34104572875E+02 -0.58542754024E+01  0.50528861833E+02  0.30000006027E+02 0.  0.
         12    1    1    2    0    0 -0.21348795868E+02  0.34104572875E+02  0.58542754024E+01  0.40659138167E+02  0.00000000000E+00 0. -1.
         11    1    3    3    0    0  0.17820094876E+02 -0.36555147487E+02 -0.18490783970E+01  0.40709380742E+02  0.51100000000E-03 0.  1.
        -11    1    3    3    0    0  0.12706884985E+01 -0.45986086187E-02 -0.58645408675E+01  0.60006258220E+01  0.51100000000E-03 0. -1.
        -12    1    3    3    0    0  0.22580124939E+01  0.24551732210E+01  0.18593438622E+01  0.38188552690E+01  0.00000000000E+00 0.  1.
</event>
<event>
 7    1  0.5748623E-013  0.5052886E+02  0.7816164E-02  0.1300439E+00
        -11   -1    0    0    0    0  0.00000000000E+00  0.00000000000E+00  0.45593999997E+02  0.45594000000E+02  0.51100000000E-03 0.  1.
         11   -1    0    0    0    0 -0.00000000000E+00 -0.00000000000E+00 -0.45593999997E+02  0.45594000000E+02  0.51100000000E-03 0. -1.
    9900012    2    1    2    0    0  0.22548901876E+02 -0.13282799243E+02  0.31117191045E+02  0.50528864371E+02  0.30000013743E+02 0.  0.
         12    1    1    2    0    0 -0.22548901876E+02  0.13282799243E+02 -0.31117191045E+02  0.40659135629E+02  0.00000000000E+00 0. -1.
         11    1    3    3    0    0  0.59914702561E+01 -0.73932952848E+01 -0.20302229896E+01  0.97303821428E+01  0.51100000000E-03 0. -1.
        -11    1    3    3    0    0  0.14706571186E+02 -0.20181194645E+01  0.33348053179E+02  0.36502721724E+02  0.51100000000E-03 0.  1.
        -12    1    3    3    0    0  0.18508604341E+01 -0.38713844937E+01 -0.20063914415E+00  0.42957605043E+01  0.00000000000E+00 0.  1.
</event>
<event>
 7    1  0.5748623E-013  0.5052886E+02  0.7816164E-02  0.1300439E+00
        -11   -1    0    0    0    0  0.00000000000E+00  0.00000000000E+00  0.45593999997E+02  0.45594000000E+02  0.51100000000E-03 0. -1.
         11   -1    0    0    0    0 -0.00000000000E+00 -0.00000000000E+00 -0.45593999997E+02  0.45594000000E+02  0.51100000000E-03 0.  1.
    9900012    2    1    2    0    0 -0.38116888051E+02  0.13700913989E+02  0.35430600996E+01  0.50528862359E+02  0.30000007627E+02 0.  0.
         12    1    1    2    0    0  0.38116888051E+02 -0.13700913989E+02 -0.35430600996E+01  0.40659137641E+02  0.00000000000E+00 0. -1.
         11    1    3    3    0    0 -0.57355374711E+01  0.27792639265E+01  0.18604554150E+01  0.66394271340E+01  0.51100000000E-03 0. -1.
        -11    1    3    3    0    0 -0.24701902415E+02 -0.26217026975E+01  0.93408106617E+01  0.26538802761E+02  0.51100000000E-03 0.  1.
        -12    1    3    3    0    0 -0.76794481654E+01  0.13543352760E+02 -0.76582059771E+01  0.17350632464E+02  0.00000000000E+00 0.  1.
</event>
<event>
 7    1  0.5748623E-013  0.5052886E+02  0.7816164E-02  0.1300439E+00
        -11   -1    0    0    0    0  0.00000000000E+00  0.00000000000E+00  0.45593999997E+02  0.45594000000E+02  0.51100000000E-03 0.  1.
         11   -1    0    0    0    0 -0.00000000000E+00 -0.00000000000E+00 -0.45593999997E+02  0.45594000000E+02  0.51100000000E-03 0. -1.
    9900012    2    1    2    0    0  0.31553652276E+02 -0.13961056363E+00  0.25642012879E+02  0.50528864648E+02  0.30000014584E+02 0.  0.
         12    1    1    2    0    0 -0.31553652276E+02  0.13961056363E+00 -0.25642012879E+02  0.40659135352E+02  0.00000000000E+00 0. -1.
         11    1    3    3    0    0  0.21689885592E+02  0.71448679000E+01  0.50777889001E+01  0.23394106409E+02  0.51100000000E-03 0. -1.
        -11    1    3    3    0    0  0.12925990306E+02 -0.50726656099E+01  0.15390112921E+02  0.20728452373E+02  0.51100000000E-03 0.  1.
         12    1    3    3    0    0 -0.30622236220E+01 -0.22118128537E+01  0.51741110575E+01  0.64063058659E+01  0.00000000000E+00 0. -1.
</event>
<event>
 7    1  0.5748623E-013  0.5052886E+02  0.7816164E-02  0.1300439E+00
        -11   -1    0    0    0    0  0.00000000000E+00  0.00000000000E+00  0.45593999997E+02  0.45594000000E+02  0.51100000000E-03 0.  1.
         11   -1    0    0    0    0 -0.00000000000E+00 -0.00000000000E+00 -0.45593999997E+02  0.45594000000E+02  0.51100000000E-03 0. -1.
    9900012    2    1    2    0    0  0.40598413110E+02 -0.18853897682E+01  0.11746719503E+01  0.50528859627E+02  0.29999999323E+02 0.  0.
         12    1    1    2    0    0 -0.40598413110E+02  0.18853897682E+01 -0.11746719503E+01  0.40659140373E+02  0.00000000000E+00 0. -1.
         11    1    3    3    0    0  0.70698882186E+01 -0.12174707774E+02 -0.45673328489E+01  0.14800924242E+02  0.51100000000E-03 0. -1.
        -11    1    3    3    0    0  0.11014025743E+02  0.31099988766E+01  0.36098561626E+01  0.12000496567E+02  0.51100000000E-03 0.  1.
         12    1    3    3    0    0  0.22514499149E+02  0.71793191287E+01  0.21321486367E+01  0.23727438819E+02  0.00000000000E+00 0. -1.
</event>
<event>
 7    1  0.5748623E-013  0.5052891E+02  0.7816164E-02  0.1300439E+00
        -11   -1    0    0    0    0  0.00000000000E+00  0.00000000000E+00  0.45593999997E+02  0.45594000000E+02  0.51100000000E-03 0.  1.
         11   -1    0    0    0    0 -0.00000000000E+00 -0.00000000000E+00 -0.45593999997E+02  0.45594000000E+02  0.51100000000E-03 0. -1.
    9900012    2    1    2    0    0 -0.10119351649E+01 -0.37531601439E+02  0.15605020679E+02  0.50528907663E+02  0.30000145331E+02 0.  0.
         12    1    1    2    0    0  0.10119351649E+01  0.37531601439E+02 -0.15605020679E+02  0.40659092337E+02  0.00000000000E+00 0. -1.
         11    1    3    3    0    0  0.29049503619E+01  0.12217417911E+01  0.62764196903E+00  0.32133042669E+01  0.51100000000E-03 0. -1.
        -11    1    3    3    0    0  0.40508636443E+01 -0.36205196562E+02  0.13305917436E+02  0.38784960918E+02  0.51100000000E-03 0.  1.
        -12    1    3    3    0    0 -0.79677491711E+01 -0.25481466682E+01  0.16714612735E+01  0.85306424778E+01  0.00000000000E+00 0.  1.
</event>
<event>
 7    1  0.5748623E-013  0.5052886E+02  0.7816164E-02  0.1300439E+00
        -11   -1    0    0    0    0  0.00000000000E+00  0.00000000000E+00  0.45593999997E+02  0.45594000000E+02  0.51100000000E-03 0.  1.
         11   -1    0    0    0    0 -0.00000000000E+00 -0.00000000000E+00 -0.45593999997E+02  0.45594000000E+02  0.51100000000E-03 0. -1.
    9900012    2    1    2    0    0  0.31035672715E+02  0.21784600943E+02  0.14675957550E+02  0.50528861431E+02  0.30000004806E+02 0.  0.
         12    1    1    2    0    0 -0.31035672715E+02 -0.21784600943E+02 -0.14675957550E+02  0.40659138569E+02  0.00000000000E+00 0. -1.
         11    1    3    3    0    0  0.13564574679E+02  0.32237856876E+01 -0.61715036130E+01  0.15247227207E+02  0.51100000000E-03 0. -1.
        -11    1    3    3    0    0  0.12520626191E+02  0.19196107902E+02  0.14170797459E+02  0.26945651592E+02  0.51100000000E-03 0.  1.
         12    1    3    3    0    0  0.49504718454E+01 -0.63529264684E+00  0.66766637039E+01  0.83359826328E+01  0.00000000000E+00 0. -1.
</event>
<event>
 7    1  0.5748623E-013  0.5052886E+02  0.7816164E-02  0.1300439E+00
        -11   -1    0    0    0    0  0.00000000000E+00  0.00000000000E+00  0.45593999997E+02  0.45594000000E+02  0.51100000000E-03 0.  1.
         11   -1    0    0    0    0 -0.00000000000E+00 -0.00000000000E+00 -0.45593999997E+02  0.45594000000E+02  0.51100000000E-03 0. -1.
    9900012    2    1    2    0    0  0.40579829269E+02 -0.22926060895E+01 -0.10896593124E+01  0.50528856581E+02  0.29999990063E+02 0.  0.
         12    1    1    2    0    0 -0.40579829269E+02  0.22926060895E+01  0.10896593124E+01  0.40659143419E+02  0.00000000000E+00 0. -1.
         11    1    3    3    0    0 -0.19070914107E-01  0.46043944711E+01  0.15083943892E+01  0.48452106290E+01  0.51100000000E-03 0. -1.
        -11    1    3    3    0    0  0.31878754854E+02 -0.85294076407E+01 -0.96151790425E+01  0.34372335882E+02  0.51100000000E-03 0.  1.
        -12    1    3    3    0    0  0.87201453292E+01  0.16324070801E+01  0.70171253410E+01  0.11311310070E+02  0.00000000000E+00 0.  1.
</event>
<event>
 7    1  0.5748623E-013  0.5052888E+02  0.7816164E-02  0.1300439E+00
        -11   -1    0    0    0    0  0.00000000000E+00  0.00000000000E+00  0.45593999997E+02  0.45594000000E+02  0.51100000000E-03 0.  1.
         11   -1    0    0    0    0 -0.00000000000E+00 -0.00000000000E+00 -0.45593999997E+02  0.45594000000E+02  0.51100000000E-03 0. -1.
    9900012    2    1    2    0    0 -0.33591854439E+02 -0.10897432520E+02  0.20149382915E+02  0.50528876153E+02  0.30000049554E+02 0.  0.
         12    1    1    2    0    0  0.33591854439E+02  0.10897432520E+02 -0.20149382915E+02  0.40659123847E+02  0.00000000000E+00 0. -1.
         11    1    3    3    0    0 -0.29944608457E+00 -0.12997753508E+01  0.46508136577E+01  0.48383005136E+01  0.51100000000E-03 0. -1.
        -11    1    3    3    0    0 -0.21153802814E+02  0.68933127083E+01  0.55779426496E+01  0.22937187666E+02  0.51100000000E-03 0.  1.
        -12    1    3    3    0    0 -0.12138605541E+02 -0.16490969877E+02  0.99206266073E+01  0.22753387973E+02  0.00000000000E+00 0.  1.
</event>
<event>
 7    1  0.5748623E-013  0.5052886E+02  0.7816164E-02  0.1300439E+00
        -11   -1    0    0    0    0  0.00000000000E+00  0.00000000000E+00  0.45593999997E+02  0.45594000000E+02  0.51100000000E-03 0. -1.
         11   -1    0    0    0    0 -0.00000000000E+00 -0.00000000000E+00 -0.45593999997E+02  0.45594000000E+02  0.51100000000E-03 0.  1.
    9900012    2    1    2    0    0  0.37454886305E+02  0.13625800405E+02  0.80395683620E+01  0.50528860754E+02  0.30000002747E+02 0.  0.
         12    1    1    2    0    0 -0.37454886305E+02 -0.13625800405E+02 -0.80395683620E+01  0.40659139246E+02  0.00000000000E+00 0. -1.
         11    1    3    3    0    0  0.17786700159E+02 -0.78570216937E+01  0.24480414544E+01  0.19598275426E+02  0.51100000000E-03 0. -1.
        -11    1    3    3    0    0  0.14670379193E+02  0.11535105477E+02  0.64979624188E+01  0.19761128507E+02  0.51100000000E-03 0.  1.
         12    1    3    3    0    0  0.49978069533E+01  0.99477166217E+01 -0.90643551126E+00  0.11169456820E+02  0.00000000000E+00 0. -1.
</event>
<event>
 7    1  0.5748623E-013  0.5052879E+02  0.7816164E-02  0.1300439E+00
        -11   -1    0    0    0    0  0.00000000000E+00  0.00000000000E+00  0.45593999997E+02  0.45594000000E+02  0.51100000000E-03 0.  1.
         11   -1    0    0    0    0 -0.00000000000E+00 -0.00000000000E+00 -0.45593999997E+02  0.45594000000E+02  0.51100000000E-03 0. -1.
    9900012    2    1    2    0    0  0.20794838839E+02 -0.17321566138E+02  0.30343194040E+02  0.50528789476E+02  0.29999786092E+02 0.  0.
         12    1    1    2    0    0 -0.20794838839E+02  0.17321566138E+02 -0.30343194040E+02  0.40659210524E+02  0.00000000000E+00 0. -1.
         11    1    3    3    0    0 -0.70704316671E+00 -0.13312601755E+01  0.66812834147E+00  0.16488054573E+01  0.51100000000E-03 0. -1.
        -11    1    3    3    0    0  0.21191962444E+01 -0.14900331680E+02  0.24559206224E+02  0.28803914448E+02  0.51100000000E-03 0.  1.
        -12    1    3    3    0    0  0.19382685761E+02 -0.10899742823E+01  0.51158594750E+01  0.20076069571E+02  0.00000000000E+00 0.  1.
</event>
<event>
 7    1  0.5748623E-013  0.5052885E+02  0.7816164E-02  0.1300439E+00
        -11   -1    0    0    0    0  0.00000000000E+00  0.00000000000E+00  0.45593999997E+02  0.45594000000E+02  0.51100000000E-03 0.  1.
         11   -1    0    0    0    0 -0.00000000000E+00 -0.00000000000E+00 -0.45593999997E+02  0.45594000000E+02  0.51100000000E-03 0. -1.
    9900012    2    1    2    0    0  0.16342343988E+02  0.30340336889E+02 -0.21576806639E+02  0.50528845627E+02  0.29999956768E+02 0.  0.
         12    1    1    2    0    0 -0.16342343988E+02 -0.30340336889E+02  0.21576806639E+02  0.40659154373E+02  0.00000000000E+00 0. -1.
         11    1    3    3    0    0  0.63400776526E+01  0.55963571669E+01 -0.94898523884E+01  0.12711140657E+02  0.51100000000E-03 0. -1.
        -11    1    3    3    0    0  0.72602460744E+01  0.28324133066E+02 -0.53722923896E+01  0.29729265258E+02  0.51100000000E-03 0.  1.
        -12    1    3    3    0    0  0.27420202610E+01 -0.35801533437E+01 -0.67146618606E+01  0.80884397122E+01  0.00000000000E+00 0.  1.
</event>
<event>
 7    1  0.5748623E-013  0.5052885E+02  0.7816164E-02  0.1300439E+00
        -11   -1    0    0    0    0  0.00000000000E+00  0.00000000000E+00  0.45593999997E+02  0.45594000000E+02  0.51100000000E-03 0.  1.
         11   -1    0    0    0    0 -0.00000000000E+00 -0.00000000000E+00 -0.45593999997E+02  0.45594000000E+02  0.51100000000E-03 0. -1.
    9900012    2    1    2    0    0 -0.37303096791E+01  0.18649025302E+01  0.40444694473E+02  0.50528851180E+02  0.29999973646E+02 0.  0.
         12    1    1    2    0    0  0.37303096791E+01 -0.18649025302E+01 -0.40444694473E+02  0.40659148820E+02  0.00000000000E+00 0. -1.
         11    1    3    3    0    0  0.25635076343E-01  0.30282257480E-01  0.31657044303E+02  0.31657069170E+02  0.51100000000E-03 0.  1.
        -11    1    3    3    0    0  0.47603482855E+01  0.15388555162E+01 -0.17676998164E+01  0.53060112138E+01  0.51100000000E-03 0. -1.
         12    1    3    3    0    0 -0.85162930409E+01  0.29576475655E+00  0.10555349987E+02  0.13565770796E+02  0.00000000000E+00 0. -1.
</event>
<event>
 7    1  0.5748623E-013  0.5052883E+02  0.7816164E-02  0.1300439E+00
        -11   -1    0    0    0    0  0.00000000000E+00  0.00000000000E+00  0.45593999997E+02  0.45594000000E+02  0.51100000000E-03 0.  1.
         11   -1    0    0    0    0 -0.00000000000E+00 -0.00000000000E+00 -0.45593999997E+02  0.45594000000E+02  0.51100000000E-03 0. -1.
    9900012    2    1    2    0    0  0.33913754532E+02 -0.48397016676E+01  0.21899828766E+02  0.50528831800E+02  0.29999914741E+02 0.  0.
         12    1    1    2    0    0 -0.33913754532E+02  0.48397016676E+01 -0.21899828766E+02  0.40659168200E+02  0.00000000000E+00 0. -1.
         11    1    3    3    0    0 -0.84825260818E+00 -0.14194300237E+01  0.75605366603E+00  0.18182220675E+01  0.51100000000E-03 0. -1.
        -11    1    3    3    0    0  0.23430557581E+01  0.71261251484E+01 -0.16764692931E+01  0.76864894112E+01  0.51100000000E-03 0.  1.
        -12    1    3    3    0    0  0.32418951382E+02 -0.10546396792E+02  0.22820244393E+02  0.41024120322E+02  0.00000000000E+00 0.  1.
</event>
<event>
 7    1  0.5748623E-013  0.5052885E+02  0.7816164E-02  0.1300439E+00
        -11   -1    0    0    0    0  0.00000000000E+00  0.00000000000E+00  0.45593999997E+02  0.45594000000E+02  0.51100000000E-03 0.  1.
         11   -1    0    0    0    0 -0.00000000000E+00 -0.00000000000E+00 -0.45593999997E+02  0.45594000000E+02  0.51100000000E-03 0. -1.
    9900012    2    1    2    0    0 -0.18043245056E+02 -0.33369235720E+02  0.14632229438E+02  0.50528846996E+02  0.29999960928E+02 0.  0.
         12    1    1    2    0    0  0.18043245056E+02  0.33369235720E+02 -0.14632229438E+02  0.40659153004E+02  0.00000000000E+00 0. -1.
         11    1    3    3    0    0 -0.10148274520E+02 -0.20747003577E+02 -0.14347484915E+01  0.23140530172E+02  0.51100000000E-03 0. -1.
        -11    1    3    3    0    0 -0.90006105499E+01 -0.13047425639E+02  0.18692293441E+02  0.24508123968E+02  0.51100000000E-03 0.  1.
        -12    1    3    3    0    0  0.11056400141E+01  0.42519349604E+00 -0.26253155116E+01  0.28801928556E+01  0.00000000000E+00 0.  1.
</event>
<event>
 7    1  0.5748623E-013  0.5052886E+02  0.7816164E-02  0.1300439E+00
        -11   -1    0    0    0    0  0.00000000000E+00  0.00000000000E+00  0.45593999997E+02  0.45594000000E+02  0.51100000000E-03 0.  1.
         11   -1    0    0    0    0 -0.00000000000E+00 -0.00000000000E+00 -0.45593999997E+02  0.45594000000E+02  0.51100000000E-03 0. -1.
    9900012    2    1    2    0    0  0.71004764244E+01 -0.46208684754E+01  0.39766779681E+02  0.50528856415E+02  0.29999989558E+02 0.  0.
         12    1    1    2    0    0 -0.71004764244E+01  0.46208684754E+01 -0.39766779681E+02  0.40659143585E+02  0.00000000000E+00 0. -1.
         11    1    3    3    0    0  0.73275809124E+01  0.41923123147E+00  0.42958096190E+01  0.85043034634E+01  0.51100000000E-03 0. -1.
        -11    1    3    3    0    0 -0.94326378379E+01 -0.78464053925E+01  0.14810115449E+02  0.19232271162E+02  0.51100000000E-03 0.  1.
        -12    1    3    3    0    0  0.92055333499E+01  0.28063056857E+01  0.20660854612E+02  0.22792281789E+02  0.00000000000E+00 0.  1.
</event>
<event>
 7    1  0.5748623E-013  0.5052886E+02  0.7816164E-02  0.1300439E+00
        -11   -1    0    0    0    0  0.00000000000E+00  0.00000000000E+00  0.45593999997E+02  0.45594000000E+02  0.51100000000E-03 0.  1.
         11   -1    0    0    0    0 -0.00000000000E+00 -0.00000000000E+00 -0.45593999997E+02  0.45594000000E+02  0.51100000000E-03 0. -1.
    9900012    2    1    2    0    0 -0.29089839156E+02 -0.20645869749E+02  0.19511406632E+02  0.50528859962E+02  0.30000000340E+02 0.  0.
         12    1    1    2    0    0  0.29089839156E+02  0.20645869749E+02 -0.19511406632E+02  0.40659140038E+02  0.00000000000E+00 0. -1.
         11    1    3    3    0    0 -0.31310716922E+00  0.16572464807E+00 -0.56386168625E+01  0.56497346081E+01  0.51100000000E-03 0. -1.
        -11    1    3    3    0    0 -0.23677798019E+02 -0.17321844179E+02  0.25238507782E+02  0.38699698708E+02  0.51100000000E-03 0.  1.
         12    1    3    3    0    0 -0.50989339682E+01 -0.34897502187E+01 -0.88484287015E-01  0.61794266457E+01  0.00000000000E+00 0. -1.
</event>
<event>
 7    1  0.5748623E-013  0.5052883E+02  0.7816164E-02  0.1300439E+00
        -11   -1    0    0    0    0  0.00000000000E+00  0.00000000000E+00  0.45593999997E+02  0.45594000000E+02  0.51100000000E-03 0. -1.
         11   -1    0    0    0    0 -0.00000000000E+00 -0.00000000000E+00 -0.45593999997E+02  0.45594000000E+02  0.51100000000E-03 0.  1.
    9900012    2    1    2    0    0  0.18530257972E+02  0.28760446729E+02 -0.21968942039E+02  0.50528829191E+02  0.29999906809E+02 0.  0.
         12    1    1    2    0    0 -0.18530257972E+02 -0.28760446729E+02  0.21968942039E+02  0.40659170809E+02  0.00000000000E+00 0. -1.
         11    1    3    3    0    0  0.68385895124E+01 -0.36063918421E+00 -0.99804159173E+01  0.12103927845E+02  0.51100000000E-03 0. -1.
        -11    1    3    3    0    0  0.21010975770E+01  0.18511226859E+02 -0.14868297472E+02  0.23835821799E+02  0.51100000000E-03 0.  1.
         12    1    3    3    0    0  0.95905708827E+01  0.10609859054E+02  0.28797713500E+01  0.14589079547E+02  0.00000000000E+00 0. -1.
</event>
<event>
 7    1  0.5748623E-013  0.5052887E+02  0.7816164E-02  0.1300439E+00
        -11   -1    0    0    0    0  0.00000000000E+00  0.00000000000E+00  0.45593999997E+02  0.45594000000E+02  0.51100000000E-03 0.  1.
         11   -1    0    0    0    0 -0.00000000000E+00 -0.00000000000E+00 -0.45593999997E+02  0.45594000000E+02  0.51100000000E-03 0. -1.
    9900012    2    1    2    0    0 -0.42964228999E+01 -0.11325057342E+02  0.38812999461E+02  0.50528866946E+02  0.30000021570E+02 0.  0.
         12    1    1    2    0    0  0.42964228999E+01  0.11325057342E+02 -0.38812999461E+02  0.40659133054E+02  0.00000000000E+00 0. -1.
         11    1    3    3    0    0 -0.74235337293E+01  0.47169768196E+00 -0.40988490932E+00  0.74497891000E+01  0.51100000000E-03 0. -1.
        -11    1    3    3    0    0 -0.75055806794E+00  0.13365756096E+01  0.16339939685E+02  0.16411684890E+02  0.51100000000E-03 0.  1.
         12    1    3    3    0    0  0.38776688974E+01 -0.13133330633E+02  0.22882944686E+02  0.26667392956E+02  0.00000000000E+00 0. -1.
</event>
<event>
 7    1  0.5748623E-013  0.5052892E+02  0.7816164E-02  0.1300439E+00
        -11   -1    0    0    0    0  0.00000000000E+00  0.00000000000E+00  0.45593999997E+02  0.45594000000E+02  0.51100000000E-03 0. -1.
         11   -1    0    0    0    0 -0.00000000000E+00 -0.00000000000E+00 -0.45593999997E+02  0.45594000000E+02  0.51100000000E-03 0.  1.
    9900012    2    1    2    0    0  0.38279645152E+02  0.11477135592E+02 -0.74903131624E+01  0.50528921486E+02  0.30000187348E+02 0.  0.
         12    1    1    2    0    0 -0.38279645152E+02 -0.11477135592E+02  0.74903131624E+01  0.40659078514E+02  0.00000000000E+00 0. -1.
         11    1    3    3    0    0  0.31845643358E+02  0.15302667110E+02 -0.14906637818E+02  0.38347418073E+02  0.51100000000E-03 0. -1.
        -11    1    3    3    0    0  0.55080248996E+01 -0.34722864344E+01  0.22013821722E+01  0.68732230508E+01  0.51100000000E-03 0.  1.
         12    1    3    3    0    0  0.92597689447E+00 -0.35324508371E+00  0.52149424835E+01  0.53082803623E+01  0.00000000000E+00 0. -1.
</event>
<event>
 7    1  0.5748623E-013  0.5052887E+02  0.7816164E-02  0.1300439E+00
        -11   -1    0    0    0    0  0.00000000000E+00  0.00000000000E+00  0.45593999997E+02  0.45594000000E+02  0.51100000000E-03 0.  1.
         11   -1    0    0    0    0 -0.00000000000E+00 -0.00000000000E+00 -0.45593999997E+02  0.45594000000E+02  0.51100000000E-03 0. -1.
    9900012    2    1    2    0    0  0.38064064346E+02  0.10699372948E+02  0.94771082071E+01  0.50528866267E+02  0.30000019504E+02 0.  0.
         12    1    1    2    0    0 -0.38064064346E+02 -0.10699372948E+02 -0.94771082071E+01  0.40659133733E+02  0.00000000000E+00 0. -1.
         11    1    3    3    0    0  0.11690721095E+01 -0.34653429391E+01  0.88463969531E+01  0.95725686519E+01  0.51100000000E-03 0. -1.
        -11    1    3    3    0    0  0.20087882831E+02  0.20207798392E+01  0.10523416976E+01  0.20216676559E+02  0.51100000000E-03 0.  1.
         12    1    3    3    0    0  0.16807109405E+02  0.12143936048E+02 -0.42163044356E+00  0.20739621056E+02  0.00000000000E+00 0. -1.
</event>
<event>
 7    1  0.5748623E-013  0.5052886E+02  0.7816164E-02  0.1300439E+00
        -11   -1    0    0    0    0  0.00000000000E+00  0.00000000000E+00  0.45593999997E+02  0.45594000000E+02  0.51100000000E-03 0.  1.
         11   -1    0    0    0    0 -0.00000000000E+00 -0.00000000000E+00 -0.45593999997E+02  0.45594000000E+02  0.51100000000E-03 0. -1.
    9900012    2    1    2    0    0 -0.58059757661E+00  0.26472333315E+02  0.30855211230E+02  0.50528860994E+02  0.30000003476E+02 0.  0.
         12    1    1    2    0    0  0.58059757661E+00 -0.26472333315E+02 -0.30855211230E+02  0.40659139006E+02  0.00000000000E+00 0. -1.
         11    1    3    3    0    0 -0.12543280036E+02  0.98331845677E+01  0.15299815933E+02  0.22093206210E+02  0.51100000000E-03 0. -1.
        -11    1    3    3    0    0  0.47248765938E+01  0.15169839841E+02  0.13279978128E+02  0.20707639145E+02  0.51100000000E-03 0.  1.
         12    1    3    3    0    0  0.72378058655E+01  0.14693089065E+01  0.22754171684E+01  0.77280156379E+01  0.00000000000E+00 0. -1.
</event>
<event>
 7    1  0.5748623E-013  0.5052886E+02  0.7816164E-02  0.1300439E+00
        -11   -1    0    0    0    0  0.00000000000E+00  0.00000000000E+00  0.45593999997E+02  0.45594000000E+02  0.51100000000E-03 0. -1.
         11   -1    0    0    0    0 -0.00000000000E+00 -0.00000000000E+00 -0.45593999997E+02  0.45594000000E+02  0.51100000000E-03 0.  1.
    9900012    2    1    2    0    0  0.29029671696E+02  0.24433119580E+02 -0.14610480561E+02  0.50528864331E+02  0.30000013619E+02 0.  0.
         12    1    1    2    0    0 -0.29029671696E+02 -0.24433119580E+02  0.14610480561E+02  0.40659135669E+02  0.00000000000E+00 0. -1.
         11    1    3    3    0    0  0.10392442814E+02  0.11312980457E+02 -0.17972851179E+02  0.23643387537E+02  0.51100000000E-03 0. -1.
        -11    1    3    3    0    0  0.19676665577E+02  0.78165163538E+01  0.17450949789E+01  0.21244162796E+02  0.51100000000E-03 0.  1.
        -12    1    3    3    0    0 -0.10394366953E+01  0.53036227694E+01  0.16172756399E+01  0.56413139975E+01  0.00000000000E+00 0.  1.
</event>
<event>
 7    1  0.5748623E-013  0.5052887E+02  0.7816164E-02  0.1300439E+00
        -11   -1    0    0    0    0  0.00000000000E+00  0.00000000000E+00  0.45593999997E+02  0.45594000000E+02  0.51100000000E-03 0.  1.
         11   -1    0    0    0    0 -0.00000000000E+00 -0.00000000000E+00 -0.45593999997E+02  0.45594000000E+02  0.51100000000E-03 0. -1.
    9900012    2    1    2    0    0  0.16891932187E+01 -0.21778017202E+02  0.34293279850E+02  0.50528874950E+02  0.30000045897E+02 0.  0.
         12    1    1    2    0    0 -0.16891932187E+01  0.21778017202E+02 -0.34293279850E+02  0.40659125050E+02  0.00000000000E+00 0. -1.
         11    1    3    3    0    0 -0.93134891130E+01 -0.46334125848E+00  0.17113779192E+02  0.19489412589E+02  0.51100000000E-03 0. -1.
        -11    1    3    3    0    0 -0.67400645468E+00 -0.81523108083E+01  0.43604369326E+01  0.92697285138E+01  0.51100000000E-03 0.  1.
         12    1    3    3    0    0  0.11676688786E+02 -0.13162365135E+02  0.12819063726E+02  0.21769733847E+02  0.00000000000E+00 0. -1.
</event>
<event>
 7    1  0.5748623E-013  0.5052885E+02  0.7816164E-02  0.1300439E+00
        -11   -1    0    0    0    0  0.00000000000E+00  0.00000000000E+00  0.45593999997E+02  0.45594000000E+02  0.51100000000E-03 0.  1.
         11   -1    0    0    0    0 -0.00000000000E+00 -0.00000000000E+00 -0.45593999997E+02  0.45594000000E+02  0.51100000000E-03 0. -1.
    9900012    2    1    2    0    0  0.10909705854E+02 -0.19844138164E+02  0.33769139587E+02  0.50528852324E+02  0.29999977125E+02 0.  0.
         12    1    1    2    0    0 -0.10909705854E+02  0.19844138164E+02 -0.33769139587E+02  0.40659147676E+02  0.00000000000E+00 0. -1.
         11    1    3    3    0    0  0.72847981014E+00 -0.12664127230E+01 -0.20952944005E+01  0.25543576305E+01  0.51100000000E-03 0. -1.
        -11    1    3    3    0    0  0.12383474623E+02 -0.22807449712E+02  0.24671274199E+02  0.35807847980E+02  0.51100000000E-03 0.  1.
        -12    1    3    3    0    0 -0.22022485797E+01  0.42297242707E+01  0.11193159788E+02  0.12166646714E+02  0.00000000000E+00 0.  1.
</event>
<event>
 7    1  0.5748623E-013  0.5052885E+02  0.7816164E-02  0.1300439E+00
        -11   -1    0    0    0    0  0.00000000000E+00  0.00000000000E+00  0.45593999997E+02  0.45594000000E+02  0.51100000000E-03 0.  1.
         11   -1    0    0    0    0 -0.00000000000E+00 -0.00000000000E+00 -0.45593999997E+02  0.45594000000E+02  0.51100000000E-03 0. -1.
    9900012    2    1    2    0    0 -0.21822057588E+00  0.64958348812E+01  0.40136302415E+02  0.50528852658E+02  0.29999978138E+02 0.  0.
         12    1    1    2    0    0  0.21822057588E+00 -0.64958348812E+01 -0.40136302415E+02  0.40659147342E+02  0.00000000000E+00 0. -1.
         11    1    3    3    0    0  0.49845218388E+01  0.10090321119E+02  0.72927677857E+01  0.13410611488E+02  0.51100000000E-03 0. -1.
        -11    1    3    3    0    0 -0.86583672816E+01  0.35043324961E+01  0.19298675091E+02  0.21440301555E+02  0.51100000000E-03 0.  1.
         12    1    3    3    0    0  0.34556248669E+01 -0.70988187340E+01  0.13544859539E+02  0.15677939615E+02  0.00000000000E+00 0. -1.
</event>
<event>
 7    1  0.5748623E-013  0.5052885E+02  0.7816164E-02  0.1300439E+00
        -11   -1    0    0    0    0  0.00000000000E+00  0.00000000000E+00  0.45593999997E+02  0.45594000000E+02  0.51100000000E-03 0.  1.
         11   -1    0    0    0    0 -0.00000000000E+00 -0.00000000000E+00 -0.45593999997E+02  0.45594000000E+02  0.51100000000E-03 0. -1.
    9900012    2    1    2    0    0 -0.31689693779E+01 -0.15122487284E+02  0.37608962910E+02  0.50528854907E+02  0.29999984974E+02 0.  0.
         12    1    1    2    0    0  0.31689693779E+01  0.15122487284E+02 -0.37608962910E+02  0.40659145093E+02  0.00000000000E+00 0. -1.
         11    1    3    3    0    0 -0.82126618852E+00  0.38289799248E+01 -0.18192293627E+01  0.43180043020E+01  0.51100000000E-03 0. -1.
        -11    1    3    3    0    0 -0.20935497866E+01 -0.21458688159E+02  0.34692847300E+02  0.40846687776E+02  0.51100000000E-03 0.  1.
        -12    1    3    3    0    0 -0.25415340274E+00  0.25072209504E+01  0.47353449724E+01  0.53641628288E+01  0.00000000000E+00 0.  1.
</event>
<event>
 7    1  0.5748623E-013  0.5052886E+02  0.7816164E-02  0.1300439E+00
        -11   -1    0    0    0    0  0.00000000000E+00  0.00000000000E+00  0.45593999997E+02  0.45594000000E+02  0.51100000000E-03 0.  1.
         11   -1    0    0    0    0 -0.00000000000E+00 -0.00000000000E+00 -0.45593999997E+02  0.45594000000E+02  0.51100000000E-03 0. -1.
    9900012    2    1    2    0    0  0.28344753702E+02 -0.16769798113E+02  0.23843543864E+02  0.50528858651E+02  0.29999996357E+02 0.  0.
         12    1    1    2    0    0 -0.28344753702E+02  0.16769798113E+02 -0.23843543864E+02  0.40659141349E+02  0.00000000000E+00 0. -1.
         11    1    3    3    0    0  0.23926671089E+02 -0.81291030527E+01  0.46675529240E+01  0.25697353101E+02  0.51100000000E-03 0. -1.
        -11    1    3    3    0    0  0.81322064057E+01 -0.23906271802E+01  0.11075264433E+02  0.13946661316E+02  0.51100000000E-03 0.  1.
         12    1    3    3    0    0 -0.37141237928E+01 -0.62500678800E+01  0.81007265077E+01  0.10884844234E+02  0.00000000000E+00 0. -1.
</event>
<event>
 7    1  0.5748623E-013  0.5052886E+02  0.7816164E-02  0.1300439E+00
        -11   -1    0    0    0    0  0.00000000000E+00  0.00000000000E+00  0.45593999997E+02  0.45594000000E+02  0.51100000000E-03 0. -1.
         11   -1    0    0    0    0 -0.00000000000E+00 -0.00000000000E+00 -0.45593999997E+02  0.45594000000E+02  0.51100000000E-03 0.  1.
    9900012    2    1    2    0    0  0.29690410748E+02  0.27291980527E+02  0.51762149120E+01  0.50528857212E+02  0.29999991982E+02 0.  0.
         12    1    1    2    0    0 -0.29690410748E+02 -0.27291980527E+02 -0.51762149120E+01  0.40659142788E+02  0.00000000000E+00 0. -1.
         11    1    3    3    0    0  0.92541888282E+00  0.23057529074E+01  0.65253692596E+01  0.69823592584E+01  0.51100000000E-03 0. -1.
        -11    1    3    3    0    0  0.18315127789E+02  0.26336906756E+02 -0.48490661650E+01  0.32443643543E+02  0.51100000000E-03 0.  1.
        -12    1    3    3    0    0  0.10449864076E+02 -0.13506791369E+01  0.34999118175E+01  0.11102854411E+02  0.00000000000E+00 0.  1.
</event>
<event>
 7    1  0.5748623E-013  0.5052885E+02  0.7816164E-02  0.1300439E+00
        -11   -1    0    0    0    0  0.00000000000E+00  0.00000000000E+00  0.45593999997E+02  0.45594000000E+02  0.51100000000E-03 0. -1.
         11   -1    0    0    0    0 -0.00000000000E+00 -0.00000000000E+00 -0.45593999997E+02  0.45594000000E+02  0.51100000000E-03 0.  1.
    9900012    2    1    2    0    0  0.15459569320E+02 -0.37430341991E+02  0.36245629481E+01  0.50528852915E+02  0.29999978920E+02 0.  0.
         12    1    1    2    0    0 -0.15459569320E+02  0.37430341991E+02 -0.36245629481E+01  0.40659147085E+02  0.00000000000E+00 0. -1.
         11    1    3    3    0    0 -0.43179086212E+01 -0.25669684565E+02  0.55423257155E+01  0.26613801215E+02  0.51100000000E-03 0. -1.
        -11    1    3    3    0    0  0.39357842680E+01 -0.90595579587E+00 -0.24135074314E+01  0.47049093606E+01  0.51100000000E-03 0.  1.
         12    1    3    3    0    0  0.15841693673E+02 -0.10854701630E+02  0.49574466407E+00  0.19210142339E+02  0.00000000000E+00 0. -1.
</event>
<event>
 7    1  0.5748623E-013  0.5052885E+02  0.7816164E-02  0.1300439E+00
        -11   -1    0    0    0    0  0.00000000000E+00  0.00000000000E+00  0.45593999997E+02  0.45594000000E+02  0.51100000000E-03 0. -1.
         11   -1    0    0    0    0 -0.00000000000E+00 -0.00000000000E+00 -0.45593999997E+02  0.45594000000E+02  0.51100000000E-03 0.  1.
    9900012    2    1    2    0    0  0.26172043324E+02 -0.29906835153E+02 -0.85890454042E+01  0.50528851686E+02  0.29999975186E+02 0.  0.
         12    1    1    2    0    0 -0.26172043324E+02  0.29906835153E+02  0.85890454042E+01  0.40659148314E+02  0.00000000000E+00 0. -1.
         11    1    3    3    0    0  0.48144078819E+01  0.84150287423E+00 -0.61754976092E+00  0.49262580432E+01  0.51100000000E-03 0. -1.
        -11    1    3    3    0    0  0.14265881010E+02 -0.32308792042E+02 -0.69830093416E+00  0.35325076485E+02  0.51100000000E-03 0.  1.
        -12    1    3    3    0    0  0.70917544325E+01  0.15604540149E+01 -0.72731947092E+01  0.10277517158E+02  0.00000000000E+00 0.  1.
</event>
<event>
 7    1  0.5748623E-013  0.5052887E+02  0.7816164E-02  0.1300439E+00
        -11   -1    0    0    0    0  0.00000000000E+00  0.00000000000E+00  0.45593999997E+02  0.45594000000E+02  0.51100000000E-03 0.  1.
         11   -1    0    0    0    0 -0.00000000000E+00 -0.00000000000E+00 -0.45593999997E+02  0.45594000000E+02  0.51100000000E-03 0. -1.
    9900012    2    1    2    0    0 -0.18158691952E+02 -0.36037069662E+02 -0.49756034532E+01  0.50528866796E+02  0.30000021112E+02 0.  0.
         12    1    1    2    0    0  0.18158691952E+02  0.36037069662E+02  0.49756034532E+01  0.40659133204E+02  0.00000000000E+00 0. -1.
         11    1    3    3    0    0  0.64286301277E+01 -0.27934916953E+01  0.98843838703E+00  0.70786928085E+01  0.51100000000E-03 0. -1.
        -11    1    3    3    0    0 -0.23239167457E+02 -0.28141705941E+02 -0.86807505379E+01  0.37514929662E+02  0.51100000000E-03 0.  1.
        -12    1    3    3    0    0 -0.13481546225E+01 -0.51018720250E+01  0.27167086977E+01  0.59352443247E+01  0.00000000000E+00 0.  1.
</event>
<event>
 7    1  0.5748623E-013  0.5052886E+02  0.7816164E-02  0.1300439E+00
        -11   -1    0    0    0    0  0.00000000000E+00  0.00000000000E+00  0.45593999997E+02  0.45594000000E+02  0.51100000000E-03 0.  1.
         11   -1    0    0    0    0 -0.00000000000E+00 -0.00000000000E+00 -0.45593999997E+02  0.45594000000E+02  0.51100000000E-03 0. -1.
    9900012    2    1    2    0    0  0.19827636548E+02 -0.31441146843E+02  0.16476803171E+02  0.50528856765E+02  0.29999990623E+02 0.  0.
         12    1    1    2    0    0 -0.19827636548E+02  0.31441146843E+02 -0.16476803171E+02  0.40659143235E+02  0.00000000000E+00 0. -1.
         11    1    3    3    0    0  0.13026652137E+02 -0.31359667118E+02  0.19576250093E+02  0.39196325793E+02  0.51100000000E-03 0. -1.
        -11    1    3    3    0    0  0.54706760119E+01  0.23601293377E+01  0.13281140773E+01  0.61042930616E+01  0.51100000000E-03 0.  1.
         12    1    3    3    0    0  0.13303083988E+01 -0.24416090624E+01 -0.44275609995E+01  0.52282379110E+01  0.00000000000E+00 0. -1.
</event>
<event>
 7    1  0.5748623E-013  0.5052885E+02  0.7816164E-02  0.1300439E+00
        -11   -1    0    0    0    0  0.00000000000E+00  0.00000000000E+00  0.45593999997E+02  0.45594000000E+02  0.51100000000E-03 0. -1.
         11   -1    0    0    0    0 -0.00000000000E+00 -0.00000000000E+00 -0.45593999997E+02  0.45594000000E+02  0.51100000000E-03 0.  1.
    9900012    2    1    2    0    0  0.61746017920E+01  0.39404107185E+02 -0.78966293555E+01  0.50528854344E+02  0.29999983263E+02 0.  0.
         12    1    1    2    0    0 -0.61746017920E+01 -0.39404107185E+02  0.78966293555E+01  0.40659145656E+02  0.00000000000E+00 0. -1.
         11    1    3    3    0    0  0.75227145948E+01  0.11538245565E+00 -0.68137967494E+00  0.75543912070E+01  0.51100000000E-03 0. -1.
        -11    1    3    3    0    0  0.38605149411E+01  0.35384002793E+02 -0.43384731559E+01  0.35857406193E+02  0.51100000000E-03 0.  1.
        -12    1    3    3    0    0 -0.52086277439E+01  0.39047219361E+01 -0.28767765246E+01  0.71170569441E+01  0.00000000000E+00 0.  1.
</event>
<event>
 7    1  0.5748623E-013  0.5052885E+02  0.7816164E-02  0.1300439E+00
        -11   -1    0    0    0    0  0.00000000000E+00  0.00000000000E+00  0.45593999997E+02  0.45594000000E+02  0.51100000000E-03 0. -1.
         11   -1    0    0    0    0 -0.00000000000E+00 -0.00000000000E+00 -0.45593999997E+02  0.45594000000E+02  0.51100000000E-03 0.  1.
    9900012    2    1    2    0    0 -0.10560486332E+02 -0.19434431760E+02 -0.34116640661E+02  0.50528853681E+02  0.29999981248E+02 0.  0.
         12    1    1    2    0    0  0.10560486332E+02  0.19434431760E+02  0.34116640661E+02  0.40659146319E+02  0.00000000000E+00 0. -1.
         11    1    3    3    0    0 -0.15745521816E+02 -0.60622774055E+01 -0.12579691461E+02  0.21045695572E+02  0.51100000000E-03 0. -1.
        -11    1    3    3    0    0  0.74019561413E+00 -0.10548247870E+02 -0.21780351267E+02  0.24211508095E+02  0.51100000000E-03 0.  1.
         12    1    3    3    0    0  0.44448398695E+01 -0.28239064849E+01  0.24340206645E+00  0.52716500137E+01  0.00000000000E+00 0. -1.
</event>
<event>
 7    1  0.5748623E-013  0.5052886E+02  0.7816164E-02  0.1300439E+00
        -11   -1    0    0    0    0  0.00000000000E+00  0.00000000000E+00  0.45593999997E+02  0.45594000000E+02  0.51100000000E-03 0.  1.
         11   -1    0    0    0    0 -0.00000000000E+00 -0.00000000000E+00 -0.45593999997E+02  0.45594000000E+02  0.51100000000E-03 0. -1.
    9900012    2    1    2    0    0  0.36430035982E+02  0.72921948032E+01  0.16517936878E+02  0.50528857542E+02  0.29999992984E+02 0.  0.
         12    1    1    2    0    0 -0.36430035982E+02 -0.72921948032E+01 -0.16517936878E+02  0.40659142458E+02  0.00000000000E+00 0. -1.
         11    1    3    3    0    0  0.79517934895E-01 -0.44776410063E+01 -0.40152824346E+00  0.44963115189E+01  0.51100000000E-03 0. -1.
        -11    1    3    3    0    0  0.28676011179E+02  0.15388357676E+02  0.75814225355E+01  0.33415462544E+02  0.51100000000E-03 0.  1.
         12    1    3    3    0    0  0.76745068679E+01 -0.36185218666E+01  0.93380425864E+01  0.12617083479E+02  0.00000000000E+00 0. -1.
</event>
<event>
 7    1  0.5748623E-013  0.5052886E+02  0.7816164E-02  0.1300439E+00
        -11   -1    0    0    0    0  0.00000000000E+00  0.00000000000E+00  0.45593999997E+02  0.45594000000E+02  0.51100000000E-03 0. -1.
         11   -1    0    0    0    0 -0.00000000000E+00 -0.00000000000E+00 -0.45593999997E+02  0.45594000000E+02  0.51100000000E-03 0.  1.
    9900012    2    1    2    0    0  0.18207777679E+02 -0.36332170054E+02 -0.12710761044E+01  0.50528863471E+02  0.30000011007E+02 0.  0.
         12    1    1    2    0    0 -0.18207777679E+02  0.36332170054E+02  0.12710761044E+01  0.40659136529E+02  0.00000000000E+00 0. -1.
         11    1    3    3    0    0  0.39670663551E+00  0.21253884775E+01 -0.27345533139E+01  0.34860341970E+01  0.51100000000E-03 0. -1.
        -11    1    3    3    0    0  0.19511344517E+02 -0.36656695058E+02 -0.33176602657E+01  0.41658285218E+02  0.51100000000E-03 0.  1.
        -12    1    3    3    0    0 -0.17002734732E+01 -0.18008634733E+01  0.47811374753E+01  0.53845440560E+01  0.00000000000E+00 0.  1.
</event>
<event>
 7    1  0.5748623E-013  0.5052887E+02  0.7816164E-02  0.1300439E+00
        -11   -1    0    0    0    0  0.00000000000E+00  0.00000000000E+00  0.45593999997E+02  0.45594000000E+02  0.51100000000E-03 0. -1.
         11   -1    0    0    0    0 -0.00000000000E+00 -0.00000000000E+00 -0.45593999997E+02  0.45594000000E+02  0.51100000000E-03 0.  1.
    9900012    2    1    2    0    0  0.22451903427E+00 -0.30448035157E+02 -0.26944979721E+02  0.50528865899E+02  0.30000018386E+02 0.  0.
         12    1    1    2    0    0 -0.22451903427E+00  0.30448035157E+02  0.26944979721E+02  0.40659134101E+02  0.00000000000E+00 0. -1.
         11    1    3    3    0    0 -0.15792537461E+01  0.11894970906E+01  0.56977723336E-01  0.19779262992E+01  0.51100000000E-03 0. -1.
        -11    1    3    3    0    0  0.57978517353E+01 -0.28233552105E+02 -0.30716224115E+02  0.42121668691E+02  0.51100000000E-03 0.  1.
        -12    1    3    3    0    0 -0.39940789549E+01 -0.34039801425E+01  0.37142666706E+01  0.64292709080E+01  0.00000000000E+00 0.  1.
</event>
<event>
 7    1  0.5748623E-013  0.5052886E+02  0.7816164E-02  0.1300439E+00
        -11   -1    0    0    0    0  0.00000000000E+00  0.00000000000E+00  0.45593999997E+02  0.45594000000E+02  0.51100000000E-03 0.  1.
         11   -1    0    0    0    0 -0.00000000000E+00 -0.00000000000E+00 -0.45593999997E+02  0.45594000000E+02  0.51100000000E-03 0. -1.
    9900012    2    1    2    0    0  0.18056505659E+02 -0.33727260998E+02  0.13769524428E+02  0.50528864077E+02  0.30000012848E+02 0.  0.
         12    1    1    2    0    0 -0.18056505659E+02  0.33727260998E+02 -0.13769524428E+02  0.40659135923E+02  0.00000000000E+00 0. -1.
         11    1    3    3    0    0  0.28930623210E+01 -0.12892929574E+02 -0.14092744074E+01  0.13288472343E+02  0.51100000000E-03 0. -1.
        -11    1    3    3    0    0  0.30727178881E+01 -0.16801045330E+02  0.17309986303E+02  0.24317737261E+02  0.51100000000E-03 0.  1.
        -12    1    3    3    0    0  0.12090725450E+02 -0.40332860948E+01 -0.21311874681E+01  0.12922654474E+02  0.00000000000E+00 0.  1.
</event>
<event>
 7    1  0.5748623E-013  0.5052883E+02  0.7816164E-02  0.1300439E+00
        -11   -1    0    0    0    0  0.00000000000E+00  0.00000000000E+00  0.45593999997E+02  0.45594000000E+02  0.51100000000E-03 0.  1.
         11   -1    0    0    0    0 -0.00000000000E+00 -0.00000000000E+00 -0.45593999997E+02  0.45594000000E+02  0.51100000000E-03 0. -1.
    9900012    2    1    2    0    0 -0.33167117323E+02 -0.21939100399E+02  0.84726588272E+01  0.50528834422E+02  0.29999922711E+02 0.  0.
         12    1    1    2    0    0  0.33167117323E+02  0.21939100399E+02 -0.84726588272E+01  0.40659165578E+02  0.00000000000E+00 0. -1.
         11    1    3    3    0    0 -0.23656272723E+02 -0.17577177498E+02  0.86619582123E+01  0.30718169351E+02  0.51100000000E-03 0. -1.
        -11    1    3    3    0    0  0.99826341298E+00  0.43009158176E+00  0.64145166904E+01  0.65059613620E+01  0.51100000000E-03 0.  1.
         12    1    3    3    0    0 -0.10509108014E+02 -0.47920144829E+01 -0.66038160756E+01  0.13304703710E+02  0.00000000000E+00 0. -1.
</event>
<event>
 7    1  0.5748623E-013  0.5052887E+02  0.7816164E-02  0.1300439E+00
        -11   -1    0    0    0    0  0.00000000000E+00  0.00000000000E+00  0.45593999997E+02  0.45594000000E+02  0.51100000000E-03 0. -1.
         11   -1    0    0    0    0 -0.00000000000E+00 -0.00000000000E+00 -0.45593999997E+02  0.45594000000E+02  0.51100000000E-03 0.  1.
    9900012    2    1    2    0    0  0.12566901283E+00  0.28493456141E+02  0.29004688398E+02  0.50528870833E+02  0.30000033385E+02 0.  0.
         12    1    1    2    0    0 -0.12566901283E+00 -0.28493456141E+02 -0.29004688398E+02  0.40659129167E+02  0.00000000000E+00 0. -1.
         11    1    3    3    0    0 -0.91401643925E+01  0.94748828328E+01 -0.13596736679E+01  0.13234981019E+02  0.51100000000E-03 0.  1.
        -11    1    3    3    0    0  0.18418168278E+01  0.81655578995E+01  0.13862657858E+02  0.16193884901E+02  0.51100000000E-03 0. -1.
        -12    1    3    3    0    0  0.74240165776E+01  0.10853015409E+02  0.16501704207E+02  0.21100004914E+02  0.00000000000E+00 0.  1.
</event>
<event>
 7    1  0.5748623E-013  0.5052886E+02  0.7816164E-02  0.1300439E+00
        -11   -1    0    0    0    0  0.00000000000E+00  0.00000000000E+00  0.45593999997E+02  0.45594000000E+02  0.51100000000E-03 0. -1.
         11   -1    0    0    0    0 -0.00000000000E+00 -0.00000000000E+00 -0.45593999997E+02  0.45594000000E+02  0.51100000000E-03 0.  1.
    9900012    2    1    2    0    0  0.22594509394E+02 -0.25417682207E+02 -0.22284420115E+02  0.50528858305E+02  0.29999995304E+02 0.  0.
         12    1    1    2    0    0 -0.22594509394E+02  0.25417682207E+02  0.22284420115E+02  0.40659141695E+02  0.00000000000E+00 0. -1.
         11    1    3    3    0    0  0.20151138399E+02 -0.12773203227E+02 -0.25037771182E+01  0.23989414323E+02  0.51100000000E-03 0. -1.
        -11    1    3    3    0    0 -0.19046248711E+01 -0.43751452659E+01 -0.12158366016E+00  0.47732876349E+01  0.51100000000E-03 0.  1.
         12    1    3    3    0    0  0.43479958661E+01 -0.82693337137E+01 -0.19659059336E+02  0.21766156347E+02  0.00000000000E+00 0. -1.
</event>
<event>
 7    1  0.5748623E-013  0.5052886E+02  0.7816164E-02  0.1300439E+00
        -11   -1    0    0    0    0  0.00000000000E+00  0.00000000000E+00  0.45593999997E+02  0.45594000000E+02  0.51100000000E-03 0.  1.
         11   -1    0    0    0    0 -0.00000000000E+00 -0.00000000000E+00 -0.45593999997E+02  0.45594000000E+02  0.51100000000E-03 0. -1.
    9900012    2    1    2    0    0 -0.50197875912E+01 -0.18437463842E+02  0.35889092905E+02  0.50528864127E+02  0.30000013000E+02 0.  0.
         12    1    1    2    0    0  0.50197875912E+01  0.18437463842E+02 -0.35889092905E+02  0.40659135873E+02  0.00000000000E+00 0. -1.
         11    1    3    3    0    0 -0.27589969381E+01 -0.13555311607E+01  0.22691389490E+00  0.30823723021E+01  0.51100000000E-03 0. -1.
        -11    1    3    3    0    0 -0.50684937757E+01 -0.29565262694E+00  0.28554714525E+02  0.29002564740E+02  0.51100000000E-03 0.  1.
        -12    1    3    3    0    0  0.28077031225E+01 -0.16786280055E+02  0.71074644849E+01  0.18443927085E+02  0.00000000000E+00 0.  1.
</event>
<event>
 7    1  0.5748623E-013  0.5052885E+02  0.7816164E-02  0.1300439E+00
        -11   -1    0    0    0    0  0.00000000000E+00  0.00000000000E+00  0.45593999997E+02  0.45594000000E+02  0.51100000000E-03 0.  1.
         11   -1    0    0    0    0 -0.00000000000E+00 -0.00000000000E+00 -0.45593999997E+02  0.45594000000E+02  0.51100000000E-03 0. -1.
    9900012    2    1    2    0    0 -0.33826984908E+02  0.31740992229E+01  0.22334429935E+02  0.50528848824E+02  0.29999966486E+02 0.  0.
         12    1    1    2    0    0  0.33826984908E+02 -0.31740992229E+01 -0.22334429935E+02  0.40659151176E+02  0.00000000000E+00 0. -1.
         11    1    3    3    0    0 -0.15039758814E+01  0.23183725567E+01 -0.61789377414E+01  0.67687566537E+01  0.51100000000E-03 0. -1.
        -11    1    3    3    0    0 -0.42455914175E+01  0.19587024587E+01  0.67847502698E+01  0.82398057192E+01  0.51100000000E-03 0.  1.
         12    1    3    3    0    0 -0.28077417609E+02 -0.11029757925E+01  0.21728617406E+02  0.35520286451E+02  0.00000000000E+00 0. -1.
</event>
<event>
 7    1  0.5748623E-013  0.5052886E+02  0.7816164E-02  0.1300439E+00
        -11   -1    0    0    0    0  0.00000000000E+00  0.00000000000E+00  0.45593999997E+02  0.45594000000E+02  0.51100000000E-03 0.  1.
         11   -1    0    0    0    0 -0.00000000000E+00 -0.00000000000E+00 -0.45593999997E+02  0.45594000000E+02  0.51100000000E-03 0. -1.
    9900012    2    1    2    0    0  0.38857332540E+02 -0.10280090133E+02  0.61313364196E+01  0.50528857958E+02  0.29999994250E+02 0.  0.
         12    1    1    2    0    0 -0.38857332540E+02  0.10280090133E+02 -0.61313364196E+01  0.40659142042E+02  0.00000000000E+00 0. -1.
         11    1    3    3    0    0  0.13368970235E+02 -0.61567017411E+00  0.14764633572E+02  0.19927438864E+02  0.51100000000E-03 0. -1.
        -11    1    3    3    0    0  0.18857384976E+02 -0.10700805721E+02 -0.97921318050E+01  0.23790629600E+02  0.51100000000E-03 0.  1.
        -12    1    3    3    0    0  0.66309773289E+01  0.10363857623E+01  0.11588346531E+01  0.68107894945E+01  0.00000000000E+00 0.  1.
</event>
<event>
 7    1  0.5748623E-013  0.5052886E+02  0.7816164E-02  0.1300439E+00
        -11   -1    0    0    0    0  0.00000000000E+00  0.00000000000E+00  0.45593999997E+02  0.45594000000E+02  0.51100000000E-03 0. -1.
         11   -1    0    0    0    0 -0.00000000000E+00 -0.00000000000E+00 -0.45593999997E+02  0.45594000000E+02  0.51100000000E-03 0.  1.
    9900012    2    1    2    0    0  0.19937164592E+02 -0.18608279168E+02 -0.30156373655E+02  0.50528862557E+02  0.30000008229E+02 0.  0.
         12    1    1    2    0    0 -0.19937164592E+02  0.18608279168E+02  0.30156373655E+02  0.40659137443E+02  0.00000000000E+00 0. -1.
         11    1    3    3    0    0  0.18717817417E+01 -0.12398932098E+02 -0.28873970816E+01  0.12867561782E+02  0.51100000000E-03 0. -1.
        -11    1    3    3    0    0  0.15130072428E+02  0.33720877171E+01 -0.19887717432E+02  0.25215300359E+02  0.51100000000E-03 0.  1.
        -12    1    3    3    0    0  0.29353104226E+01 -0.95814347879E+01 -0.73812591407E+01  0.12446000417E+02  0.00000000000E+00 0.  1.
</event>
<event>
 7    1  0.5748623E-013  0.5052886E+02  0.7816164E-02  0.1300439E+00
        -11   -1    0    0    0    0  0.00000000000E+00  0.00000000000E+00  0.45593999997E+02  0.45594000000E+02  0.51100000000E-03 0.  1.
         11   -1    0    0    0    0 -0.00000000000E+00 -0.00000000000E+00 -0.45593999997E+02  0.45594000000E+02  0.51100000000E-03 0. -1.
    9900012    2    1    2    0    0  0.14947175519E+02  0.31015070822E+02  0.21628987206E+02  0.50528858818E+02  0.29999996864E+02 0.  0.
         12    1    1    2    0    0 -0.14947175519E+02 -0.31015070822E+02 -0.21628987206E+02  0.40659141182E+02  0.00000000000E+00 0. -1.
         11    1    3    3    0    0  0.77596457803E+00  0.32285227739E+01 -0.38080037111E+00  0.33422282255E+01  0.51100000000E-03 0. -1.
        -11    1    3    3    0    0  0.41291700559E+01  0.29037334304E+02  0.89493013805E+01  0.30664422778E+02  0.51100000000E-03 0.  1.
        -12    1    3    3    0    0  0.10042040885E+02 -0.12507862563E+01  0.13060486196E+02  0.16522207815E+02  0.00000000000E+00 0.  1.
</event>
<event>
 7    1  0.5748623E-013  0.5052886E+02  0.7816164E-02  0.1300439E+00
        -11   -1    0    0    0    0  0.00000000000E+00  0.00000000000E+00  0.45593999997E+02  0.45594000000E+02  0.51100000000E-03 0.  1.
         11   -1    0    0    0    0 -0.00000000000E+00 -0.00000000000E+00 -0.45593999997E+02  0.45594000000E+02  0.51100000000E-03 0. -1.
    9900012    2    1    2    0    0 -0.71132409062E+01  0.98341693655E+01  0.38805369188E+02  0.50528858825E+02  0.29999996883E+02 0.  0.
         12    1    1    2    0    0  0.71132409062E+01 -0.98341693655E+01 -0.38805369188E+02  0.40659141175E+02  0.00000000000E+00 0. -1.
         11    1    3    3    0    0  0.85787488809E+01  0.38777926735E+01  0.71446370262E+01  0.11818546733E+02  0.51100000000E-03 0. -1.
        -11    1    3    3    0    0 -0.11029364173E+02  0.10439719766E+02  0.26021090284E+02  0.30128587134E+02  0.51100000000E-03 0.  1.
        -12    1    3    3    0    0 -0.46626256144E+01 -0.44833430742E+01  0.56396418778E+01  0.85817249578E+01  0.00000000000E+00 0.  1.
</event>
<event>
 7    1  0.5748623E-013  0.5052886E+02  0.7816164E-02  0.1300439E+00
        -11   -1    0    0    0    0  0.00000000000E+00  0.00000000000E+00  0.45593999997E+02  0.45594000000E+02  0.51100000000E-03 0.  1.
         11   -1    0    0    0    0 -0.00000000000E+00 -0.00000000000E+00 -0.45593999997E+02  0.45594000000E+02  0.51100000000E-03 0. -1.
    9900012    2    1    2    0    0  0.23139116858E+01  0.40472267219E+02 -0.31316869562E+01  0.50528855096E+02  0.29999985550E+02 0.  0.
         12    1    1    2    0    0 -0.23139116858E+01 -0.40472267219E+02  0.31316869562E+01  0.40659144904E+02  0.00000000000E+00 0. -1.
         11    1    3    3    0    0  0.26641929083E+01  0.30823897843E+00  0.57419273912E+01  0.63374021134E+01  0.51100000000E-03 0. -1.
        -11    1    3    3    0    0 -0.70797910925E+01  0.24386563416E+02 -0.12593203370E+01  0.25424669224E+02  0.51100000000E-03 0.  1.
         12    1    3    3    0    0  0.67295098700E+01  0.15777464824E+02 -0.76142940103E+01  0.18766783759E+02  0.00000000000E+00 0. -1.
</event>
<event>
 7    1  0.5748623E-013  0.5052886E+02  0.7816164E-02  0.1300439E+00
        -11   -1    0    0    0    0  0.00000000000E+00  0.00000000000E+00  0.45593999997E+02  0.45594000000E+02  0.51100000000E-03 0.  1.
         11   -1    0    0    0    0 -0.00000000000E+00 -0.00000000000E+00 -0.45593999997E+02  0.45594000000E+02  0.51100000000E-03 0. -1.
    9900012    2    1    2    0    0 -0.18858472680E+02 -0.24302817193E+02  0.26587528945E+02  0.50528860674E+02  0.30000002504E+02 0.  0.
         12    1    1    2    0    0  0.18858472680E+02  0.24302817193E+02 -0.26587528945E+02  0.40659139326E+02  0.00000000000E+00 0. -1.
         11    1    3    3    0    0 -0.47206879451E+01  0.59876523912E+01  0.65991503298E+01  0.10083930839E+02  0.51100000000E-03 0. -1.
        -11    1    3    3    0    0 -0.68117277225E+01 -0.23959836914E+02  0.17517724560E+02  0.30452324928E+02  0.51100000000E-03 0.  1.
         12    1    3    3    0    0 -0.73260570129E+01 -0.63306326700E+01  0.24706540553E+01  0.99926049066E+01  0.00000000000E+00 0. -1.
</event>
<event>
 7    1  0.5748623E-013  0.5052884E+02  0.7816164E-02  0.1300439E+00
        -11   -1    0    0    0    0  0.00000000000E+00  0.00000000000E+00  0.45593999997E+02  0.45594000000E+02  0.51100000000E-03 0. -1.
         11   -1    0    0    0    0 -0.00000000000E+00 -0.00000000000E+00 -0.45593999997E+02  0.45594000000E+02  0.51100000000E-03 0.  1.
    9900012    2    1    2    0    0  0.20571630331E+01 -0.25875655639E+02 -0.31295143835E+02  0.50528837415E+02  0.29999931805E+02 0.  0.
         12    1    1    2    0    0 -0.20571630331E+01  0.25875655639E+02  0.31295143835E+02  0.40659162585E+02  0.00000000000E+00 0. -1.
         11    1    3    3    0    0 -0.55691209416E+01 -0.12593279721E+02 -0.15334788300E+02  0.20609743682E+02  0.51100000000E-03 0. -1.
        -11    1    3    3    0    0  0.11293967752E+02 -0.12289908375E+02 -0.18826185541E+02  0.25159904963E+02  0.51100000000E-03 0.  1.
         12    1    3    3    0    0 -0.36676837778E+01 -0.99246754247E+00  0.28658300057E+01  0.47591887689E+01  0.00000000000E+00 0. -1.
</event>
<event>
 7    1  0.5748623E-013  0.5052886E+02  0.7816164E-02  0.1300439E+00
        -11   -1    0    0    0    0  0.00000000000E+00  0.00000000000E+00  0.45593999997E+02  0.45594000000E+02  0.51100000000E-03 0. -1.
         11   -1    0    0    0    0 -0.00000000000E+00 -0.00000000000E+00 -0.45593999997E+02  0.45594000000E+02  0.51100000000E-03 0.  1.
    9900012    2    1    2    0    0  0.10833043616E+02 -0.39184688766E+02  0.60909199847E+00  0.50528860059E+02  0.30000000635E+02 0.  0.
         12    1    1    2    0    0 -0.10833043616E+02  0.39184688766E+02 -0.60909199847E+00  0.40659139941E+02  0.00000000000E+00 0. -1.
         11    1    3    3    0    0  0.13013935715E+01 -0.11299962225E+02  0.43436816445E+01  0.12175809706E+02  0.51100000000E-03 0. -1.
        -11    1    3    3    0    0 -0.61219950804E+01 -0.36645810723E+01 -0.61418607669E+01  0.94143736989E+01  0.51100000000E-03 0.  1.
        -12    1    3    3    0    0  0.15653645125E+02 -0.24220145469E+02  0.24072711208E+01  0.28938676654E+02  0.00000000000E+00 0.  1.
</event>
<event>
 7    1  0.5748623E-013  0.5052886E+02  0.7816164E-02  0.1300439E+00
        -11   -1    0    0    0    0  0.00000000000E+00  0.00000000000E+00  0.45593999997E+02  0.45594000000E+02  0.51100000000E-03 0. -1.
         11   -1    0    0    0    0 -0.00000000000E+00 -0.00000000000E+00 -0.45593999997E+02  0.45594000000E+02  0.51100000000E-03 0.  1.
    9900012    2    1    2    0    0  0.19947714648E+02 -0.19300692696E+02 -0.29710904900E+02  0.50528856770E+02  0.29999990638E+02 0.  0.
         12    1    1    2    0    0 -0.19947714648E+02  0.19300692696E+02  0.29710904900E+02  0.40659143230E+02  0.00000000000E+00 0. -1.
         11    1    3    3    0    0  0.18589552444E+02 -0.53562328024E+01 -0.78170700657E+01  0.20865456491E+02  0.51100000000E-03 0. -1.
        -11    1    3    3    0    0 -0.25068338437E+01  0.73922762965E+00 -0.10112999858E+02  0.10445259202E+02  0.51100000000E-03 0.  1.
        -12    1    3    3    0    0  0.38649960477E+01 -0.14683687523E+02 -0.11780834976E+02  0.19218141077E+02  0.00000000000E+00 0.  1.
</event>
<event>
 7    1  0.5748623E-013  0.5052885E+02  0.7816164E-02  0.1300439E+00
        -11   -1    0    0    0    0  0.00000000000E+00  0.00000000000E+00  0.45593999997E+02  0.45594000000E+02  0.51100000000E-03 0.  1.
         11   -1    0    0    0    0 -0.00000000000E+00 -0.00000000000E+00 -0.45593999997E+02  0.45594000000E+02  0.51100000000E-03 0. -1.
    9900012    2    1    2    0    0 -0.24964874475E+02  0.12150376231E+02  0.29703359654E+02  0.50528853737E+02  0.29999981420E+02 0.  0.
         12    1    1    2    0    0  0.24964874475E+02 -0.12150376231E+02 -0.29703359654E+02  0.40659146263E+02  0.00000000000E+00 0. -1.
         11    1    3    3    0    0 -0.70895977115E+00  0.64249253314E+00 -0.42836966101E+01  0.43892456665E+01  0.51100000000E-03 0. -1.
        -11    1    3    3    0    0 -0.62640807520E+01 -0.22994946570E+01  0.15516531739E+02  0.16890504457E+02  0.51100000000E-03 0.  1.
         12    1    3    3    0    0 -0.17991833952E+02  0.13807378355E+02  0.18470524524E+02  0.29249103613E+02  0.00000000000E+00 0. -1.
</event>
<event>
 7    1  0.5748623E-013  0.5052884E+02  0.7816164E-02  0.1300439E+00
        -11   -1    0    0    0    0  0.00000000000E+00  0.00000000000E+00  0.45593999997E+02  0.45594000000E+02  0.51100000000E-03 0.  1.
         11   -1    0    0    0    0 -0.00000000000E+00 -0.00000000000E+00 -0.45593999997E+02  0.45594000000E+02  0.51100000000E-03 0. -1.
    9900012    2    1    2    0    0  0.30639651442E+02 -0.18965200218E+02  0.18833495452E+02  0.50528836079E+02  0.29999927745E+02 0.  0.
         12    1    1    2    0    0 -0.30639651442E+02  0.18965200218E+02 -0.18833495452E+02  0.40659163921E+02  0.00000000000E+00 0. -1.
         11    1    3    3    0    0 -0.16411815435E+01  0.27784663859E+01 -0.26129531173E+00  0.32375342187E+01  0.51100000000E-03 0. -1.
        -11    1    3    3    0    0  0.26543676917E+02 -0.17213008980E+02  0.22895439402E+02  0.39051960362E+02  0.51100000000E-03 0.  1.
        -12    1    3    3    0    0  0.57371560689E+01 -0.45306576233E+01 -0.38006486378E+01  0.82393414983E+01  0.00000000000E+00 0.  1.
</event>
<event>
 7    1  0.5748623E-013  0.5052887E+02  0.7816164E-02  0.1300439E+00
        -11   -1    0    0    0    0  0.00000000000E+00  0.00000000000E+00  0.45593999997E+02  0.45594000000E+02  0.51100000000E-03 0. -1.
         11   -1    0    0    0    0 -0.00000000000E+00 -0.00000000000E+00 -0.45593999997E+02  0.45594000000E+02  0.51100000000E-03 0.  1.
    9900012    2    1    2    0    0 -0.45401735564E+01 -0.32360947284E+02 -0.24193407724E+02  0.50528867417E+02  0.30000023002E+02 0.  0.
         12    1    1    2    0    0  0.45401735564E+01  0.32360947284E+02  0.24193407724E+02  0.40659132583E+02  0.00000000000E+00 0. -1.
         11    1    3    3    0    0 -0.35691393254E+01  0.39260735689E+01 -0.19012034152E-02  0.53059224521E+01  0.51100000000E-03 0. -1.
        -11    1    3    3    0    0  0.49108034352E+01 -0.88116800899E+01 -0.57076130384E+01  0.11590450519E+02  0.51100000000E-03 0.  1.
         12    1    3    3    0    0 -0.58818376662E+01 -0.27475340763E+02 -0.18483893482E+02  0.33632494446E+02  0.00000000000E+00 0. -1.
</event>
<event>
 7    1  0.5748623E-013  0.5052886E+02  0.7816164E-02  0.1300439E+00
        -11   -1    0    0    0    0  0.00000000000E+00  0.00000000000E+00  0.45593999997E+02  0.45594000000E+02  0.51100000000E-03 0.  1.
         11   -1    0    0    0    0 -0.00000000000E+00 -0.00000000000E+00 -0.45593999997E+02  0.45594000000E+02  0.51100000000E-03 0. -1.
    9900012    2    1    2    0    0 -0.67183420444E+01  0.28964275595E+02  0.27732653219E+02  0.50528862833E+02  0.30000009068E+02 0.  0.
         12    1    1    2    0    0  0.67183420444E+01 -0.28964275595E+02 -0.27732653219E+02  0.40659137167E+02  0.00000000000E+00 0. -1.
         11    1    3    3    0    0 -0.48328893447E+01 -0.37770973310E+01  0.13697102995E+01  0.62848540342E+01  0.51100000000E-03 0. -1.
        -11    1    3    3    0    0 -0.77513911620E+01  0.21042855909E+02  0.17362318619E+02  0.28360817299E+02  0.51100000000E-03 0.  1.
         12    1    3    3    0    0  0.58659384624E+01  0.11698517017E+02  0.90006242997E+01  0.15883191500E+02  0.00000000000E+00 0. -1.
</event>
<event>
 7    1  0.5748623E-013  0.5052885E+02  0.7816164E-02  0.1300439E+00
        -11   -1    0    0    0    0  0.00000000000E+00  0.00000000000E+00  0.45593999997E+02  0.45594000000E+02  0.51100000000E-03 0. -1.
         11   -1    0    0    0    0 -0.00000000000E+00 -0.00000000000E+00 -0.45593999997E+02  0.45594000000E+02  0.51100000000E-03 0.  1.
    9900012    2    1    2    0    0 -0.35848528459E+02  0.13782156877E+01 -0.19135037024E+02  0.50528854497E+02  0.29999983728E+02 0.  0.
         12    1    1    2    0    0  0.35848528459E+02 -0.13782156877E+01  0.19135037024E+02  0.40659145503E+02  0.00000000000E+00 0. -1.
         11    1    3    3    0    0 -0.66438227977E+01 -0.83204211314E+01 -0.29220038525E+01  0.11041190875E+02  0.51100000000E-03 0. -1.
        -11    1    3    3    0    0 -0.31626712975E+02  0.76530343356E+01 -0.16126018926E+02  0.36316200170E+02  0.51100000000E-03 0.  1.
        -12    1    3    3    0    0  0.24220073132E+01  0.20456024834E+01 -0.87014245750E-01  0.31714634515E+01  0.00000000000E+00 0.  1.
</event>
<event>
 7    1  0.5748623E-013  0.5052890E+02  0.7816164E-02  0.1300439E+00
        -11   -1    0    0    0    0  0.00000000000E+00  0.00000000000E+00  0.45593999997E+02  0.45594000000E+02  0.51100000000E-03 0.  1.
         11   -1    0    0    0    0 -0.00000000000E+00 -0.00000000000E+00 -0.45593999997E+02  0.45594000000E+02  0.51100000000E-03 0. -1.
    9900012    2    1    2    0    0 -0.24707562373E+02 -0.17625909020E+02  0.27055982921E+02  0.50528898694E+02  0.30000118070E+02 0.  0.
         12    1    1    2    0    0  0.24707562373E+02  0.17625909020E+02 -0.27055982921E+02  0.40659101306E+02  0.00000000000E+00 0. -1.
         11    1    3    3    0    0 -0.24643832118E+01  0.14157667377E+01 -0.14655040959E+01  0.31976995773E+01  0.51100000000E-03 0. -1.
        -11    1    3    3    0    0 -0.83242581879E+01 -0.21986700838E+02  0.18759887370E+02  0.30077261553E+02  0.51100000000E-03 0.  1.
        -12    1    3    3    0    0 -0.13918920973E+02  0.29450250804E+01  0.97615996475E+01  0.17253937564E+02  0.00000000000E+00 0.  1.
</event>
<event>
 7    1  0.5748623E-013  0.5052887E+02  0.7816164E-02  0.1300439E+00
        -11   -1    0    0    0    0  0.00000000000E+00  0.00000000000E+00  0.45593999997E+02  0.45594000000E+02  0.51100000000E-03 0. -1.
         11   -1    0    0    0    0 -0.00000000000E+00 -0.00000000000E+00 -0.45593999997E+02  0.45594000000E+02  0.51100000000E-03 0.  1.
    9900012    2    1    2    0    0 -0.21914926158E+02 -0.10626040759E+02 -0.32557460314E+02  0.50528868764E+02  0.30000027096E+02 0.  0.
         12    1    1    2    0    0  0.21914926158E+02  0.10626040759E+02  0.32557460314E+02  0.40659131236E+02  0.00000000000E+00 0. -1.
         11    1    3    3    0    0 -0.50631543155E+01 -0.10256993712E+02 -0.87350275833E+01  0.14392434081E+02  0.51100000000E-03 0. -1.
        -11    1    3    3    0    0 -0.53131839887E+01  0.10162735583E+02 -0.11482773264E+02  0.16228530454E+02  0.51100000000E-03 0.  1.
        -12    1    3    3    0    0 -0.11538587854E+02 -0.10531782629E+02 -0.12339659467E+02  0.19907904229E+02  0.00000000000E+00 0.  1.
</event>
<event>
 7    1  0.5748623E-013  0.5052891E+02  0.7816164E-02  0.1300439E+00
        -11   -1    0    0    0    0  0.00000000000E+00  0.00000000000E+00  0.45593999997E+02  0.45594000000E+02  0.51100000000E-03 0.  1.
         11   -1    0    0    0    0 -0.00000000000E+00 -0.00000000000E+00 -0.45593999997E+02  0.45594000000E+02  0.51100000000E-03 0. -1.
    9900012    2    1    2    0    0 -0.29416725337E+02 -0.27220195584E+02 -0.68468364783E+01  0.50528905729E+02  0.30000139452E+02 0.  0.
         12    1    1    2    0    0  0.29416725337E+02  0.27220195584E+02  0.68468364783E+01  0.40659094271E+02  0.00000000000E+00 0. -1.
         11    1    3    3    0    0  0.49860462639E+00 -0.63504683281E+01  0.62463782194E+00  0.64005646024E+01  0.51100000000E-03 0. -1.
        -11    1    3    3    0    0 -0.30094461073E+02 -0.21787886464E+02 -0.56405299716E+00  0.37157862423E+02  0.51100000000E-03 0.  1.
        -12    1    3    3    0    0  0.17913110913E+00  0.91815920793E+00 -0.69074213031E+01  0.69704787027E+01  0.00000000000E+00 0.  1.
</event>
<event>
 7    1  0.5748623E-013  0.5052886E+02  0.7816164E-02  0.1300439E+00
        -11   -1    0    0    0    0  0.00000000000E+00  0.00000000000E+00  0.45593999997E+02  0.45594000000E+02  0.51100000000E-03 0. -1.
         11   -1    0    0    0    0 -0.00000000000E+00 -0.00000000000E+00 -0.45593999997E+02  0.45594000000E+02  0.51100000000E-03 0.  1.
    9900012    2    1    2    0    0 -0.34825899938E+02 -0.20972288746E+02 -0.69678154984E+00  0.50528859499E+02  0.29999998933E+02 0.  0.
         12    1    1    2    0    0  0.34825899938E+02  0.20972288746E+02  0.69678154984E+00  0.40659140501E+02  0.00000000000E+00 0. -1.
         11    1    3    3    0    0 -0.35417923056E+01  0.52468855256E+01  0.28773609348E+01  0.69536541950E+01  0.51100000000E-03 0. -1.
        -11    1    3    3    0    0 -0.26805175582E+02 -0.22282659302E+02  0.26471281048E+01  0.34957712039E+02  0.51100000000E-03 0.  1.
        -12    1    3    3    0    0 -0.44789320510E+01 -0.39365149699E+01 -0.62212705894E+01  0.86174932650E+01  0.00000000000E+00 0.  1.
</event>
<event>
 7    1  0.5748623E-013  0.5052887E+02  0.7816164E-02  0.1300439E+00
        -11   -1    0    0    0    0  0.00000000000E+00  0.00000000000E+00  0.45593999997E+02  0.45594000000E+02  0.51100000000E-03 0.  1.
         11   -1    0    0    0    0 -0.00000000000E+00 -0.00000000000E+00 -0.45593999997E+02  0.45594000000E+02  0.51100000000E-03 0. -1.
    9900012    2    1    2    0    0 -0.36106943655E+02 -0.14858670341E+02 -0.11343433261E+02  0.50528868891E+02  0.30000027481E+02 0.  0.
         12    1    1    2    0    0  0.36106943655E+02  0.14858670341E+02  0.11343433261E+02  0.40659131109E+02  0.00000000000E+00 0. -1.
         11    1    3    3    0    0 -0.57423018644E+01  0.49799840250E+01 -0.47533274542E+01  0.89648420923E+01  0.51100000000E-03 0. -1.
        -11    1    3    3    0    0 -0.10298684316E+02 -0.14677659967E+02  0.38867071332E+01  0.18346746124E+02  0.51100000000E-03 0.  1.
        -12    1    3    3    0    0 -0.20065957474E+02 -0.51609943998E+01 -0.10476812940E+02  0.23217280675E+02  0.00000000000E+00 0.  1.
</event>
<event>
 7    1  0.5748623E-013  0.5052886E+02  0.7816164E-02  0.1300439E+00
        -11   -1    0    0    0    0  0.00000000000E+00  0.00000000000E+00  0.45593999997E+02  0.45594000000E+02  0.51100000000E-03 0. -1.
         11   -1    0    0    0    0 -0.00000000000E+00 -0.00000000000E+00 -0.45593999997E+02  0.45594000000E+02  0.51100000000E-03 0.  1.
    9900012    2    1    2    0    0  0.17903526336E+02  0.34541954067E+02 -0.11810288099E+02  0.50528858948E+02  0.29999997259E+02 0.  0.
         12    1    1    2    0    0 -0.17903526336E+02 -0.34541954067E+02  0.11810288099E+02  0.40659141052E+02  0.00000000000E+00 0. -1.
         11    1    3    3    0    0  0.16664799193E+02  0.27534989605E+02  0.14043541144E+01  0.32215887314E+02  0.51100000000E-03 0. -1.
        -11    1    3    3    0    0  0.22368795274E+00  0.86521345550E+01 -0.52627032362E+01  0.10129438004E+02  0.51100000000E-03 0.  1.
         12    1    3    3    0    0  0.10150391907E+01 -0.16451700921E+01 -0.79519389772E+01  0.81835336309E+01  0.00000000000E+00 0. -1.
</event>
<event>
 7    1  0.5748623E-013  0.5052886E+02  0.7816164E-02  0.1300439E+00
        -11   -1    0    0    0    0  0.00000000000E+00  0.00000000000E+00  0.45593999997E+02  0.45594000000E+02  0.51100000000E-03 0.  1.
         11   -1    0    0    0    0 -0.00000000000E+00 -0.00000000000E+00 -0.45593999997E+02  0.45594000000E+02  0.51100000000E-03 0. -1.
    9900012    2    1    2    0    0  0.34053184210E+02  0.18742366964E+02 -0.11927684860E+02  0.50528863998E+02  0.30000012610E+02 0.  0.
         12    1    1    2    0    0 -0.34053184210E+02 -0.18742366964E+02  0.11927684860E+02  0.40659136002E+02  0.00000000000E+00 0. -1.
         11    1    3    3    0    0 -0.24338122708E+00 -0.26467238272E+01  0.98417617803E+00  0.28342520089E+01  0.51100000000E-03 0. -1.
        -11    1    3    3    0    0  0.35443754981E+02  0.13786571396E+02 -0.90590612401E+01  0.39094704358E+02  0.51100000000E-03 0.  1.
        -12    1    3    3    0    0 -0.11471895434E+01  0.76025193946E+01 -0.38527997979E+01  0.85999076319E+01  0.00000000000E+00 0.  1.
</event>
<event>
 7    1  0.5748623E-013  0.5052886E+02  0.7816164E-02  0.1300439E+00
        -11   -1    0    0    0    0  0.00000000000E+00  0.00000000000E+00  0.45593999997E+02  0.45594000000E+02  0.51100000000E-03 0.  1.
         11   -1    0    0    0    0 -0.00000000000E+00 -0.00000000000E+00 -0.45593999997E+02  0.45594000000E+02  0.51100000000E-03 0. -1.
    9900012    2    1    2    0    0  0.19686989291E+02 -0.27616589859E+02  0.22425709541E+02  0.50528855503E+02  0.29999986788E+02 0.  0.
         12    1    1    2    0    0 -0.19686989291E+02  0.27616589859E+02 -0.22425709541E+02  0.40659144497E+02  0.00000000000E+00 0. -1.
         11    1    3    3    0    0 -0.52554183877E+00 -0.59732449760E+01 -0.39817691092E+01  0.71979396543E+01  0.51100000000E-03 0. -1.
        -11    1    3    3    0    0  0.19513320628E+02 -0.14091269860E+02  0.26428763382E+02  0.35746511751E+02  0.51100000000E-03 0.  1.
        -12    1    3    3    0    0  0.69921050097E+00 -0.75520750231E+01 -0.21284731449E-01  0.75844040978E+01  0.00000000000E+00 0.  1.
</event>
<event>
 7    1  0.5748623E-013  0.5052886E+02  0.7816164E-02  0.1300439E+00
        -11   -1    0    0    0    0  0.00000000000E+00  0.00000000000E+00  0.45593999997E+02  0.45594000000E+02  0.51100000000E-03 0.  1.
         11   -1    0    0    0    0 -0.00000000000E+00 -0.00000000000E+00 -0.45593999997E+02  0.45594000000E+02  0.51100000000E-03 0. -1.
    9900012    2    1    2    0    0 -0.16133812903E+02  0.35694189766E+02  0.10899092134E+02  0.50528864357E+02  0.30000013701E+02 0.  0.
         12    1    1    2    0    0  0.16133812903E+02 -0.35694189766E+02 -0.10899092134E+02  0.40659135643E+02  0.00000000000E+00 0. -1.
         11    1    3    3    0    0 -0.27336959586E+01 -0.62378061704E+00  0.96884364268E+01  0.10086029769E+02  0.51100000000E-03 0. -1.
        -11    1    3    3    0    0 -0.10901901568E+02  0.23462996281E+02  0.58942868119E+01  0.26535000840E+02  0.51100000000E-03 0.  1.
         12    1    3    3    0    0 -0.24982153761E+01  0.12854974102E+02 -0.46836311050E+01  0.13907833748E+02  0.00000000000E+00 0. -1.
</event>
<event>
 7    1  0.5748623E-013  0.5052886E+02  0.7816164E-02  0.1300439E+00
        -11   -1    0    0    0    0  0.00000000000E+00  0.00000000000E+00  0.45593999997E+02  0.45594000000E+02  0.51100000000E-03 0.  1.
         11   -1    0    0    0    0 -0.00000000000E+00 -0.00000000000E+00 -0.45593999997E+02  0.45594000000E+02  0.51100000000E-03 0. -1.
    9900012    2    1    2    0    0  0.36723120211E+02  0.10188140667E+01 -0.17422401227E+02  0.50528860749E+02  0.30000002731E+02 0.  0.
         12    1    1    2    0    0 -0.36723120211E+02 -0.10188140667E+01  0.17422401227E+02  0.40659139251E+02  0.00000000000E+00 0. -1.
         11    1    3    3    0    0  0.24484453310E+02 -0.82842347000E+01 -0.13104109916E+02  0.28979901577E+02  0.51100000000E-03 0. -1.
        -11    1    3    3    0    0  0.29775937460E+01  0.10676529680E+02 -0.50046840179E+01  0.12161464258E+02  0.51100000000E-03 0.  1.
         12    1    3    3    0    0  0.92610731558E+01 -0.13734809128E+01  0.68639270738E+00  0.93874949142E+01  0.00000000000E+00 0. -1.
</event>
<event>
 7    1  0.5748623E-013  0.5052879E+02  0.7816164E-02  0.1300439E+00
        -11   -1    0    0    0    0  0.00000000000E+00  0.00000000000E+00  0.45593999997E+02  0.45594000000E+02  0.51100000000E-03 0. -1.
         11   -1    0    0    0    0 -0.00000000000E+00 -0.00000000000E+00 -0.45593999997E+02  0.45594000000E+02  0.51100000000E-03 0.  1.
    9900012    2    1    2    0    0  0.15110038325E+02  0.33789823039E+02 -0.16825749007E+02  0.50528791586E+02  0.29999792505E+02 0.  0.
         12    1    1    2    0    0 -0.15110038325E+02 -0.33789823039E+02  0.16825749007E+02  0.40659208414E+02  0.00000000000E+00 0. -1.
         11    1    3    3    0    0  0.85927487460E+01 -0.15958487625E+01 -0.81817130644E+00  0.87778966064E+01  0.51100000000E-03 0. -1.
        -11    1    3    3    0    0  0.33328018478E+01  0.35063518461E+02 -0.13643387329E+02  0.37771681365E+02  0.51100000000E-03 0.  1.
         12    1    3    3    0    0  0.31844877309E+01  0.32215333993E+00 -0.23641903720E+01  0.39792136155E+01  0.00000000000E+00 0. -1.
</event>
<event>
 7    1  0.5748623E-013  0.5052885E+02  0.7816164E-02  0.1300439E+00
        -11   -1    0    0    0    0  0.00000000000E+00  0.00000000000E+00  0.45593999997E+02  0.45594000000E+02  0.51100000000E-03 0.  1.
         11   -1    0    0    0    0 -0.00000000000E+00 -0.00000000000E+00 -0.45593999997E+02  0.45594000000E+02  0.51100000000E-03 0. -1.
    9900012    2    1    2    0    0  0.10443861771E+02 -0.28956205974E+02  0.26563708301E+02  0.50528847134E+02  0.29999961347E+02 0.  0.
         12    1    1    2    0    0 -0.10443861771E+02  0.28956205974E+02 -0.26563708301E+02  0.40659152866E+02  0.00000000000E+00 0. -1.
         11    1    3    3    0    0 -0.84637927038E+01 -0.14627363569E+02  0.18124523241E+02  0.24780917959E+02  0.51100000000E-03 0. -1.
        -11    1    3    3    0    0  0.66576015399E+01 -0.41503678589E+01  0.27423843523E+00  0.78501222034E+01  0.51100000000E-03 0.  1.
         12    1    3    3    0    0  0.12250052935E+02 -0.10178474546E+02  0.81649466247E+01  0.17897806971E+02  0.00000000000E+00 0. -1.
</event>
<event>
 7    1  0.5748623E-013  0.5052883E+02  0.7816164E-02  0.1300439E+00
        -11   -1    0    0    0    0  0.00000000000E+00  0.00000000000E+00  0.45593999997E+02  0.45594000000E+02  0.51100000000E-03 0.  1.
         11   -1    0    0    0    0 -0.00000000000E+00 -0.00000000000E+00 -0.45593999997E+02  0.45594000000E+02  0.51100000000E-03 0. -1.
    9900012    2    1    2    0    0  0.24197533693E+02 -0.30934040643E+02  0.10522944212E+02  0.50528832987E+02  0.29999918347E+02 0.  0.
         12    1    1    2    0    0 -0.24197533693E+02  0.30934040643E+02 -0.10522944212E+02  0.40659167013E+02  0.00000000000E+00 0. -1.
         11    1    3    3    0    0  0.20230107993E+02 -0.27728944340E+02  0.10352664586E+02  0.35851489340E+02  0.51100000000E-03 0.  1.
        -11    1    3    3    0    0  0.32701675924E+01  0.51815452541E+01 -0.90385998962E+00  0.61934942032E+01  0.51100000000E-03 0. -1.
         12    1    3    3    0    0  0.69725810784E+00 -0.83866415570E+01  0.10741396158E+01  0.84838494440E+01  0.00000000000E+00 0. -1.
</event>
<event>
 7    1  0.5748623E-013  0.5052885E+02  0.7816164E-02  0.1300439E+00
        -11   -1    0    0    0    0  0.00000000000E+00  0.00000000000E+00  0.45593999997E+02  0.45594000000E+02  0.51100000000E-03 0.  1.
         11   -1    0    0    0    0 -0.00000000000E+00 -0.00000000000E+00 -0.45593999997E+02  0.45594000000E+02  0.51100000000E-03 0. -1.
    9900012    2    1    2    0    0 -0.28466443589E+02 -0.29030725859E+02  0.21281656559E+00  0.50528846720E+02  0.29999960091E+02 0.  0.
         12    1    1    2    0    0  0.28466443589E+02  0.29030725859E+02 -0.21281656559E+00  0.40659153280E+02  0.00000000000E+00 0. -1.
         11    1    3    3    0    0 -0.63271410064E+01 -0.23228864301E+01  0.77181293938E+01  0.10246854946E+02  0.51100000000E-03 0. -1.
        -11    1    3    3    0    0  0.21482501738E+01 -0.45006765750E+01 -0.53318670655E+01  0.73006763458E+01  0.51100000000E-03 0.  1.
        -12    1    3    3    0    0 -0.24287552757E+02 -0.22207162854E+02 -0.21734457627E+01  0.32981315429E+02  0.00000000000E+00 0.  1.
</event>
<event>
 7    1  0.5748623E-013  0.5052886E+02  0.7816164E-02  0.1300439E+00
        -11   -1    0    0    0    0  0.00000000000E+00  0.00000000000E+00  0.45593999997E+02  0.45594000000E+02  0.51100000000E-03 0. -1.
         11   -1    0    0    0    0 -0.00000000000E+00 -0.00000000000E+00 -0.45593999997E+02  0.45594000000E+02  0.51100000000E-03 0.  1.
    9900012    2    1    2    0    0  0.33298631077E+02  0.22580695444E+02 -0.58719189138E+01  0.50528855026E+02  0.29999985336E+02 0.  0.
         12    1    1    2    0    0 -0.33298631077E+02 -0.22580695444E+02  0.58719189138E+01  0.40659144974E+02  0.00000000000E+00 0. -1.
         11    1    3    3    0    0  0.50652322904E-01  0.48350354310E+01 -0.72583057820E+01  0.87214182542E+01  0.51100000000E-03 0. -1.
        -11    1    3    3    0    0  0.23349478082E+02  0.19327050783E+02  0.57902100562E+01  0.30858703009E+02  0.51100000000E-03 0.  1.
         12    1    3    3    0    0  0.98985006723E+01 -0.15813907701E+01 -0.44038231879E+01  0.10948733762E+02  0.00000000000E+00 0. -1.
</event>
<event>
 7    1  0.5748623E-013  0.5052886E+02  0.7816164E-02  0.1300439E+00
        -11   -1    0    0    0    0  0.00000000000E+00  0.00000000000E+00  0.45593999997E+02  0.45594000000E+02  0.51100000000E-03 0.  1.
         11   -1    0    0    0    0 -0.00000000000E+00 -0.00000000000E+00 -0.45593999997E+02  0.45594000000E+02  0.51100000000E-03 0. -1.
    9900012    2    1    2    0    0 -0.21674564162E+02 -0.26516757571E+02  0.21914398339E+02  0.50528855662E+02  0.29999987270E+02 0.  0.
         12    1    1    2    0    0  0.21674564162E+02  0.26516757571E+02 -0.21914398339E+02  0.40659144338E+02  0.00000000000E+00 0. -1.
         11    1    3    3    0    0  0.81314563845E+00 -0.88928186238E+01  0.13601503797E+02  0.16270966004E+02  0.51100000000E-03 0. -1.
        -11    1    3    3    0    0 -0.21903570163E+02 -0.10054928056E+02  0.16508206928E+01  0.24157673177E+02  0.51100000000E-03 0.  1.
        -12    1    3    3    0    0 -0.58413963762E+00 -0.75690108912E+01  0.66620738494E+01  0.10100216481E+02  0.00000000000E+00 0.  1.
</event>
<event>
 7    1  0.5748623E-013  0.5052885E+02  0.7816164E-02  0.1300439E+00
        -11   -1    0    0    0    0  0.00000000000E+00  0.00000000000E+00  0.45593999997E+02  0.45594000000E+02  0.51100000000E-03 0.  1.
         11   -1    0    0    0    0 -0.00000000000E+00 -0.00000000000E+00 -0.45593999997E+02  0.45594000000E+02  0.51100000000E-03 0. -1.
    9900012    2    1    2    0    0  0.31341505204E+02 -0.31617146162E+01  0.25707581776E+02  0.50528854060E+02  0.29999982401E+02 0.  0.
         12    1    1    2    0    0 -0.31341505204E+02  0.31617146162E+01 -0.25707581776E+02  0.40659145940E+02  0.00000000000E+00 0. -1.
         11    1    3    3    0    0  0.18662623837E+02 -0.59540109984E-01  0.55105874000E+01  0.19459281777E+02  0.51100000000E-03 0. -1.
        -11    1    3    3    0    0 -0.13015275913E+01  0.61469500367E+00  0.15919375347E+02  0.15984315303E+02  0.51100000000E-03 0.  1.
        -12    1    3    3    0    0  0.13980408958E+02 -0.37168695098E+01  0.42776190292E+01  0.15085256980E+02  0.00000000000E+00 0.  1.
</event>
<event>
 7    1  0.5748623E-013  0.5052887E+02  0.7816164E-02  0.1300439E+00
        -11   -1    0    0    0    0  0.00000000000E+00  0.00000000000E+00  0.45593999997E+02  0.45594000000E+02  0.51100000000E-03 0.  1.
         11   -1    0    0    0    0 -0.00000000000E+00 -0.00000000000E+00 -0.45593999997E+02  0.45594000000E+02  0.51100000000E-03 0. -1.
    9900012    2    1    2    0    0  0.10132474327E+02 -0.74549647607E+01  0.38664217336E+02  0.50528865260E+02  0.30000016445E+02 0.  0.
         12    1    1    2    0    0 -0.10132474327E+02  0.74549647607E+01 -0.38664217336E+02  0.40659134740E+02  0.00000000000E+00 0. -1.
         11    1    3    3    0    0  0.37852559438E+01 -0.53621780071E+01  0.81030036761E+01  0.10427836994E+02  0.51100000000E-03 0. -1.
        -11    1    3    3    0    0  0.11784438971E+02  0.45336451066E+01  0.57937470336E+01  0.13892244051E+02  0.51100000000E-03 0.  1.
        -12    1    3    3    0    0 -0.54372205885E+01 -0.66264318602E+01  0.24767466627E+02  0.26208784215E+02  0.00000000000E+00 0.  1.
</event>
<event>
 7    1  0.5748623E-013  0.5052886E+02  0.7816164E-02  0.1300439E+00
        -11   -1    0    0    0    0  0.00000000000E+00  0.00000000000E+00  0.45593999997E+02  0.45594000000E+02  0.51100000000E-03 0.  1.
         11   -1    0    0    0    0 -0.00000000000E+00 -0.00000000000E+00 -0.45593999997E+02  0.45594000000E+02  0.51100000000E-03 0. -1.
    9900012    2    1    2    0    0  0.26627282341E+02 -0.21917827271E+02  0.21535143628E+02  0.50528859229E+02  0.29999998113E+02 0.  0.
         12    1    1    2    0    0 -0.26627282341E+02  0.21917827271E+02 -0.21535143628E+02  0.40659140771E+02  0.00000000000E+00 0. -1.
         11    1    3    3    0    0 -0.26472984483E+01 -0.85158717166E+00  0.92234071250E+01  0.96335159230E+01  0.51100000000E-03 0. -1.
        -11    1    3    3    0    0  0.91923828528E+01 -0.12534679590E+02 -0.57492697113E+00  0.15554698204E+02  0.51100000000E-03 0.  1.
         12    1    3    3    0    0  0.20082197937E+02 -0.85315605087E+01  0.12886663474E+02  0.25340645102E+02  0.00000000000E+00 0. -1.
</event>
<event>
 7    1  0.5748623E-013  0.5052886E+02  0.7816164E-02  0.1300439E+00
        -11   -1    0    0    0    0  0.00000000000E+00  0.00000000000E+00  0.45593999997E+02  0.45594000000E+02  0.51100000000E-03 0.  1.
         11   -1    0    0    0    0 -0.00000000000E+00 -0.00000000000E+00 -0.45593999997E+02  0.45594000000E+02  0.51100000000E-03 0. -1.
    9900012    2    1    2    0    0 -0.63179330564E+01 -0.28143564724E+02 -0.28656394527E+02  0.50528862518E+02  0.30000008110E+02 0.  0.
         12    1    1    2    0    0  0.63179330564E+01  0.28143564724E+02  0.28656394527E+02  0.40659137482E+02  0.00000000000E+00 0. -1.
         11    1    3    3    0    0 -0.13874858443E+02 -0.10550276432E+02 -0.31703074553E+01  0.17716401419E+02  0.51100000000E-03 0. -1.
        -11    1    3    3    0    0  0.12169155890E+01 -0.97433487905E+01 -0.81816583259E+01  0.12780972671E+02  0.51100000000E-03 0.  1.
         12    1    3    3    0    0  0.63400097981E+01 -0.78499395021E+01 -0.17304428746E+02  0.20031488428E+02  0.00000000000E+00 0. -1.
</event>
<event>
 7    1  0.5748623E-013  0.5052886E+02  0.7816164E-02  0.1300439E+00
        -11   -1    0    0    0    0  0.00000000000E+00  0.00000000000E+00  0.45593999997E+02  0.45594000000E+02  0.51100000000E-03 0. -1.
         11   -1    0    0    0    0 -0.00000000000E+00 -0.00000000000E+00 -0.45593999997E+02  0.45594000000E+02  0.51100000000E-03 0.  1.
    9900012    2    1    2    0    0  0.31577332204E+01 -0.39365746200E+02 -0.96712060373E+01  0.50528862291E+02  0.30000007421E+02 0.  0.
         12    1    1    2    0    0 -0.31577332204E+01  0.39365746200E+02  0.96712060373E+01  0.40659137709E+02  0.00000000000E+00 0. -1.
         11    1    3    3    0    0  0.29336785900E+01 -0.67188744749E+01 -0.48420816033E+01  0.87860969032E+01  0.51100000000E-03 0. -1.
        -11    1    3    3    0    0  0.62052778930E+01 -0.10971150885E+02  0.88699861918E+01  0.15412601363E+02  0.51100000000E-03 0.  1.
        -12    1    3    3    0    0 -0.59812232625E+01 -0.21675720841E+02 -0.13699110626E+02  0.26330164026E+02  0.00000000000E+00 0.  1.
</event>
<event>
 7    1  0.5748623E-013  0.5052886E+02  0.7816164E-02  0.1300439E+00
        -11   -1    0    0    0    0  0.00000000000E+00  0.00000000000E+00  0.45593999997E+02  0.45594000000E+02  0.51100000000E-03 0.  1.
         11   -1    0    0    0    0 -0.00000000000E+00 -0.00000000000E+00 -0.45593999997E+02  0.45594000000E+02  0.51100000000E-03 0. -1.
    9900012    2    1    2    0    0 -0.32288684092E+02 -0.21171646411E+02  0.12742352156E+02  0.50528864856E+02  0.30000015218E+02 0.  0.
         12    1    1    2    0    0  0.32288684092E+02  0.21171646411E+02 -0.12742352156E+02  0.40659135144E+02  0.00000000000E+00 0. -1.
         11    1    3    3    0    0 -0.39900748881E+01  0.36946970758E+01  0.38627766204E+01  0.66702719266E+01  0.51100000000E-03 0. -1.
        -11    1    3    3    0    0 -0.16831095440E+02 -0.25231918598E+02  0.10859048997E+02  0.32215748249E+02  0.51100000000E-03 0.  1.
        -12    1    3    3    0    0 -0.11467513764E+02  0.36557511146E+00 -0.19794734609E+01  0.11642844681E+02  0.00000000000E+00 0.  1.
</event>
<event>
 7    1  0.5748623E-013  0.5052871E+02  0.7816164E-02  0.1300439E+00
        -11   -1    0    0    0    0  0.00000000000E+00  0.00000000000E+00  0.45593999997E+02  0.45594000000E+02  0.51100000000E-03 0. -1.
         11   -1    0    0    0    0 -0.00000000000E+00 -0.00000000000E+00 -0.45593999997E+02  0.45594000000E+02  0.51100000000E-03 0.  1.
    9900012    2    1    2    0    0 -0.35654150198E+02  0.19458926320E+02 -0.18191480253E+01  0.50528713983E+02  0.29999556618E+02 0.  0.
         12    1    1    2    0    0  0.35654150198E+02 -0.19458926320E+02  0.18191480253E+01  0.40659286017E+02  0.00000000000E+00 0. -1.
         11    1    3    3    0    0 -0.23672089839E+01 -0.17174039175E+01  0.22350405365E+01  0.36808370041E+01  0.51100000000E-03 0. -1.
        -11    1    3    3    0    0 -0.27848536125E+02  0.14695180503E+02 -0.13418266038E+02  0.34227754207E+02  0.51100000000E-03 0.  1.
        -12    1    3    3    0    0 -0.54384050891E+01  0.64811497348E+01  0.93640774758E+01  0.12620122772E+02  0.00000000000E+00 0.  1.
</event>
<event>
 7    1  0.5748623E-013  0.5052886E+02  0.7816164E-02  0.1300439E+00
        -11   -1    0    0    0    0  0.00000000000E+00  0.00000000000E+00  0.45593999997E+02  0.45594000000E+02  0.51100000000E-03 0.  1.
         11   -1    0    0    0    0 -0.00000000000E+00 -0.00000000000E+00 -0.45593999997E+02  0.45594000000E+02  0.51100000000E-03 0. -1.
    9900012    2    1    2    0    0  0.25334083889E+02 -0.24917879893E+02  0.19759785102E+02  0.50528860164E+02  0.30000000956E+02 0.  0.
         12    1    1    2    0    0 -0.25334083889E+02  0.24917879893E+02 -0.19759785102E+02  0.40659139836E+02  0.00000000000E+00 0. -1.
         11    1    3    3    0    0  0.21627182850E+01  0.35992606312E+01  0.63417931302E+00  0.42466705940E+01  0.51100000000E-03 0. -1.
        -11    1    3    3    0    0  0.24044409275E+02 -0.19039636503E+02  0.81092166341E+01  0.31723820234E+02  0.51100000000E-03 0.  1.
        -12    1    3    3    0    0 -0.87304367076E+00 -0.94775040215E+01  0.11016389155E+02  0.14558369337E+02  0.00000000000E+00 0.  1.
</event>
<event>
 7    1  0.5748623E-013  0.5052886E+02  0.7816164E-02  0.1300439E+00
        -11   -1    0    0    0    0  0.00000000000E+00  0.00000000000E+00  0.45593999997E+02  0.45594000000E+02  0.51100000000E-03 0.  1.
         11   -1    0    0    0    0 -0.00000000000E+00 -0.00000000000E+00 -0.45593999997E+02  0.45594000000E+02  0.51100000000E-03 0. -1.
    9900012    2    1    2    0    0 -0.26857272019E+02 -0.30335633227E+02 -0.34061593788E+01  0.50528860495E+02  0.30000001959E+02 0.  0.
         12    1    1    2    0    0  0.26857272019E+02  0.30335633227E+02  0.34061593788E+01  0.40659139505E+02  0.00000000000E+00 0. -1.
         11    1    3    3    0    0 -0.63032549113E+01 -0.11743594264E+02 -0.48959038065E+01  0.14199045850E+02  0.51100000000E-03 0. -1.
        -11    1    3    3    0    0 -0.61078258336E+01 -0.59350151192E+01  0.11783286503E+02  0.14538768241E+02  0.51100000000E-03 0.  1.
        -12    1    3    3    0    0 -0.14446191274E+02 -0.12657023844E+02 -0.10293542075E+02  0.21791046404E+02  0.00000000000E+00 0.  1.
</event>
<event>
 7    1  0.5748623E-013  0.5052887E+02  0.7816164E-02  0.1300439E+00
        -11   -1    0    0    0    0  0.00000000000E+00  0.00000000000E+00  0.45593999997E+02  0.45594000000E+02  0.51100000000E-03 0. -1.
         11   -1    0    0    0    0 -0.00000000000E+00 -0.00000000000E+00 -0.45593999997E+02  0.45594000000E+02  0.51100000000E-03 0.  1.
    9900012    2    1    2    0    0  0.35171348092E+02  0.19874707087E+02  0.45975259786E+01  0.50528868756E+02  0.30000027070E+02 0.  0.
         12    1    1    2    0    0 -0.35171348092E+02 -0.19874707087E+02 -0.45975259786E+01  0.40659131244E+02  0.00000000000E+00 0. -1.
         11    1    3    3    0    0  0.38991352815E+00  0.20613223762E+01  0.24473951717E+01  0.32234803995E+01  0.51100000000E-03 0. -1.
        -11    1    3    3    0    0  0.34672168916E+02  0.11907170272E+02 -0.60945169038E+01  0.37162926927E+02  0.51100000000E-03 0.  1.
        -12    1    3    3    0    0  0.10926564854E+00  0.59062144388E+01  0.82446477107E+01  0.10142461430E+02  0.00000000000E+00 0.  1.
</event>
<event>
 7    1  0.5748623E-013  0.5052886E+02  0.7816164E-02  0.1300439E+00
        -11   -1    0    0    0    0  0.00000000000E+00  0.00000000000E+00  0.45593999997E+02  0.45594000000E+02  0.51100000000E-03 0. -1.
         11   -1    0    0    0    0 -0.00000000000E+00 -0.00000000000E+00 -0.45593999997E+02  0.45594000000E+02  0.51100000000E-03 0.  1.
    9900012    2    1    2    0    0 -0.26172343431E+02  0.30930898755E+02 -0.33843558792E+01  0.50528856831E+02  0.29999990824E+02 0.  0.
         12    1    1    2    0    0  0.26172343431E+02 -0.30930898755E+02  0.33843558792E+01  0.40659143169E+02  0.00000000000E+00 0. -1.
         11    1    3    3    0    0 -0.19010712283E+02  0.22772238554E+02  0.75097604874E+01  0.30600302827E+02  0.51100000000E-03 0. -1.
        -11    1    3    3    0    0 -0.50318364399E+01  0.11459737788E+02 -0.67565966381E+01  0.14223099751E+02  0.51100000000E-03 0.  1.
         12    1    3    3    0    0 -0.21297947081E+01 -0.33010775867E+01 -0.41375197285E+01  0.57054542532E+01  0.00000000000E+00 0. -1.
</event>
<event>
 7    1  0.5800866E-013  0.5052886E+02  0.7816164E-02  0.1300439E+00
        -11   -1    0    0    0    0  0.00000000000E+00  0.00000000000E+00  0.45593999997E+02  0.45594000000E+02  0.51100000000E-03 0.  1.
         11   -1    0    0    0    0 -0.00000000000E+00 -0.00000000000E+00 -0.45593999997E+02  0.45594000000E+02  0.51100000000E-03 0. -1.
    9900012    2    1    2    0    0 -0.19407884892E+02  0.31934502707E+02  0.16021463566E+02  0.50528858913E+02  0.29999997151E+02 0.  0.
         12    1    1    2    0    0  0.19407884892E+02 -0.31934502707E+02 -0.16021463566E+02  0.40659141087E+02  0.00000000000E+00 0. -1.
         11    1    3    3    0    0  0.54891195933E+01  0.85620286030E+01  0.41859160259E+01  0.10998211716E+02  0.51100000000E-03 0. -1.
        -11    1    3    3    0    0 -0.20117362895E+02  0.23523218593E+02  0.52538024387E+01  0.31395103809E+02  0.51100000000E-03 0.  1.
        -12    1    3    3    0    0 -0.47796415903E+01 -0.15074448912E+00  0.65817451017E+01  0.81355433879E+01  0.00000000000E+00 0.  1.
</event>
<event>
 7    1  0.5748623E-013  0.5052886E+02  0.7816164E-02  0.1300439E+00
        -11   -1    0    0    0    0  0.00000000000E+00  0.00000000000E+00  0.45593999997E+02  0.45594000000E+02  0.51100000000E-03 0.  1.
         11   -1    0    0    0    0 -0.00000000000E+00 -0.00000000000E+00 -0.45593999997E+02  0.45594000000E+02  0.51100000000E-03 0. -1.
    9900012    2    1    2    0    0  0.54606104757E+01 -0.40136097282E+02  0.35271484532E+01  0.50528863905E+02  0.30000012326E+02 0.  0.
         12    1    1    2    0    0 -0.54606104757E+01  0.40136097282E+02 -0.35271484532E+01  0.40659136095E+02  0.00000000000E+00 0. -1.
         11    1    3    3    0    0 -0.99753262885E+01 -0.18550088701E+02  0.33046605571E+01  0.21319796130E+02  0.51100000000E-03 0. -1.
        -11    1    3    3    0    0  0.11688837198E+02 -0.22306653711E+02 -0.99641960220E+00  0.25203344364E+02  0.51100000000E-03 0.  1.
        -12    1    3    3    0    0  0.37470995658E+01  0.72064513024E+00  0.12189074982E+01  0.40057234115E+01  0.00000000000E+00 0.  1.
</event>
<event>
 7    1  0.5748623E-013  0.5052885E+02  0.7816164E-02  0.1300439E+00
        -11   -1    0    0    0    0  0.00000000000E+00  0.00000000000E+00  0.45593999997E+02  0.45594000000E+02  0.51100000000E-03 0. -1.
         11   -1    0    0    0    0 -0.00000000000E+00 -0.00000000000E+00 -0.45593999997E+02  0.45594000000E+02  0.51100000000E-03 0.  1.
    9900012    2    1    2    0    0  0.29299436812E+02  0.21548838197E+02 -0.18175724866E+02  0.50528850974E+02  0.29999973021E+02 0.  0.
         12    1    1    2    0    0 -0.29299436812E+02 -0.21548838197E+02  0.18175724866E+02  0.40659149026E+02  0.00000000000E+00 0. -1.
         11    1    3    3    0    0  0.18784457831E+01  0.10247619509E+02  0.33210884354E+01  0.10934893361E+02  0.51100000000E-03 0. -1.
        -11    1    3    3    0    0  0.25624536149E+02  0.80206222117E+01 -0.23199190282E+02  0.35484498919E+02  0.51100000000E-03 0.  1.
        -12    1    3    3    0    0  0.17964548797E+01  0.32805964758E+01  0.17023769812E+01  0.41094586940E+01  0.00000000000E+00 0.  1.
</event>
<event>
 7    1  0.6057352E-013  0.5052885E+02  0.7816164E-02  0.1300439E+00
        -11   -1    0    0    0    0  0.00000000000E+00  0.00000000000E+00  0.45593999997E+02  0.45594000000E+02  0.51100000000E-03 0.  1.
         11   -1    0    0    0    0 -0.00000000000E+00 -0.00000000000E+00 -0.45593999997E+02  0.45594000000E+02  0.51100000000E-03 0. -1.
    9900012    2    1    2    0    0 -0.89766907655E+01 -0.38324814908E+02  0.10187952471E+02  0.50528846167E+02  0.29999958410E+02 0.  0.
         12    1    1    2    0    0  0.89766907655E+01  0.38324814908E+02 -0.10187952471E+02  0.40659153833E+02  0.00000000000E+00 0. -1.
         11    1    3    3    0    0  0.22404312177E+01 -0.22041950682E+00 -0.38471214570E+01  0.44574051383E+01  0.51100000000E-03 0. -1.
        -11    1    3    3    0    0 -0.93915823096E+01 -0.34239299961E+02  0.47121547099E+01  0.35815302349E+02  0.51100000000E-03 0.  1.
        -12    1    3    3    0    0 -0.18255396736E+01 -0.38650954402E+01  0.93229192183E+01  0.10256138679E+02  0.00000000000E+00 0.  1.
</event>
<event>
 7    1  0.5748623E-013  0.5052887E+02  0.7816164E-02  0.1300439E+00
        -11   -1    0    0    0    0  0.00000000000E+00  0.00000000000E+00  0.45593999997E+02  0.45594000000E+02  0.51100000000E-03 0.  1.
         11   -1    0    0    0    0 -0.00000000000E+00 -0.00000000000E+00 -0.45593999997E+02  0.45594000000E+02  0.51100000000E-03 0. -1.
    9900012    2    1    2    0    0  0.26843486728E+02  0.18665926100E+01  0.30481268020E+02  0.50528872516E+02  0.30000038499E+02 0.  0.
         12    1    1    2    0    0 -0.26843486728E+02 -0.18665926100E+01 -0.30481268020E+02  0.40659127484E+02  0.00000000000E+00 0. -1.
         11    1    3    3    0    0  0.11162951212E+02  0.44936878344E+01  0.15609416852E+01  0.12134300529E+02  0.51100000000E-03 0. -1.
        -11    1    3    3    0    0  0.16587416210E+02 -0.70245790173E+01  0.28717981148E+02  0.33899993044E+02  0.51100000000E-03 0.  1.
         12    1    3    3    0    0 -0.90688069409E+00  0.43974837929E+01  0.20234518669E+00  0.44945789432E+01  0.00000000000E+00 0. -1.
</event>
<event>
 7    1  0.5748623E-013  0.5052887E+02  0.7816164E-02  0.1300439E+00
        -11   -1    0    0    0    0  0.00000000000E+00  0.00000000000E+00  0.45593999997E+02  0.45594000000E+02  0.51100000000E-03 0.  1.
         11   -1    0    0    0    0 -0.00000000000E+00 -0.00000000000E+00 -0.45593999997E+02  0.45594000000E+02  0.51100000000E-03 0. -1.
    9900012    2    1    2    0    0 -0.38104430434E+02  0.14103382100E+02  0.15204709581E+01  0.50528870185E+02  0.30000031415E+02 0.  0.
         12    1    1    2    0    0  0.38104430434E+02 -0.14103382100E+02 -0.15204709581E+01  0.40659129815E+02  0.00000000000E+00 0. -1.
         11    1    3    3    0    0 -0.72577347575E+01  0.11425942894E+02 -0.27846817939E+01  0.13819599769E+02  0.51100000000E-03 0. -1.
        -11    1    3    3    0    0 -0.31497721415E+02 -0.35817141702E+00  0.73659633119E+01  0.32349531015E+02  0.51100000000E-03 0.  1.
        -12    1    3    3    0    0  0.65102573818E+00  0.30356106233E+01 -0.30608105599E+01  0.43597394018E+01  0.00000000000E+00 0.  1.
</event>
<event>
 7    1  0.5748623E-013  0.5052886E+02  0.7816164E-02  0.1300439E+00
        -11   -1    0    0    0    0  0.00000000000E+00  0.00000000000E+00  0.45593999997E+02  0.45594000000E+02  0.51100000000E-03 0.  1.
         11   -1    0    0    0    0 -0.00000000000E+00 -0.00000000000E+00 -0.45593999997E+02  0.45594000000E+02  0.51100000000E-03 0. -1.
    9900012    2    1    2    0    0  0.31939971284E+02 -0.24939406577E+02  0.33211081230E+01  0.50528861726E+02  0.30000005702E+02 0.  0.
         12    1    1    2    0    0 -0.31939971284E+02  0.24939406577E+02 -0.33211081230E+01  0.40659138274E+02  0.00000000000E+00 0. -1.
         11    1    3    3    0    0  0.23445557241E+01 -0.17426659700E+02  0.91455495859E+00  0.17607436522E+02  0.51100000000E-03 0. -1.
        -11    1    3    3    0    0  0.23729432797E+02 -0.94772091155E+01 -0.15152257012E+01  0.25596862750E+02  0.51100000000E-03 0.  1.
         12    1    3    3    0    0  0.58659827634E+01  0.19644622385E+01  0.39217788656E+01  0.73245624537E+01  0.00000000000E+00 0. -1.
</event>
<event>
 7    1  0.5748623E-013  0.5052886E+02  0.7816164E-02  0.1300439E+00
        -11   -1    0    0    0    0  0.00000000000E+00  0.00000000000E+00  0.45593999997E+02  0.45594000000E+02  0.51100000000E-03 0.  1.
         11   -1    0    0    0    0 -0.00000000000E+00 -0.00000000000E+00 -0.45593999997E+02  0.45594000000E+02  0.51100000000E-03 0. -1.
    9900012    2    1    2    0    0  0.28375478138E+01 -0.34009632088E+02  0.22101105227E+02  0.50528860749E+02  0.30000002733E+02 0.  0.
         12    1    1    2    0    0 -0.28375478138E+01  0.34009632088E+02 -0.22101105227E+02  0.40659139251E+02  0.00000000000E+00 0. -1.
         11    1    3    3    0    0 -0.14992374379E+01  0.31514562465E+01 -0.17610339864E+01  0.39090446827E+01  0.51100000000E-03 0. -1.
        -11    1    3    3    0    0  0.23092228524E+00 -0.17997377215E+02  0.19509035767E+02  0.26543575278E+02  0.51100000000E-03 0.  1.
        -12    1    3    3    0    0  0.41058629665E+01 -0.19163711120E+02  0.43531034464E+01  0.20076240788E+02  0.00000000000E+00 0.  1.
</event>
<event>
 7    1  0.5748623E-013  0.5052885E+02  0.7816164E-02  0.1300439E+00
        -11   -1    0    0    0    0  0.00000000000E+00  0.00000000000E+00  0.45593999997E+02  0.45594000000E+02  0.51100000000E-03 0. -1.
         11   -1    0    0    0    0 -0.00000000000E+00 -0.00000000000E+00 -0.45593999997E+02  0.45594000000E+02  0.51100000000E-03 0.  1.
    9900012    2    1    2    0    0 -0.36785241295E+02 -0.37274366213E+01 -0.16915041095E+02  0.50528851262E+02  0.29999973895E+02 0.  0.
         12    1    1    2    0    0  0.36785241295E+02  0.37274366213E+01  0.16915041095E+02  0.40659148738E+02  0.00000000000E+00 0. -1.
         11    1    3    3    0    0 -0.92903628158E+01  0.87434308352E+01 -0.34124854306E+01  0.13206191014E+02  0.51100000000E-03 0. -1.
        -11    1    3    3    0    0 -0.13115668158E+02 -0.14274194227E+02 -0.34599752788E+01  0.19691236661E+02  0.51100000000E-03 0.  1.
        -12    1    3    3    0    0 -0.14379210321E+02  0.18033267703E+01 -0.10042580386E+02  0.17631423587E+02  0.00000000000E+00 0.  1.
</event>
<event>
 7    1  0.5748623E-013  0.5052886E+02  0.7816164E-02  0.1300439E+00
        -11   -1    0    0    0    0  0.00000000000E+00  0.00000000000E+00  0.45593999997E+02  0.45594000000E+02  0.51100000000E-03 0. -1.
         11   -1    0    0    0    0 -0.00000000000E+00 -0.00000000000E+00 -0.45593999997E+02  0.45594000000E+02  0.51100000000E-03 0.  1.
    9900012    2    1    2    0    0 -0.28898260749E+02 -0.15479273988E+02 -0.24050955911E+02  0.50528857390E+02  0.29999992524E+02 0.  0.
         12    1    1    2    0    0  0.28898260749E+02  0.15479273988E+02  0.24050955911E+02  0.40659142610E+02  0.00000000000E+00 0. -1.
         11    1    3    3    0    0  0.35172482551E+01 -0.56404407941E+01  0.77473626724E+00  0.66922211697E+01  0.51100000000E-03 0. -1.
        -11    1    3    3    0    0 -0.20426533520E+02 -0.12322569765E+02 -0.17248786714E+02  0.29438234333E+02  0.51100000000E-03 0.  1.
        -12    1    3    3    0    0 -0.11988975484E+02  0.24837365710E+01 -0.75769054646E+01  0.14398401888E+02  0.00000000000E+00 0.  1.
</event>
<event>
 7    1  0.5748623E-013  0.5052887E+02  0.7816164E-02  0.1300439E+00
        -11   -1    0    0    0    0  0.00000000000E+00  0.00000000000E+00  0.45593999997E+02  0.45594000000E+02  0.51100000000E-03 0.  1.
         11   -1    0    0    0    0 -0.00000000000E+00 -0.00000000000E+00 -0.45593999997E+02  0.45594000000E+02  0.51100000000E-03 0. -1.
    9900012    2    1    2    0    0 -0.51082328295E+01 -0.89207917004E+01  0.39338157613E+02  0.50528865582E+02  0.30000017423E+02 0.  0.
         12    1    1    2    0    0  0.51082328295E+01  0.89207917004E+01 -0.39338157613E+02  0.40659134418E+02  0.00000000000E+00 0. -1.
         11    1    3    3    0    0 -0.68912026011E+01 -0.12813304568E+02  0.96371838719E+01  0.17451210860E+02  0.51100000000E-03 0. -1.
        -11    1    3    3    0    0 -0.18296558321E+01  0.46796871870E+01  0.28849091524E+02  0.29283394521E+02  0.51100000000E-03 0.  1.
        -12    1    3    3    0    0  0.36126256036E+01 -0.78717431900E+00  0.85188221760E+00  0.37942602010E+01  0.00000000000E+00 0.  1.
</event>
<event>
 7    1  0.5748623E-013  0.5052886E+02  0.7816164E-02  0.1300439E+00
        -11   -1    0    0    0    0  0.00000000000E+00  0.00000000000E+00  0.45593999997E+02  0.45594000000E+02  0.51100000000E-03 0. -1.
         11   -1    0    0    0    0 -0.00000000000E+00 -0.00000000000E+00 -0.45593999997E+02  0.45594000000E+02  0.51100000000E-03 0.  1.
    9900012    2    1    2    0    0 -0.15677608494E+02 -0.14809118855E+02 -0.34468367164E+02  0.50528859031E+02  0.29999997511E+02 0.  0.
         12    1    1    2    0    0  0.15677608494E+02  0.14809118855E+02  0.34468367164E+02  0.40659140969E+02  0.00000000000E+00 0. -1.
         11    1    3    3    0    0  0.31133875694E+01 -0.55828835801E+00 -0.33099102190E+01  0.45782500987E+01  0.51100000000E-03 0. -1.
        -11    1    3    3    0    0 -0.16234676757E+02 -0.13718699916E+02 -0.35211511005E+02  0.41129283538E+02  0.51100000000E-03 0.  1.
        -12    1    3    3    0    0 -0.25563193062E+01 -0.53213058101E+00  0.40530540599E+01  0.48213253949E+01  0.00000000000E+00 0.  1.
</event>
<event>
 7    1  0.5748623E-013  0.5052886E+02  0.7816164E-02  0.1300439E+00
        -11   -1    0    0    0    0  0.00000000000E+00  0.00000000000E+00  0.45593999997E+02  0.45594000000E+02  0.51100000000E-03 0.  1.
         11   -1    0    0    0    0 -0.00000000000E+00 -0.00000000000E+00 -0.45593999997E+02  0.45594000000E+02  0.51100000000E-03 0. -1.
    9900012    2    1    2    0    0  0.15139844107E+02  0.18783374829E+02  0.32728207769E+02  0.50528860396E+02  0.30000001660E+02 0.  0.
         12    1    1    2    0    0 -0.15139844107E+02 -0.18783374829E+02 -0.32728207769E+02  0.40659139604E+02  0.00000000000E+00 0. -1.
         11    1    3    3    0    0  0.12103813728E+01 -0.62054221108E+01  0.10252963086E+01  0.64049605325E+01  0.51100000000E-03 0. -1.
        -11    1    3    3    0    0  0.11878600309E+02  0.99825503910E+01  0.15108345472E+02  0.21656744002E+02  0.51100000000E-03 0.  1.
         12    1    3    3    0    0  0.20508624257E+01  0.15006246549E+02  0.16594565989E+02  0.22467155862E+02  0.00000000000E+00 0. -1.
</event>
<event>
 7    1  0.5748623E-013  0.5052887E+02  0.7816164E-02  0.1300439E+00
        -11   -1    0    0    0    0  0.00000000000E+00  0.00000000000E+00  0.45593999997E+02  0.45594000000E+02  0.51100000000E-03 0.  1.
         11   -1    0    0    0    0 -0.00000000000E+00 -0.00000000000E+00 -0.45593999997E+02  0.45594000000E+02  0.51100000000E-03 0. -1.
    9900012    2    1    2    0    0  0.13296476314E+02  0.31708061398E+02  0.21701774673E+02  0.50528874776E+02  0.30000045369E+02 0.  0.
         12    1    1    2    0    0 -0.13296476314E+02 -0.31708061398E+02 -0.21701774673E+02  0.40659125224E+02  0.00000000000E+00 0. -1.
         11    1    3    3    0    0  0.11259295275E+02  0.42511803760E+01  0.98596037361E+01  0.15558150622E+02  0.51100000000E-03 0. -1.
        -11    1    3    3    0    0 -0.74845622639E+01  0.67714980146E+01  0.44358046075E+01  0.11024890948E+02  0.51100000000E-03 0.  1.
        -12    1    3    3    0    0  0.95217433027E+01  0.20685383008E+02  0.74063663295E+01  0.23945833206E+02  0.00000000000E+00 0.  1.
</event>
<event>
 7    1  0.5748623E-013  0.5052887E+02  0.7816164E-02  0.1300439E+00
        -11   -1    0    0    0    0  0.00000000000E+00  0.00000000000E+00  0.45593999997E+02  0.45594000000E+02  0.51100000000E-03 0.  1.
         11   -1    0    0    0    0 -0.00000000000E+00 -0.00000000000E+00 -0.45593999997E+02  0.45594000000E+02  0.51100000000E-03 0. -1.
    9900012    2    1    2    0    0 -0.18771892132E+02 -0.34413702983E+02 -0.10792501156E+02  0.50528868573E+02  0.30000026513E+02 0.  0.
         12    1    1    2    0    0  0.18771892132E+02  0.34413702983E+02  0.10792501156E+02  0.40659131427E+02  0.00000000000E+00 0. -1.
         11    1    3    3    0    0  0.63968753934E+01 -0.13118834485E+02 -0.12548467188E+01  0.14649179963E+02  0.51100000000E-03 0. -1.
        -11    1    3    3    0    0 -0.10609006695E+02 -0.10922518143E+02  0.76658764957E+00  0.15245985784E+02  0.51100000000E-03 0.  1.
         12    1    3    3    0    0 -0.14559760830E+02 -0.10372350356E+02 -0.10304242087E+02  0.20633702826E+02  0.00000000000E+00 0. -1.
</event>
<event>
 7    1  0.5748623E-013  0.5052885E+02  0.7816164E-02  0.1300439E+00
        -11   -1    0    0    0    0  0.00000000000E+00  0.00000000000E+00  0.45593999997E+02  0.45594000000E+02  0.51100000000E-03 0.  1.
         11   -1    0    0    0    0 -0.00000000000E+00 -0.00000000000E+00 -0.45593999997E+02  0.45594000000E+02  0.51100000000E-03 0. -1.
    9900012    2    1    2    0    0  0.21002884698E+02 -0.31656343701E+02  0.14488669851E+02  0.50528845850E+02  0.29999957445E+02 0.  0.
         12    1    1    2    0    0 -0.21002884698E+02  0.31656343701E+02 -0.14488669851E+02  0.40659154150E+02  0.00000000000E+00 0. -1.
         11    1    3    3    0    0 -0.10053236441E+01 -0.14349296851E+02  0.17913375559E+01  0.14495581611E+02  0.51100000000E-03 0. -1.
        -11    1    3    3    0    0  0.14793497420E+02 -0.22339489716E+01  0.12216929172E+02  0.19315575388E+02  0.51100000000E-03 0.  1.
        -12    1    3    3    0    0  0.72147109226E+01 -0.15073097879E+02  0.48040312340E+00  0.16717688851E+02  0.00000000000E+00 0.  1.
</event>
<event>
 7    1  0.5748623E-013  0.5052886E+02  0.7816164E-02  0.1300439E+00
        -11   -1    0    0    0    0  0.00000000000E+00  0.00000000000E+00  0.45593999997E+02  0.45594000000E+02  0.51100000000E-03 0.  1.
         11   -1    0    0    0    0 -0.00000000000E+00 -0.00000000000E+00 -0.45593999997E+02  0.45594000000E+02  0.51100000000E-03 0. -1.
    9900012    2    1    2    0    0 -0.33045329295E+02 -0.14687939051E+02  0.18585915174E+02  0.50528860995E+02  0.30000003481E+02 0.  0.
         12    1    1    2    0    0  0.33045329295E+02  0.14687939051E+02 -0.18585915174E+02  0.40659139005E+02  0.00000000000E+00 0. -1.
         11    1    3    3    0    0 -0.11035752997E+02  0.54405869656E+01 -0.14587109034E+01  0.12390144006E+02  0.51100000000E-03 0. -1.
        -11    1    3    3    0    0 -0.40799901209E+01 -0.11875340675E+02  0.96118812099E+01  0.15813231681E+02  0.51100000000E-03 0.  1.
         12    1    3    3    0    0 -0.17929586177E+02 -0.82531853410E+01  0.10432744867E+02  0.22325485308E+02  0.00000000000E+00 0. -1.
</event>
<event>
 7    1  0.5748623E-013  0.5052880E+02  0.7816164E-02  0.1300439E+00
        -11   -1    0    0    0    0  0.00000000000E+00  0.00000000000E+00  0.45593999997E+02  0.45594000000E+02  0.51100000000E-03 0.  1.
         11   -1    0    0    0    0 -0.00000000000E+00 -0.00000000000E+00 -0.45593999997E+02  0.45594000000E+02  0.51100000000E-03 0. -1.
    9900012    2    1    2    0    0  0.22024282531E+02 -0.30731731914E+02 -0.14955330531E+02  0.50528803270E+02  0.29999828019E+02 0.  0.
         12    1    1    2    0    0 -0.22024282531E+02  0.30731731914E+02  0.14955330531E+02  0.40659196730E+02  0.00000000000E+00 0. -1.
         11    1    3    3    0    0  0.25723728922E+02 -0.30217592199E+02 -0.12716126108E+02  0.41671488711E+02  0.51100000000E-03 0. -1.
        -11    1    3    3    0    0 -0.30257063663E+01  0.22176223333E+01 -0.40428701265E+01  0.55152105081E+01  0.51100000000E-03 0.  1.
         12    1    3    3    0    0 -0.67374002516E+00 -0.27317620491E+01  0.18036657039E+01  0.33421040507E+01  0.00000000000E+00 0. -1.
</event>
<event>
 7    1  0.5748623E-013  0.5052881E+02  0.7816164E-02  0.1300439E+00
        -11   -1    0    0    0    0  0.00000000000E+00  0.00000000000E+00  0.45593999997E+02  0.45594000000E+02  0.51100000000E-03 0. -1.
         11   -1    0    0    0    0 -0.00000000000E+00 -0.00000000000E+00 -0.45593999997E+02  0.45594000000E+02  0.51100000000E-03 0.  1.
    9900012    2    1    2    0    0 -0.11567398504E+01 -0.24659444224E+02 -0.32307019231E+02  0.50528810041E+02  0.29999848601E+02 0.  0.
         12    1    1    2    0    0  0.11567398504E+01  0.24659444224E+02  0.32307019231E+02  0.40659189959E+02  0.00000000000E+00 0. -1.
         11    1    3    3    0    0 -0.12041860145E+02 -0.88700008416E+01 -0.12306179171E+02  0.19368153157E+02  0.51100000000E-03 0. -1.
        -11    1    3    3    0    0  0.63032694366E+01 -0.17659028866E+02 -0.17354036347E+02  0.25548680668E+02  0.51100000000E-03 0.  1.
         12    1    3    3    0    0  0.45818508576E+01  0.18695854831E+01 -0.26468037120E+01  0.56119762160E+01  0.00000000000E+00 0. -1.
</event>
<event>
 7    1  0.5748623E-013  0.5052887E+02  0.7816164E-02  0.1300439E+00
        -11   -1    0    0    0    0  0.00000000000E+00  0.00000000000E+00  0.45593999997E+02  0.45594000000E+02  0.51100000000E-03 0.  1.
         11   -1    0    0    0    0 -0.00000000000E+00 -0.00000000000E+00 -0.45593999997E+02  0.45594000000E+02  0.51100000000E-03 0. -1.
    9900012    2    1    2    0    0  0.30162215477E+01 -0.32669341808E+02  0.24016277417E+02  0.50528867353E+02  0.30000022807E+02 0.  0.
         12    1    1    2    0    0 -0.30162215477E+01  0.32669341808E+02 -0.24016277417E+02  0.40659132647E+02  0.00000000000E+00 0. -1.
         11    1    3    3    0    0  0.66462463221E+01 -0.33023229962E+02  0.97730813525E+01  0.35074483983E+02  0.51100000000E-03 0. -1.
        -11    1    3    3    0    0 -0.39437255626E+01 -0.14041423549E+01  0.10611007780E+02  0.11406930939E+02  0.51100000000E-03 0.  1.
         12    1    3    3    0    0  0.31370078824E+00  0.17580305085E+01  0.36321882841E+01  0.40474524314E+01  0.00000000000E+00 0. -1.
</event>
<event>
 7    1  0.5748623E-013  0.5052885E+02  0.7816164E-02  0.1300439E+00
        -11   -1    0    0    0    0  0.00000000000E+00  0.00000000000E+00  0.45593999997E+02  0.45594000000E+02  0.51100000000E-03 0.  1.
         11   -1    0    0    0    0 -0.00000000000E+00 -0.00000000000E+00 -0.45593999997E+02  0.45594000000E+02  0.51100000000E-03 0. -1.
    9900012    2    1    2    0    0  0.14569179958E+02 -0.29479901760E+02  0.23913187095E+02  0.50528854295E+02  0.29999983114E+02 0.  0.
         12    1    1    2    0    0 -0.14569179958E+02  0.29479901760E+02 -0.23913187095E+02  0.40659145705E+02  0.00000000000E+00 0. -1.
         11    1    3    3    0    0  0.61804404049E+01 -0.23458904286E+01  0.17957857732E+02  0.19135979204E+02  0.51100000000E-03 0. -1.
        -11    1    3    3    0    0  0.11204086263E+02 -0.22318771148E+02  0.32183815694E+01  0.25179695683E+02  0.51100000000E-03 0.  1.
        -12    1    3    3    0    0 -0.28153467096E+01 -0.48152401842E+01  0.27369477933E+01  0.62131794076E+01  0.00000000000E+00 0.  1.
</event>
<event>
 7    1  0.5748623E-013  0.5052886E+02  0.7816164E-02  0.1300439E+00
        -11   -1    0    0    0    0  0.00000000000E+00  0.00000000000E+00  0.45593999997E+02  0.45594000000E+02  0.51100000000E-03 0.  1.
         11   -1    0    0    0    0 -0.00000000000E+00 -0.00000000000E+00 -0.45593999997E+02  0.45594000000E+02  0.51100000000E-03 0. -1.
    9900012    2    1    2    0    0 -0.13476585205E+02  0.28994176906E+02  0.25117428721E+02  0.50528857500E+02  0.29999992858E+02 0.  0.
         12    1    1    2    0    0  0.13476585205E+02 -0.28994176906E+02 -0.25117428721E+02  0.40659142500E+02  0.00000000000E+00 0. -1.
         11    1    3    3    0    0 -0.15703932326E+02  0.15632766039E+02  0.14263921419E+02  0.26352539138E+02  0.51100000000E-03 0.  1.
        -11    1    3    3    0    0  0.52875617163E+01 -0.18827851663E+01  0.82169698163E+00  0.56725986177E+01  0.51100000000E-03 0. -1.
        -12    1    3    3    0    0 -0.30602145956E+01  0.15244196034E+02  0.10031810320E+02  0.18503719744E+02  0.00000000000E+00 0.  1.
</event>
<event>
 7    1  0.5748623E-013  0.5052886E+02  0.7816164E-02  0.1300439E+00
        -11   -1    0    0    0    0  0.00000000000E+00  0.00000000000E+00  0.45593999997E+02  0.45594000000E+02  0.51100000000E-03 0. -1.
         11   -1    0    0    0    0 -0.00000000000E+00 -0.00000000000E+00 -0.45593999997E+02  0.45594000000E+02  0.51100000000E-03 0.  1.
    9900012    2    1    2    0    0 -0.38846720320E+02  0.85504260735E+01  0.84254632650E+01  0.50528857155E+02  0.29999991809E+02 0.  0.
         12    1    1    2    0    0  0.38846720320E+02 -0.85504260735E+01 -0.84254632650E+01  0.40659142845E+02  0.00000000000E+00 0. -1.
         11    1    3    3    0    0 -0.10272876645E+02  0.15510650246E+02 -0.22105757377E+01  0.18734964932E+02  0.51100000000E-03 0. -1.
        -11    1    3    3    0    0 -0.90168108217E+01 -0.23167383205E+01  0.62706831354E+01  0.11224598928E+02  0.51100000000E-03 0.  1.
         12    1    3    3    0    0 -0.19557032853E+02 -0.46434858522E+01  0.43653558673E+01  0.20569293296E+02  0.00000000000E+00 0. -1.
</event>
<event>
 7    1  0.5748623E-013  0.5052885E+02  0.7816164E-02  0.1300439E+00
        -11   -1    0    0    0    0  0.00000000000E+00  0.00000000000E+00  0.45593999997E+02  0.45594000000E+02  0.51100000000E-03 0. -1.
         11   -1    0    0    0    0 -0.00000000000E+00 -0.00000000000E+00 -0.45593999997E+02  0.45594000000E+02  0.51100000000E-03 0.  1.
    9900012    2    1    2    0    0 -0.36556430257E+02  0.17797591058E+02 -0.19834696328E+00  0.50528853647E+02  0.29999981145E+02 0.  0.
         12    1    1    2    0    0  0.36556430257E+02 -0.17797591058E+02  0.19834696328E+00  0.40659146353E+02  0.00000000000E+00 0. -1.
         11    1    3    3    0    0 -0.40087722698E+01 -0.64315304213E+01  0.15833470061E+01  0.77422107097E+01  0.51100000000E-03 0. -1.
        -11    1    3    3    0    0 -0.28316823331E+02  0.19668204548E+02  0.34617065798E+01  0.34650601242E+02  0.51100000000E-03 0.  1.
         12    1    3    3    0    0 -0.42308346561E+01  0.45609169314E+01 -0.52434005492E+01  0.81360416949E+01  0.00000000000E+00 0. -1.
</event>
<event>
 7    1  0.5748623E-013  0.5052886E+02  0.7816164E-02  0.1300439E+00
        -11   -1    0    0    0    0  0.00000000000E+00  0.00000000000E+00  0.45593999997E+02  0.45594000000E+02  0.51100000000E-03 0. -1.
         11   -1    0    0    0    0 -0.00000000000E+00 -0.00000000000E+00 -0.45593999997E+02  0.45594000000E+02  0.51100000000E-03 0.  1.
    9900012    2    1    2    0    0 -0.19004756391E+02 -0.27954797658E+02 -0.22594554462E+02  0.50528863648E+02  0.30000011544E+02 0.  0.
         12    1    1    2    0    0  0.19004756391E+02  0.27954797658E+02  0.22594554462E+02  0.40659136352E+02  0.00000000000E+00 0. -1.
         11    1    3    3    0    0 -0.11641228568E+02 -0.10732429208E+02  0.14975523429E+01  0.15904273091E+02  0.51100000000E-03 0. -1.
        -11    1    3    3    0    0 -0.11113913599E+02 -0.17876333829E+02 -0.20778669311E+02  0.29577617978E+02  0.51100000000E-03 0.  1.
         12    1    3    3    0    0  0.37503857761E+01  0.65396537909E+00 -0.33134374938E+01  0.50469725788E+01  0.00000000000E+00 0. -1.
</event>
<event>
 7    1  0.5748623E-013  0.5052884E+02  0.7816164E-02  0.1300439E+00
        -11   -1    0    0    0    0  0.00000000000E+00  0.00000000000E+00  0.45593999997E+02  0.45594000000E+02  0.51100000000E-03 0. -1.
         11   -1    0    0    0    0 -0.00000000000E+00 -0.00000000000E+00 -0.45593999997E+02  0.45594000000E+02  0.51100000000E-03 0.  1.
    9900012    2    1    2    0    0 -0.48484998646E+01 -0.30406642154E+02  0.26553628142E+02  0.50528843522E+02  0.29999950368E+02 0.  0.
         12    1    1    2    0    0  0.48484998646E+01  0.30406642154E+02 -0.26553628142E+02  0.40659156478E+02  0.00000000000E+00 0. -1.
         11    1    3    3    0    0  0.66328391044E+01 -0.25782089866E+01  0.79922688379E+01  0.10701311957E+02  0.51100000000E-03 0. -1.
        -11    1    3    3    0    0 -0.16352604099E+02 -0.19997330245E+02  0.11844075480E+02  0.28418004891E+02  0.51100000000E-03 0.  1.
        -12    1    3    3    0    0  0.48712651296E+01 -0.78311029224E+01  0.67172838242E+01  0.11409526674E+02  0.00000000000E+00 0.  1.
</event>
<event>
 7    1  0.5748623E-013  0.5052886E+02  0.7816164E-02  0.1300439E+00
        -11   -1    0    0    0    0  0.00000000000E+00  0.00000000000E+00  0.45593999997E+02  0.45594000000E+02  0.51100000000E-03 0.  1.
         11   -1    0    0    0    0 -0.00000000000E+00 -0.00000000000E+00 -0.45593999997E+02  0.45594000000E+02  0.51100000000E-03 0. -1.
    9900012    2    1    2    0    0  0.21361994259E+02 -0.74475134130E+01  0.33784101378E+02  0.50528858830E+02  0.29999996900E+02 0.  0.
         12    1    1    2    0    0 -0.21361994259E+02  0.74475134130E+01 -0.33784101378E+02  0.40659141170E+02  0.00000000000E+00 0. -1.
         11    1    3    3    0    0 -0.42377556151E+01  0.50052158636E+01  0.82681870288E+01  0.10553372707E+02  0.51100000000E-03 0. -1.
        -11    1    3    3    0    0  0.19865709562E+02 -0.10741886730E+02  0.25403271193E+02  0.33990597736E+02  0.51100000000E-03 0.  1.
         12    1    3    3    0    0  0.57340403119E+01 -0.17108425467E+01  0.11264315628E+00  0.59848883865E+01  0.00000000000E+00 0. -1.
</event>
<event>
 7    1  0.5748623E-013  0.5052886E+02  0.7816164E-02  0.1300439E+00
        -11   -1    0    0    0    0  0.00000000000E+00  0.00000000000E+00  0.45593999997E+02  0.45594000000E+02  0.51100000000E-03 0.  1.
         11   -1    0    0    0    0 -0.00000000000E+00 -0.00000000000E+00 -0.45593999997E+02  0.45594000000E+02  0.51100000000E-03 0. -1.
    9900012    2    1    2    0    0 -0.10576033972E+02 -0.30391031390E+02  0.24853531493E+02  0.50528864357E+02  0.30000013701E+02 0.  0.
         12    1    1    2    0    0  0.10576033972E+02  0.30391031390E+02 -0.24853531493E+02  0.40659135643E+02  0.00000000000E+00 0. -1.
         11    1    3    3    0    0 -0.26790144670E+01  0.22459595357E+01  0.44203798399E+01  0.56357085572E+01  0.51100000000E-03 0. -1.
        -11    1    3    3    0    0 -0.27367766555E+01 -0.33229320586E+02  0.21387748425E+02  0.39612037009E+02  0.51100000000E-03 0.  1.
        -12    1    3    3    0    0 -0.51602428495E+01  0.59232965989E+00 -0.95459677156E+00  0.52811187913E+01  0.00000000000E+00 0.  1.
</event>
<event>
 7    1  0.5748623E-013  0.5052885E+02  0.7816164E-02  0.1300439E+00
        -11   -1    0    0    0    0  0.00000000000E+00  0.00000000000E+00  0.45593999997E+02  0.45594000000E+02  0.51100000000E-03 0. -1.
         11   -1    0    0    0    0 -0.00000000000E+00 -0.00000000000E+00 -0.45593999997E+02  0.45594000000E+02  0.51100000000E-03 0.  1.
    9900012    2    1    2    0    0  0.15413402341E+02  0.28678463773E+02  0.24354441755E+02  0.50528854789E+02  0.29999984615E+02 0.  0.
         12    1    1    2    0    0 -0.15413402341E+02 -0.28678463773E+02 -0.24354441755E+02  0.40659145211E+02  0.00000000000E+00 0. -1.
         11    1    3    3    0    0 -0.64242306308E+01  0.13727582954E+02  0.60011750981E+01  0.16301269146E+02  0.51100000000E-03 0.  1.
        -11    1    3    3    0    0  0.15517469648E+02  0.16154651931E+02  0.13342229910E+02  0.26072586034E+02  0.51100000000E-03 0. -1.
         12    1    3    3    0    0  0.63201633246E+01 -0.12037711113E+01  0.50110367466E+01  0.81549996085E+01  0.00000000000E+00 0. -1.
</event>
<event>
 7    1  0.5748623E-013  0.5052885E+02  0.7816164E-02  0.1300439E+00
        -11   -1    0    0    0    0  0.00000000000E+00  0.00000000000E+00  0.45593999997E+02  0.45594000000E+02  0.51100000000E-03 0.  1.
         11   -1    0    0    0    0 -0.00000000000E+00 -0.00000000000E+00 -0.45593999997E+02  0.45594000000E+02  0.51100000000E-03 0. -1.
    9900012    2    1    2    0    0 -0.16367282349E+02 -0.32104908905E+02  0.18829580275E+02  0.50528853420E+02  0.29999980456E+02 0.  0.
         12    1    1    2    0    0  0.16367282349E+02  0.32104908905E+02 -0.18829580275E+02  0.40659146580E+02  0.00000000000E+00 0. -1.
         11    1    3    3    0    0  0.25414571664E+00  0.21389701965E+00  0.13197019470E+01  0.13608657062E+01  0.51100000000E-03 0. -1.
        -11    1    3    3    0    0 -0.14547148111E+02 -0.10619597202E+01  0.46995303930E+01  0.15324257332E+02  0.51100000000E-03 0.  1.
        -12    1    3    3    0    0 -0.20742799549E+01 -0.31256846204E+02  0.12810347935E+02  0.33843730382E+02  0.00000000000E+00 0.  1.
</event>
<event>
 7    1  0.5748623E-013  0.5052886E+02  0.7816164E-02  0.1300439E+00
        -11   -1    0    0    0    0  0.00000000000E+00  0.00000000000E+00  0.45593999997E+02  0.45594000000E+02  0.51100000000E-03 0.  1.
         11   -1    0    0    0    0 -0.00000000000E+00 -0.00000000000E+00 -0.45593999997E+02  0.45594000000E+02  0.51100000000E-03 0. -1.
    9900012    2    1    2    0    0 -0.23032228858E+02 -0.28409870278E+01  0.33385791143E+02  0.50528858055E+02  0.29999994544E+02 0.  0.
         12    1    1    2    0    0  0.23032228858E+02  0.28409870278E+01 -0.33385791143E+02  0.40659141945E+02  0.00000000000E+00 0. -1.
         11    1    3    3    0    0 -0.10894550344E+02  0.56030186086E+01  0.89292696152E+01  0.15159713086E+02  0.51100000000E-03 0. -1.
        -11    1    3    3    0    0 -0.70090885620E+01 -0.81706108922E+01  0.27407507969E+02  0.29445843478E+02  0.51100000000E-03 0.  1.
         12    1    3    3    0    0 -0.51285899519E+01 -0.27339474428E+00 -0.29509864405E+01  0.59233014910E+01  0.00000000000E+00 0. -1.
</event>
<event>
 7    1  0.5748623E-013  0.5052886E+02  0.7816164E-02  0.1300439E+00
        -11   -1    0    0    0    0  0.00000000000E+00  0.00000000000E+00  0.45593999997E+02  0.45594000000E+02  0.51100000000E-03 0.  1.
         11   -1    0    0    0    0 -0.00000000000E+00 -0.00000000000E+00 -0.45593999997E+02  0.45594000000E+02  0.51100000000E-03 0. -1.
    9900012    2    1    2    0    0  0.26920373648E+02 -0.16630760217E+02  0.25531887536E+02  0.50528856085E+02  0.29999988557E+02 0.  0.
         12    1    1    2    0    0 -0.26920373648E+02  0.16630760217E+02 -0.25531887536E+02  0.40659143915E+02  0.00000000000E+00 0. -1.
         11    1    3    3    0    0  0.10082361800E+02 -0.77184424608E+01 -0.53332479387E+01  0.13772142437E+02  0.51100000000E-03 0. -1.
        -11    1    3    3    0    0  0.88583491862E+01 -0.14039209469E+01  0.14969136253E+02  0.17450397840E+02  0.51100000000E-03 0.  1.
         12    1    3    3    0    0  0.79796626620E+01 -0.75083968093E+01  0.15895999221E+02  0.19306315808E+02  0.00000000000E+00 0. -1.
</event>
<event>
 7    1  0.5748623E-013  0.5052886E+02  0.7816164E-02  0.1300439E+00
        -11   -1    0    0    0    0  0.00000000000E+00  0.00000000000E+00  0.45593999997E+02  0.45594000000E+02  0.51100000000E-03 0.  1.
         11   -1    0    0    0    0 -0.00000000000E+00 -0.00000000000E+00 -0.45593999997E+02  0.45594000000E+02  0.51100000000E-03 0. -1.
    9900012    2    1    2    0    0 -0.14899742326E+02 -0.32763362500E+02  0.18913632142E+02  0.50528859275E+02  0.29999998251E+02 0.  0.
         12    1    1    2    0    0  0.14899742326E+02  0.32763362500E+02 -0.18913632142E+02  0.40659140725E+02  0.00000000000E+00 0. -1.
         11    1    3    3    0    0  0.26197922144E+01  0.14271155297E+01 -0.15332387957E+01  0.33542199462E+01  0.51100000000E-03 0. -1.
        -11    1    3    3    0    0 -0.20810816859E+02 -0.28432897689E+02  0.20028021482E+02  0.40529512878E+02  0.51100000000E-03 0.  1.
        -12    1    3    3    0    0  0.32912823185E+01 -0.57575803406E+01  0.41884945616E+00  0.66451264506E+01  0.00000000000E+00 0.  1.
</event>
<event>
 7    1  0.5748623E-013  0.5052886E+02  0.7816164E-02  0.1300439E+00
        -11   -1    0    0    0    0  0.00000000000E+00  0.00000000000E+00  0.45593999997E+02  0.45594000000E+02  0.51100000000E-03 0.  1.
         11   -1    0    0    0    0 -0.00000000000E+00 -0.00000000000E+00 -0.45593999997E+02  0.45594000000E+02  0.51100000000E-03 0. -1.
    9900012    2    1    2    0    0  0.23996081148E+01 -0.84079526086E+01  0.39707851536E+02  0.50528864990E+02  0.30000015624E+02 0.  0.
         12    1    1    2    0    0 -0.23996081148E+01  0.84079526086E+01 -0.39707851536E+02  0.40659135010E+02  0.00000000000E+00 0. -1.
         11    1    3    3    0    0  0.12267249670E+02  0.51766777886E+01  0.14421019862E+02  0.19627766595E+02  0.51100000000E-03 0. -1.
        -11    1    3    3    0    0 -0.53843978738E+01 -0.50047736100E+01  0.67091236981E+01  0.99524791086E+01  0.51100000000E-03 0.  1.
         12    1    3    3    0    0 -0.44832436811E+01 -0.85798567872E+01  0.18577707976E+02  0.20948619287E+02  0.00000000000E+00 0. -1.
</event>
<event>
 7    1  0.5748623E-013  0.5052885E+02  0.7816164E-02  0.1300439E+00
        -11   -1    0    0    0    0  0.00000000000E+00  0.00000000000E+00  0.45593999997E+02  0.45594000000E+02  0.51100000000E-03 0.  1.
         11   -1    0    0    0    0 -0.00000000000E+00 -0.00000000000E+00 -0.45593999997E+02  0.45594000000E+02  0.51100000000E-03 0. -1.
    9900012    2    1    2    0    0  0.13875432057E+02 -0.15869242715E+02  0.34767888440E+02  0.50528849176E+02  0.29999967556E+02 0.  0.
         12    1    1    2    0    0 -0.13875432057E+02  0.15869242715E+02 -0.34767888440E+02  0.40659150824E+02  0.00000000000E+00 0. -1.
         11    1    3    3    0    0  0.53736247335E+01 -0.15362311117E+01  0.32253459064E+02  0.32734102564E+02  0.51100000000E-03 0.  1.
        -11    1    3    3    0    0  0.91907330522E+01 -0.11746743808E+02  0.24689151470E+01  0.15117906813E+02  0.51100000000E-03 0. -1.
        -12    1    3    3    0    0 -0.68892572825E+00 -0.25862677953E+01  0.45514228981E-01  0.26768397997E+01  0.00000000000E+00 0.  1.
</event>
<event>
 7    1  0.5748623E-013  0.5052886E+02  0.7816164E-02  0.1300439E+00
        -11   -1    0    0    0    0  0.00000000000E+00  0.00000000000E+00  0.45593999997E+02  0.45594000000E+02  0.51100000000E-03 0.  1.
         11   -1    0    0    0    0 -0.00000000000E+00 -0.00000000000E+00 -0.45593999997E+02  0.45594000000E+02  0.51100000000E-03 0. -1.
    9900012    2    1    2    0    0 -0.25377113840E+01  0.26227538355E+02  0.30965171628E+02  0.50528860792E+02  0.30000002863E+02 0.  0.
         12    1    1    2    0    0  0.25377113840E+01 -0.26227538355E+02 -0.30965171628E+02  0.40659139208E+02  0.00000000000E+00 0. -1.
         11    1    3    3    0    0  0.32795135594E+01  0.22599103212E+01 -0.96195871509E+00  0.40972879661E+01  0.51100000000E-03 0. -1.
        -11    1    3    3    0    0 -0.12797365933E+02  0.21779933844E+02  0.19115394587E+02  0.31678642704E+02  0.51100000000E-03 0.  1.
        -12    1    3    3    0    0  0.69801409897E+01  0.21876941895E+01  0.12811735755E+02  0.14752930122E+02  0.00000000000E+00 0.  1.
</event>
<event>
 7    1  0.5748623E-013  0.5052886E+02  0.7816164E-02  0.1300439E+00
        -11   -1    0    0    0    0  0.00000000000E+00  0.00000000000E+00  0.45593999997E+02  0.45594000000E+02  0.51100000000E-03 0. -1.
         11   -1    0    0    0    0 -0.00000000000E+00 -0.00000000000E+00 -0.45593999997E+02  0.45594000000E+02  0.51100000000E-03 0.  1.
    9900012    2    1    2    0    0  0.21638508036E+02  0.22693596697E+02 -0.25883221512E+02  0.50528861828E+02  0.30000006013E+02 0.  0.
         12    1    1    2    0    0 -0.21638508036E+02 -0.22693596697E+02  0.25883221512E+02  0.40659138172E+02  0.00000000000E+00 0. -1.
         11    1    3    3    0    0  0.15576409247E+02  0.70226504782E+01 -0.12490937926E+01  0.17131911170E+02  0.51100000000E-03 0.  1.
        -11    1    3    3    0    0 -0.88421328879E+00  0.11115705585E+02 -0.22030477229E+02  0.24691753097E+02  0.51100000000E-03 0. -1.
         12    1    3    3    0    0  0.69463120775E+01  0.45552406342E+01 -0.26036504900E+01  0.87051975617E+01  0.00000000000E+00 0. -1.
</event>
<event>
 7    1  0.5748623E-013  0.5052887E+02  0.7816164E-02  0.1300439E+00
        -11   -1    0    0    0    0  0.00000000000E+00  0.00000000000E+00  0.45593999997E+02  0.45594000000E+02  0.51100000000E-03 0.  1.
         11   -1    0    0    0    0 -0.00000000000E+00 -0.00000000000E+00 -0.45593999997E+02  0.45594000000E+02  0.51100000000E-03 0. -1.
    9900012    2    1    2    0    0 -0.40146643989E+01  0.37124354184E+02  0.16088193826E+02  0.50528865916E+02  0.30000018439E+02 0.  0.
         12    1    1    2    0    0  0.40146643989E+01 -0.37124354184E+02 -0.16088193826E+02  0.40659134084E+02  0.00000000000E+00 0. -1.
         11    1    3    3    0    0 -0.14494708737E+02  0.27265530294E+02  0.10687232931E+02  0.32676025945E+02  0.51100000000E-03 0. -1.
        -11    1    3    3    0    0  0.20088687178E+01  0.81201703116E+01  0.24734763390E+01  0.87230043492E+01  0.51100000000E-03 0.  1.
         12    1    3    3    0    0  0.84711756202E+01  0.17386535785E+01  0.29274845559E+01  0.91298356217E+01  0.00000000000E+00 0. -1.
</event>
<event>
 7    1  0.5748623E-013  0.5052882E+02  0.7816164E-02  0.1300439E+00
        -11   -1    0    0    0    0  0.00000000000E+00  0.00000000000E+00  0.45593999997E+02  0.45594000000E+02  0.51100000000E-03 0.  1.
         11   -1    0    0    0    0 -0.00000000000E+00 -0.00000000000E+00 -0.45593999997E+02  0.45594000000E+02  0.51100000000E-03 0. -1.
    9900012    2    1    2    0    0 -0.20779623595E+01  0.37618070517E+02  0.15288284990E+02  0.50528821271E+02  0.29999882734E+02 0.  0.
         12    1    1    2    0    0  0.20779623595E+01 -0.37618070517E+02 -0.15288284990E+02  0.40659178729E+02  0.00000000000E+00 0. -1.
         11    1    3    3    0    0  0.21734989849E+01  0.11244616619E+01 -0.14751503199E+01  0.28573730233E+01  0.51100000000E-03 0. -1.
        -11    1    3    3    0    0 -0.11987845863E+02  0.33122688167E+02  0.93657278970E+01  0.36449112186E+02  0.51100000000E-03 0.  1.
        -12    1    3    3    0    0  0.77363845188E+01  0.33709206885E+01  0.73977074134E+01  0.11222336062E+02  0.00000000000E+00 0.  1.
</event>
<event>
 7    1  0.5748623E-013  0.5052887E+02  0.7816164E-02  0.1300439E+00
        -11   -1    0    0    0    0  0.00000000000E+00  0.00000000000E+00  0.45593999997E+02  0.45594000000E+02  0.51100000000E-03 0. -1.
         11   -1    0    0    0    0 -0.00000000000E+00 -0.00000000000E+00 -0.45593999997E+02  0.45594000000E+02  0.51100000000E-03 0.  1.
    9900012    2    1    2    0    0 -0.27816034549E+02 -0.12098538918E+02 -0.27075044462E+02  0.50528874892E+02  0.30000045721E+02 0.  0.
         12    1    1    2    0    0  0.27816034549E+02  0.12098538918E+02  0.27075044462E+02  0.40659125108E+02  0.00000000000E+00 0. -1.
         11    1    3    3    0    0 -0.11479109349E+02 -0.19571499146E+02 -0.11608963064E+02  0.25486889844E+02  0.51100000000E-03 0. -1.
        -11    1    3    3    0    0 -0.16349251622E+02  0.70052634465E+01 -0.11797479834E+02  0.21343670613E+02  0.51100000000E-03 0.  1.
        -12    1    3    3    0    0  0.12326421545E-01  0.46769678113E+00 -0.36686015644E+01  0.36983144347E+01  0.00000000000E+00 0.  1.
</event>
<event>
 7    1  0.5748623E-013  0.5052888E+02  0.7816164E-02  0.1300439E+00
        -11   -1    0    0    0    0  0.00000000000E+00  0.00000000000E+00  0.45593999997E+02  0.45594000000E+02  0.51100000000E-03 0. -1.
         11   -1    0    0    0    0 -0.00000000000E+00 -0.00000000000E+00 -0.45593999997E+02  0.45594000000E+02  0.51100000000E-03 0.  1.
    9900012    2    1    2    0    0 -0.25973598616E+02 -0.40234103499E+01 -0.31021746902E+02  0.50528875111E+02  0.30000046388E+02 0.  0.
         12    1    1    2    0    0  0.25973598616E+02  0.40234103499E+01  0.31021746902E+02  0.40659124889E+02  0.00000000000E+00 0. -1.
         11    1    3    3    0    0  0.73127478422E+00 -0.78377025446E+01 -0.30333162728E+01  0.84359558948E+01  0.51100000000E-03 0. -1.
        -11    1    3    3    0    0 -0.10057750710E+02  0.47822470314E+01 -0.21474507452E+02  0.24190549944E+02  0.51100000000E-03 0.  1.
         12    1    3    3    0    0 -0.16647122690E+02 -0.96795483675E+00 -0.65139231774E+01  0.17902369273E+02  0.00000000000E+00 0. -1.
</event>
<event>
 7    1  0.5748623E-013  0.5052886E+02  0.7816164E-02  0.1300439E+00
        -11   -1    0    0    0    0  0.00000000000E+00  0.00000000000E+00  0.45593999997E+02  0.45594000000E+02  0.51100000000E-03 0. -1.
         11   -1    0    0    0    0 -0.00000000000E+00 -0.00000000000E+00 -0.45593999997E+02  0.45594000000E+02  0.51100000000E-03 0.  1.
    9900012    2    1    2    0    0  0.18838701767E+02 -0.98297337315E+01 -0.34664753192E+02  0.50528862486E+02  0.30000008013E+02 0.  0.
         12    1    1    2    0    0 -0.18838701767E+02  0.98297337315E+01  0.34664753192E+02  0.40659137514E+02  0.00000000000E+00 0. -1.
         11    1    3    3    0    0 -0.16494834547E+01 -0.13700443435E+02 -0.11333013125E+02  0.17856655138E+02  0.51100000000E-03 0. -1.
        -11    1    3    3    0    0  0.15361877380E+02  0.63702277673E+01 -0.14014097477E+02  0.21747689689E+02  0.51100000000E-03 0.  1.
        -12    1    3    3    0    0  0.51263078411E+01 -0.24995180638E+01 -0.93176425902E+01  0.10924517659E+02  0.00000000000E+00 0.  1.
</event>
<event>
 7    1  0.5748623E-013  0.5052886E+02  0.7816164E-02  0.1300439E+00
        -11   -1    0    0    0    0  0.00000000000E+00  0.00000000000E+00  0.45593999997E+02  0.45594000000E+02  0.51100000000E-03 0.  1.
         11   -1    0    0    0    0 -0.00000000000E+00 -0.00000000000E+00 -0.45593999997E+02  0.45594000000E+02  0.51100000000E-03 0. -1.
    9900012    2    1    2    0    0 -0.15726202602E+02  0.23158206123E+02  0.29488122846E+02  0.50528863904E+02  0.30000012322E+02 0.  0.
         12    1    1    2    0    0  0.15726202602E+02 -0.23158206123E+02 -0.29488122846E+02  0.40659136096E+02  0.00000000000E+00 0. -1.
         11    1    3    3    0    0 -0.12386981130E+02  0.39845874020E+01  0.22332957310E+02  0.25847151115E+02  0.51100000000E-03 0. -1.
        -11    1    3    3    0    0  0.69446683067E+00  0.17517280395E+02  0.15775310841E+01  0.17601874934E+02  0.51100000000E-03 0.  1.
        -12    1    3    3    0    0 -0.40336883030E+01  0.16563383263E+01  0.55776344517E+01  0.70798378550E+01  0.00000000000E+00 0.  1.
</event>
<event>
 7    1  0.5748623E-013  0.5052886E+02  0.7816164E-02  0.1300439E+00
        -11   -1    0    0    0    0  0.00000000000E+00  0.00000000000E+00  0.45593999997E+02  0.45594000000E+02  0.51100000000E-03 0.  1.
         11   -1    0    0    0    0 -0.00000000000E+00 -0.00000000000E+00 -0.45593999997E+02  0.45594000000E+02  0.51100000000E-03 0. -1.
    9900012    2    1    2    0    0  0.24302527618E+02 -0.31355088424E+02  0.89113153456E+01  0.50528856380E+02  0.29999989452E+02 0.  0.
         12    1    1    2    0    0 -0.24302527618E+02  0.31355088424E+02 -0.89113153456E+01  0.40659143620E+02  0.00000000000E+00 0. -1.
         11    1    3    3    0    0  0.13325396670E+02  0.25726366974E+01  0.18865559580E+01  0.13701961525E+02  0.51100000000E-03 0. -1.
        -11    1    3    3    0    0  0.83790305817E+01 -0.19738211836E+02  0.19362250927E+01  0.21530307193E+02  0.51100000000E-03 0.  1.
         12    1    3    3    0    0  0.25981003665E+01 -0.14189513286E+02  0.50885342949E+01  0.15296587662E+02  0.00000000000E+00 0. -1.
</event>
<event>
 7    1  0.5748623E-013  0.5052886E+02  0.7816164E-02  0.1300439E+00
        -11   -1    0    0    0    0  0.00000000000E+00  0.00000000000E+00  0.45593999997E+02  0.45594000000E+02  0.51100000000E-03 0.  1.
         11   -1    0    0    0    0 -0.00000000000E+00 -0.00000000000E+00 -0.45593999997E+02  0.45594000000E+02  0.51100000000E-03 0. -1.
    9900012    2    1    2    0    0  0.38958521167E+02 -0.11606563497E+02 -0.82873974473E+00  0.50528862069E+02  0.30000006744E+02 0.  0.
         12    1    1    2    0    0 -0.38958521167E+02  0.11606563497E+02  0.82873974473E+00  0.40659137931E+02  0.00000000000E+00 0. -1.
         11    1    3    3    0    0  0.21259593616E+02 -0.12443075700E+01 -0.13334791225E+02  0.25126386117E+02  0.51100000000E-03 0. -1.
        -11    1    3    3    0    0  0.15704651910E+02 -0.64468071128E+01  0.70123172654E+01  0.18367634776E+02  0.51100000000E-03 0.  1.
         12    1    3    3    0    0  0.19942756416E+01 -0.39154488141E+01  0.54937342146E+01  0.70348411760E+01  0.00000000000E+00 0. -1.
</event>
<event>
 7    1  0.5748623E-013  0.5052886E+02  0.7816164E-02  0.1300439E+00
        -11   -1    0    0    0    0  0.00000000000E+00  0.00000000000E+00  0.45593999997E+02  0.45594000000E+02  0.51100000000E-03 0.  1.
         11   -1    0    0    0    0 -0.00000000000E+00 -0.00000000000E+00 -0.45593999997E+02  0.45594000000E+02  0.51100000000E-03 0. -1.
    9900012    2    1    2    0    0  0.13894252450E+02 -0.37064868596E+02  0.92903651681E+01  0.50528860558E+02  0.30000002153E+02 0.  0.
         12    1    1    2    0    0 -0.13894252450E+02  0.37064868596E+02 -0.92903651681E+01  0.40659139442E+02  0.00000000000E+00 0. -1.
         11    1    3    3    0    0 -0.97397690355E+00  0.17909279157E+01  0.10481827240E+01  0.22923222051E+01  0.51100000000E-03 0. -1.
        -11    1    3    3    0    0  0.80545893144E+01 -0.23944805071E+02 -0.66117588028E+01  0.26114085349E+02  0.51100000000E-03 0.  1.
        -12    1    3    3    0    0  0.68136400391E+01 -0.14910991441E+02  0.14853941247E+02  0.22122453004E+02  0.00000000000E+00 0.  1.
</event>
<event>
 7    1  0.5748623E-013  0.5052886E+02  0.7816164E-02  0.1300439E+00
        -11   -1    0    0    0    0  0.00000000000E+00  0.00000000000E+00  0.45593999997E+02  0.45594000000E+02  0.51100000000E-03 0.  1.
         11   -1    0    0    0    0 -0.00000000000E+00 -0.00000000000E+00 -0.45593999997E+02  0.45594000000E+02  0.51100000000E-03 0. -1.
    9900012    2    1    2    0    0  0.16828117578E+02 -0.29384601403E+02  0.22506112642E+02  0.50528862687E+02  0.30000008622E+02 0.  0.
         12    1    1    2    0    0 -0.16828117578E+02  0.29384601403E+02 -0.22506112642E+02  0.40659137313E+02  0.00000000000E+00 0. -1.
         11    1    3    3    0    0  0.11084424691E+02  0.25783094179E+01  0.39940951862E+01  0.12060884993E+02  0.51100000000E-03 0. -1.
        -11    1    3    3    0    0  0.17858275284E+01 -0.68780261592E+01  0.87237809447E+01  0.11251701118E+02  0.51100000000E-03 0.  1.
         12    1    3    3    0    0  0.39578653582E+01 -0.25084884661E+02  0.97882365110E+01  0.27216276576E+02  0.00000000000E+00 0. -1.
</event>
<event>
 7    1  0.5748623E-013  0.5052887E+02  0.7816164E-02  0.1300439E+00
        -11   -1    0    0    0    0  0.00000000000E+00  0.00000000000E+00  0.45593999997E+02  0.45594000000E+02  0.51100000000E-03 0. -1.
         11   -1    0    0    0    0 -0.00000000000E+00 -0.00000000000E+00 -0.45593999997E+02  0.45594000000E+02  0.51100000000E-03 0.  1.
    9900012    2    1    2    0    0 -0.30344518423E+02  0.25239966248E+02 -0.97631651963E+01  0.50528867088E+02  0.30000022001E+02 0.  0.
         12    1    1    2    0    0  0.30344518423E+02 -0.25239966248E+02  0.97631651963E+01  0.40659132912E+02  0.00000000000E+00 0. -1.
         11    1    3    3    0    0 -0.12427789294E+02 -0.49932988370E+01 -0.25997671507E+01  0.13643378230E+02  0.51100000000E-03 0. -1.
        -11    1    3    3    0    0 -0.12323099606E+02  0.12353941987E+02 -0.34507082625E+01  0.17787244146E+02  0.51100000000E-03 0.  1.
         12    1    3    3    0    0 -0.55936295222E+01  0.17879323098E+02 -0.37126897830E+01  0.19098244713E+02  0.00000000000E+00 0. -1.
</event>
<event>
 7    1  0.5748623E-013  0.5052888E+02  0.7816164E-02  0.1300439E+00
        -11   -1    0    0    0    0  0.00000000000E+00  0.00000000000E+00  0.45593999997E+02  0.45594000000E+02  0.51100000000E-03 0.  1.
         11   -1    0    0    0    0 -0.00000000000E+00 -0.00000000000E+00 -0.45593999997E+02  0.45594000000E+02  0.51100000000E-03 0. -1.
    9900012    2    1    2    0    0  0.31238155616E+01  0.87892121834E+01  0.39574680387E+02  0.50528882914E+02  0.30000070106E+02 0.  0.
         12    1    1    2    0    0 -0.31238155616E+01 -0.87892121834E+01 -0.39574680387E+02  0.40659117086E+02  0.00000000000E+00 0. -1.
         11    1    3    3    0    0  0.40447969710E+00  0.17013558970E+01 -0.38501316336E+00  0.17906566144E+01  0.51100000000E-03 0. -1.
        -11    1    3    3    0    0  0.84029983343E+01 -0.37659717283E+00  0.38297215954E+02  0.39210061929E+02  0.51100000000E-03 0.  1.
        -12    1    3    3    0    0 -0.56836624697E+01  0.74644534593E+01  0.16624775964E+01  0.95281643706E+01  0.00000000000E+00 0.  1.
</event>
<event>
 7    1  0.5748623E-013  0.5052888E+02  0.7816164E-02  0.1300439E+00
        -11   -1    0    0    0    0  0.00000000000E+00  0.00000000000E+00  0.45593999997E+02  0.45594000000E+02  0.51100000000E-03 0.  1.
         11   -1    0    0    0    0 -0.00000000000E+00 -0.00000000000E+00 -0.45593999997E+02  0.45594000000E+02  0.51100000000E-03 0. -1.
    9900012    2    1    2    0    0 -0.29105939606E+02 -0.24435717955E+02  0.14453520570E+02  0.50528876925E+02  0.30000051902E+02 0.  0.
         12    1    1    2    0    0  0.29105939606E+02  0.24435717955E+02 -0.14453520570E+02  0.40659123075E+02  0.00000000000E+00 0. -1.
         11    1    3    3    0    0 -0.34449381355E+01 -0.81602025385E+00  0.15652040766E+00  0.35437249768E+01  0.51100000000E-03 0. -1.
        -11    1    3    3    0    0 -0.25584607723E+02 -0.26195827731E+02  0.19274536388E+02  0.41379962495E+02  0.51100000000E-03 0.  1.
        -12    1    3    3    0    0 -0.76393747308E-01  0.25761300293E+01 -0.49775362258E+01  0.56051894537E+01  0.00000000000E+00 0.  1.
</event>
<event>
 7    1  0.5748623E-013  0.5052886E+02  0.7816164E-02  0.1300439E+00
        -11   -1    0    0    0    0  0.00000000000E+00  0.00000000000E+00  0.45593999997E+02  0.45594000000E+02  0.51100000000E-03 0. -1.
         11   -1    0    0    0    0 -0.00000000000E+00 -0.00000000000E+00 -0.45593999997E+02  0.45594000000E+02  0.51100000000E-03 0.  1.
    9900012    2    1    2    0    0  0.19119823946E+02  0.24033131219E+02 -0.26645947600E+02  0.50528860961E+02  0.30000003376E+02 0.  0.
         12    1    1    2    0    0 -0.19119823946E+02 -0.24033131219E+02  0.26645947600E+02  0.40659139039E+02  0.00000000000E+00 0. -1.
         11    1    3    3    0    0 -0.18596328215E+01  0.79613061713E+01 -0.36199472407E+00  0.81836220969E+01  0.51100000000E-03 0. -1.
        -11    1    3    3    0    0  0.79762078458E+01 -0.42671929751E+01 -0.77199606714E+01  0.11892292484E+02  0.51100000000E-03 0.  1.
        -12    1    3    3    0    0  0.13003248921E+02  0.20339018023E+02 -0.18563992205E+02  0.30452946380E+02  0.00000000000E+00 0.  1.
</event>
<event>
 7    1  0.5748623E-013  0.5052887E+02  0.7816164E-02  0.1300439E+00
        -11   -1    0    0    0    0  0.00000000000E+00  0.00000000000E+00  0.45593999997E+02  0.45594000000E+02  0.51100000000E-03 0.  1.
         11   -1    0    0    0    0 -0.00000000000E+00 -0.00000000000E+00 -0.45593999997E+02  0.45594000000E+02  0.51100000000E-03 0. -1.
    9900012    2    1    2    0    0 -0.16347346394E+02 -0.29495755713E+02  0.22714085416E+02  0.50528867994E+02  0.30000024753E+02 0.  0.
         12    1    1    2    0    0  0.16347346394E+02  0.29495755713E+02 -0.22714085416E+02  0.40659132006E+02  0.00000000000E+00 0. -1.
         11    1    3    3    0    0 -0.47835068377E-01 -0.57607703446E+01 -0.64028621010E+01  0.86130950594E+01  0.51100000000E-03 0. -1.
        -11    1    3    3    0    0 -0.17325489077E+02 -0.23034735856E+02  0.27196025809E+02  0.39628215299E+02  0.51100000000E-03 0.  1.
        -12    1    3    3    0    0  0.10259777510E+01 -0.70024951196E+00  0.19209217079E+01  0.22875576348E+01  0.00000000000E+00 0.  1.
</event>
<event>
 7    1  0.5748623E-013  0.5052885E+02  0.7816164E-02  0.1300439E+00
        -11   -1    0    0    0    0  0.00000000000E+00  0.00000000000E+00  0.45593999997E+02  0.45594000000E+02  0.51100000000E-03 0.  1.
         11   -1    0    0    0    0 -0.00000000000E+00 -0.00000000000E+00 -0.45593999997E+02  0.45594000000E+02  0.51100000000E-03 0. -1.
    9900012    2    1    2    0    0 -0.39631721409E+02  0.90248750756E+01  0.10222103926E+01  0.50528848188E+02  0.29999964552E+02 0.  0.
         12    1    1    2    0    0  0.39631721409E+02 -0.90248750756E+01 -0.10222103926E+01  0.40659151812E+02  0.00000000000E+00 0. -1.
         11    1    3    3    0    0 -0.42616822732E+01  0.12740214242E+02  0.48023983770E+01  0.14266675337E+02  0.51100000000E-03 0. -1.
        -11    1    3    3    0    0 -0.28578065162E+02 -0.16729039464E+01 -0.10004314713E+01  0.28644463329E+02  0.51100000000E-03 0.  1.
         12    1    3    3    0    0 -0.67919739745E+01 -0.20424352198E+01 -0.27797565131E+01  0.76177095225E+01  0.00000000000E+00 0. -1.
</event>
<event>
 7    1  0.5748623E-013  0.5052888E+02  0.7816164E-02  0.1300439E+00
        -11   -1    0    0    0    0  0.00000000000E+00  0.00000000000E+00  0.45593999997E+02  0.45594000000E+02  0.51100000000E-03 0. -1.
         11   -1    0    0    0    0 -0.00000000000E+00 -0.00000000000E+00 -0.45593999997E+02  0.45594000000E+02  0.51100000000E-03 0.  1.
    9900012    2    1    2    0    0 -0.37735627282E+02 -0.12352741771E+02 -0.87519422134E+01  0.50528876939E+02  0.30000051943E+02 0.  0.
         12    1    1    2    0    0  0.37735627282E+02  0.12352741771E+02  0.87519422134E+01  0.40659123061E+02  0.00000000000E+00 0. -1.
         11    1    3    3    0    0 -0.54117288501E+01  0.81664610890E+01  0.10822062840E+01  0.98564226049E+01  0.51100000000E-03 0. -1.
        -11    1    3    3    0    0 -0.22639012132E+02 -0.99375826369E+01 -0.89730868900E+01  0.26302028583E+02  0.51100000000E-03 0.  1.
         12    1    3    3    0    0 -0.96848862992E+01 -0.10581620223E+02 -0.86106160734E+00  0.14370425751E+02  0.00000000000E+00 0. -1.
</event>
<event>
 7    1  0.5748623E-013  0.5052887E+02  0.7816164E-02  0.1300439E+00
        -11   -1    0    0    0    0  0.00000000000E+00  0.00000000000E+00  0.45593999997E+02  0.45594000000E+02  0.51100000000E-03 0.  1.
         11   -1    0    0    0    0 -0.00000000000E+00 -0.00000000000E+00 -0.45593999997E+02  0.45594000000E+02  0.51100000000E-03 0. -1.
    9900012    2    1    2    0    0 -0.27388814117E+02 -0.26418254571E+02 -0.14321094640E+02  0.50528867385E+02  0.30000022903E+02 0.  0.
         12    1    1    2    0    0  0.27388814117E+02  0.26418254571E+02  0.14321094640E+02  0.40659132615E+02  0.00000000000E+00 0. -1.
         11    1    3    3    0    0 -0.12624655660E+02 -0.21504189088E+02 -0.11888872261E+02  0.27625302945E+02  0.51100000000E-03 0. -1.
        -11    1    3    3    0    0  0.23652749053E+01  0.24474573994E-01  0.34042266649E+01  0.41453448385E+01  0.51100000000E-03 0.  1.
         12    1    3    3    0    0 -0.17129433362E+02 -0.49385400571E+01 -0.58364490441E+01  0.18758219602E+02  0.00000000000E+00 0. -1.
</event>
<event>
 7    1  0.5748623E-013  0.5052886E+02  0.7816164E-02  0.1300439E+00
        -11   -1    0    0    0    0  0.00000000000E+00  0.00000000000E+00  0.45593999997E+02  0.45594000000E+02  0.51100000000E-03 0.  1.
         11   -1    0    0    0    0 -0.00000000000E+00 -0.00000000000E+00 -0.45593999997E+02  0.45594000000E+02  0.51100000000E-03 0. -1.
    9900012    2    1    2    0    0 -0.95578092721E+01 -0.95317977155E+01  0.38353085309E+02  0.50528855414E+02  0.29999986516E+02 0.  0.
         12    1    1    2    0    0  0.95578092721E+01  0.95317977155E+01 -0.38353085309E+02  0.40659144586E+02  0.00000000000E+00 0. -1.
         11    1    3    3    0    0 -0.45117114319E+00 -0.11629573271E+02  0.26520530246E+01  0.11936662657E+02  0.51100000000E-03 0. -1.
        -11    1    3    3    0    0 -0.77322686833E+01  0.88089583378E+00  0.35910978417E+02  0.36744555074E+02  0.51100000000E-03 0.  1.
        -12    1    3    3    0    0 -0.13743694455E+01  0.12168797220E+01 -0.20994613227E+00  0.18476376834E+01  0.00000000000E+00 0.  1.
</event>
<event>
 7    1  0.5748623E-013  0.5052886E+02  0.7816164E-02  0.1300439E+00
        -11   -1    0    0    0    0  0.00000000000E+00  0.00000000000E+00  0.45593999997E+02  0.45594000000E+02  0.51100000000E-03 0.  1.
         11   -1    0    0    0    0 -0.00000000000E+00 -0.00000000000E+00 -0.45593999997E+02  0.45594000000E+02  0.51100000000E-03 0. -1.
    9900012    2    1    2    0    0 -0.16999292227E+02  0.25269587324E+02  0.26937660041E+02  0.50528861934E+02  0.30000006335E+02 0.  0.
         12    1    1    2    0    0  0.16999292227E+02 -0.25269587324E+02 -0.26937660041E+02  0.40659138066E+02  0.00000000000E+00 0. -1.
         11    1    3    3    0    0 -0.16519382159E+02  0.26158041141E+02  0.17779659878E+02  0.35682620544E+02  0.51100000000E-03 0. -1.
        -11    1    3    3    0    0  0.40769476697E+01 -0.11365880734E+01  0.93659917926E+01  0.10277895566E+02  0.51100000000E-03 0.  1.
        -12    1    3    3    0    0 -0.45568577379E+01  0.24813425634E+00 -0.20799162876E+00  0.45683458243E+01  0.00000000000E+00 0.  1.
</event>
<event>
 7    1  0.5748623E-013  0.5052886E+02  0.7816164E-02  0.1300439E+00
        -11   -1    0    0    0    0  0.00000000000E+00  0.00000000000E+00  0.45593999997E+02  0.45594000000E+02  0.51100000000E-03 0.  1.
         11   -1    0    0    0    0 -0.00000000000E+00 -0.00000000000E+00 -0.45593999997E+02  0.45594000000E+02  0.51100000000E-03 0. -1.
    9900012    2    1    2    0    0 -0.38065796804E+02  0.11792222554E+02  0.80687325831E+01  0.50528857798E+02  0.29999993763E+02 0.  0.
         12    1    1    2    0    0  0.38065796804E+02 -0.11792222554E+02 -0.80687325831E+01  0.40659142202E+02  0.00000000000E+00 0. -1.
         11    1    3    3    0    0 -0.18576528197E+02 -0.16555543099E+01 -0.71974917901E+01  0.19990801591E+02  0.51100000000E-03 0. -1.
        -11    1    3    3    0    0 -0.21030524194E+02  0.13309091981E+02  0.14589620339E+02  0.28849123022E+02  0.51100000000E-03 0.  1.
         12    1    3    3    0    0  0.15412555875E+01  0.13868488219E+00  0.67660403468E+00  0.16889331847E+01  0.00000000000E+00 0. -1.
</event>
<event>
 7    1  0.5748623E-013  0.5052886E+02  0.7816164E-02  0.1300439E+00
        -11   -1    0    0    0    0  0.00000000000E+00  0.00000000000E+00  0.45593999997E+02  0.45594000000E+02  0.51100000000E-03 0. -1.
         11   -1    0    0    0    0 -0.00000000000E+00 -0.00000000000E+00 -0.45593999997E+02  0.45594000000E+02  0.51100000000E-03 0.  1.
    9900012    2    1    2    0    0  0.64109704860E+01  0.33960077295E+02 -0.21419109779E+02  0.50528860115E+02  0.30000000806E+02 0.  0.
         12    1    1    2    0    0 -0.64109704860E+01 -0.33960077295E+02  0.21419109779E+02  0.40659139885E+02  0.00000000000E+00 0. -1.
         11    1    3    3    0    0 -0.26255574204E+01 -0.14193600046E+01  0.77173709078E+00  0.30828092690E+01  0.51100000000E-03 0. -1.
        -11    1    3    3    0    0  0.37235887168E+01  0.34825453395E+02 -0.23198509604E+02  0.42010095991E+02  0.51100000000E-03 0.  1.
        -12    1    3    3    0    0  0.53129391897E+01  0.55398390505E+00  0.10076627345E+01  0.54359548551E+01  0.00000000000E+00 0.  1.
</event>
<event>
 7    1  0.5748623E-013  0.5052886E+02  0.7816164E-02  0.1300439E+00
        -11   -1    0    0    0    0  0.00000000000E+00  0.00000000000E+00  0.45593999997E+02  0.45594000000E+02  0.51100000000E-03 0.  1.
         11   -1    0    0    0    0 -0.00000000000E+00 -0.00000000000E+00 -0.45593999997E+02  0.45594000000E+02  0.51100000000E-03 0. -1.
    9900012    2    1    2    0    0  0.24033722078E+02  0.75758039242E+01  0.31908505419E+02  0.50528864248E+02  0.30000013368E+02 0.  0.
         12    1    1    2    0    0 -0.24033722078E+02 -0.75758039242E+01 -0.31908505419E+02  0.40659135752E+02  0.00000000000E+00 0. -1.
         11    1    3    3    0    0 -0.39567467574E+01  0.29817312607E+01 -0.23698460043E+01  0.54920612304E+01  0.51100000000E-03 0. -1.
        -11    1    3    3    0    0  0.12181010412E+02  0.70273074808E+00  0.19754864166E+02  0.23219076288E+02  0.51100000000E-03 0.  1.
         12    1    3    3    0    0  0.15809458424E+02  0.38913419154E+01  0.14523487257E+02  0.21817726730E+02  0.00000000000E+00 0. -1.
</event>
<event>
 7    1  0.5748623E-013  0.5052886E+02  0.7816164E-02  0.1300439E+00
        -11   -1    0    0    0    0  0.00000000000E+00  0.00000000000E+00  0.45593999997E+02  0.45594000000E+02  0.51100000000E-03 0.  1.
         11   -1    0    0    0    0 -0.00000000000E+00 -0.00000000000E+00 -0.45593999997E+02  0.45594000000E+02  0.51100000000E-03 0. -1.
    9900012    2    1    2    0    0 -0.56486848102E+01  0.20761319837E+02  0.34499647978E+02  0.50528858936E+02  0.29999997222E+02 0.  0.
         12    1    1    2    0    0  0.56486848102E+01 -0.20761319837E+02 -0.34499647978E+02  0.40659141064E+02  0.00000000000E+00 0. -1.
         11    1    3    3    0    0  0.13634200360E+01  0.22099510015E+02  0.10255784880E+02  0.24401401207E+02  0.51100000000E-03 0. -1.
        -11    1    3    3    0    0 -0.47823424156E+01 -0.24987673746E+00  0.58185348556E+01  0.75358201605E+01  0.51100000000E-03 0.  1.
         12    1    3    3    0    0 -0.22297624306E+01 -0.10883134404E+01  0.18425328243E+02  0.18591637569E+02  0.00000000000E+00 0. -1.
</event>
<event>
 7    1  0.5748623E-013  0.5052886E+02  0.7816164E-02  0.1300439E+00
        -11   -1    0    0    0    0  0.00000000000E+00  0.00000000000E+00  0.45593999997E+02  0.45594000000E+02  0.51100000000E-03 0.  1.
         11   -1    0    0    0    0 -0.00000000000E+00 -0.00000000000E+00 -0.45593999997E+02  0.45594000000E+02  0.51100000000E-03 0. -1.
    9900012    2    1    2    0    0 -0.36729329827E+02 -0.55549894659E+01  0.16530703593E+02  0.50528859099E+02  0.29999997717E+02 0.  0.
         12    1    1    2    0    0  0.36729329827E+02  0.55549894659E+01 -0.16530703593E+02  0.40659140901E+02  0.00000000000E+00 0. -1.
         11    1    3    3    0    0 -0.24715833179E+02 -0.50556309792E-01 -0.46904993123E+01  0.25157021877E+02  0.51100000000E-03 0. -1.
        -11    1    3    3    0    0 -0.72020689818E+01 -0.13914432260E+01  0.90169812070E+01  0.11623762825E+02  0.51100000000E-03 0.  1.
         12    1    3    3    0    0 -0.48114276669E+01 -0.41129899301E+01  0.12204221698E+02  0.13748074397E+02  0.00000000000E+00 0. -1.
</event>
<event>
 7    1  0.5748623E-013  0.5052885E+02  0.7816164E-02  0.1300439E+00
        -11   -1    0    0    0    0  0.00000000000E+00  0.00000000000E+00  0.45593999997E+02  0.45594000000E+02  0.51100000000E-03 0.  1.
         11   -1    0    0    0    0 -0.00000000000E+00 -0.00000000000E+00 -0.45593999997E+02  0.45594000000E+02  0.51100000000E-03 0. -1.
    9900012    2    1    2    0    0 -0.19514362601E+02  0.29384957569E+02 -0.20220785247E+02  0.50528852997E+02  0.29999979169E+02 0.  0.
         12    1    1    2    0    0  0.19514362601E+02 -0.29384957569E+02  0.20220785247E+02  0.40659147003E+02  0.00000000000E+00 0. -1.
         11    1    3    3    0    0 -0.15360762911E+02  0.16601426412E+02 -0.26454751194E+02  0.34805376842E+02  0.51100000000E-03 0. -1.
        -11    1    3    3    0    0 -0.43090740695E+00  0.49060629211E+00 -0.83695432399E+00  0.10615406393E+01  0.51100000000E-03 0.  1.
         12    1    3    3    0    0 -0.37226922836E+01  0.12292924865E+02  0.70709202718E+01  0.14661935515E+02  0.00000000000E+00 0. -1.
</event>
<event>
 7    1  0.5748623E-013  0.5052886E+02  0.7816164E-02  0.1300439E+00
        -11   -1    0    0    0    0  0.00000000000E+00  0.00000000000E+00  0.45593999997E+02  0.45594000000E+02  0.51100000000E-03 0. -1.
         11   -1    0    0    0    0 -0.00000000000E+00 -0.00000000000E+00 -0.45593999997E+02  0.45594000000E+02  0.51100000000E-03 0.  1.
    9900012    2    1    2    0    0 -0.31882122616E+02 -0.17497460695E+02  0.18180613598E+02  0.50528861002E+02  0.30000003502E+02 0.  0.
         12    1    1    2    0    0  0.31882122616E+02  0.17497460695E+02 -0.18180613598E+02  0.40659138998E+02  0.00000000000E+00 0. -1.
         11    1    3    3    0    0 -0.23125264206E+02 -0.12233886945E+02  0.15286778457E+01  0.26206539081E+02  0.51100000000E-03 0. -1.
        -11    1    3    3    0    0 -0.30334691567E+01  0.47231410544E+01  0.26819627188E+01  0.62211671599E+01  0.51100000000E-03 0.  1.
         12    1    3    3    0    0 -0.57233892529E+01 -0.99867148049E+01  0.13969973034E+02  0.18101154761E+02  0.00000000000E+00 0. -1.
</event>
<event>
 7    1  0.5748623E-013  0.5052885E+02  0.7816164E-02  0.1300439E+00
        -11   -1    0    0    0    0  0.00000000000E+00  0.00000000000E+00  0.45593999997E+02  0.45594000000E+02  0.51100000000E-03 0.  1.
         11   -1    0    0    0    0 -0.00000000000E+00 -0.00000000000E+00 -0.45593999997E+02  0.45594000000E+02  0.51100000000E-03 0. -1.
    9900012    2    1    2    0    0 -0.17866726518E+02 -0.33107175641E+02  0.15422749974E+02  0.50528853278E+02  0.29999980022E+02 0.  0.
         12    1    1    2    0    0  0.17866726518E+02  0.33107175641E+02 -0.15422749974E+02  0.40659146722E+02  0.00000000000E+00 0. -1.
         11    1    3    3    0    0 -0.23643534938E+02 -0.20177196732E+02  0.35955994040E+01  0.31290003957E+02  0.51100000000E-03 0. -1.
        -11    1    3    3    0    0  0.33117841556E+01 -0.11831911081E+02  0.10776349827E+02  0.16342941901E+02  0.51100000000E-03 0.  1.
         12    1    3    3    0    0  0.24650242639E+01 -0.10980678283E+01  0.10508007432E+01  0.28959074190E+01  0.00000000000E+00 0. -1.
</event>
<event>
 7    1  0.5748623E-013  0.5052882E+02  0.7816164E-02  0.1300439E+00
        -11   -1    0    0    0    0  0.00000000000E+00  0.00000000000E+00  0.45593999997E+02  0.45594000000E+02  0.51100000000E-03 0. -1.
         11   -1    0    0    0    0 -0.00000000000E+00 -0.00000000000E+00 -0.45593999997E+02  0.45594000000E+02  0.51100000000E-03 0.  1.
    9900012    2    1    2    0    0 -0.38505531438E+02  0.91900885517E+01  0.92755011220E+01  0.50528823914E+02  0.29999890770E+02 0.  0.
         12    1    1    2    0    0  0.38505531438E+02 -0.91900885517E+01 -0.92755011220E+01  0.40659176086E+02  0.00000000000E+00 0. -1.
         11    1    3    3    0    0 -0.36527416462E+01  0.12784542256E+02  0.48206679782E+01  0.14143050670E+02  0.51100000000E-03 0. -1.
        -11    1    3    3    0    0 -0.30714275057E+02 -0.28371826599E+00  0.28461427254E+01  0.30847167083E+02  0.51100000000E-03 0.  1.
         12    1    3    3    0    0 -0.41385147346E+01 -0.33107354386E+01  0.16086904185E+01  0.55386061618E+01  0.00000000000E+00 0. -1.
</event>
<event>
 7    1  0.5748623E-013  0.5052886E+02  0.7816164E-02  0.1300439E+00
        -11   -1    0    0    0    0  0.00000000000E+00  0.00000000000E+00  0.45593999997E+02  0.45594000000E+02  0.51100000000E-03 0. -1.
         11   -1    0    0    0    0 -0.00000000000E+00 -0.00000000000E+00 -0.45593999997E+02  0.45594000000E+02  0.51100000000E-03 0.  1.
    9900012    2    1    2    0    0 -0.42590792673E+01  0.39508978544E+02 -0.86061765726E+01  0.50528863056E+02  0.30000009746E+02 0.  0.
         12    1    1    2    0    0  0.42590792673E+01 -0.39508978544E+02  0.86061765726E+01  0.40659136944E+02  0.00000000000E+00 0. -1.
         11    1    3    3    0    0 -0.90169857274E+01  0.15058179168E+02  0.92043234294E+01  0.19818535806E+02  0.51100000000E-03 0. -1.
        -11    1    3    3    0    0  0.21726017629E+01  0.94963573462E+01 -0.83187907216E+01  0.12810280270E+02  0.51100000000E-03 0.  1.
         12    1    3    3    0    0  0.25853046972E+01  0.14954442030E+02 -0.94917092803E+01  0.17900046980E+02  0.00000000000E+00 0. -1.
</event>
<event>
 7    1  0.5748623E-013  0.5052886E+02  0.7816164E-02  0.1300439E+00
        -11   -1    0    0    0    0  0.00000000000E+00  0.00000000000E+00  0.45593999997E+02  0.45594000000E+02  0.51100000000E-03 0. -1.
         11   -1    0    0    0    0 -0.00000000000E+00 -0.00000000000E+00 -0.45593999997E+02  0.45594000000E+02  0.51100000000E-03 0.  1.
    9900012    2    1    2    0    0  0.12750932310E+02  0.37396821977E+02 -0.95946218916E+01  0.50528864028E+02  0.30000012699E+02 0.  0.
         12    1    1    2    0    0 -0.12750932310E+02 -0.37396821977E+02  0.95946218916E+01  0.40659135972E+02  0.00000000000E+00 0. -1.
         11    1    3    3    0    0  0.64148665607E+01  0.23082589551E+02  0.89688413749E+01  0.25581176072E+02  0.51100000000E-03 0. -1.
        -11    1    3    3    0    0  0.39247644433E+01  0.26639871943E+01 -0.59360286524E+01  0.75984893321E+01  0.51100000000E-03 0.  1.
         12    1    3    3    0    0  0.24113013064E+01  0.11650245231E+02 -0.12627434614E+02  0.17349198623E+02  0.00000000000E+00 0. -1.
</event>
<event>
 7    1  0.5748623E-013  0.5052886E+02  0.7816164E-02  0.1300439E+00
        -11   -1    0    0    0    0  0.00000000000E+00  0.00000000000E+00  0.45593999997E+02  0.45594000000E+02  0.51100000000E-03 0.  1.
         11   -1    0    0    0    0 -0.00000000000E+00 -0.00000000000E+00 -0.45593999997E+02  0.45594000000E+02  0.51100000000E-03 0. -1.
    9900012    2    1    2    0    0 -0.23398640298E+01  0.94765425199E+01  0.39470057641E+02  0.50528864839E+02  0.30000015166E+02 0.  0.
         12    1    1    2    0    0  0.23398640298E+01 -0.94765425199E+01 -0.39470057641E+02  0.40659135161E+02  0.00000000000E+00 0. -1.
         11    1    3    3    0    0  0.58830386588E+00  0.75313684897E+01 -0.26303026520E+00  0.75588886715E+01  0.51100000000E-03 0. -1.
        -11    1    3    3    0    0  0.14027531812E+01 -0.54308507494E+01  0.27354439295E+02  0.27923595860E+02  0.51100000000E-03 0.  1.
        -12    1    3    3    0    0 -0.43309210769E+01  0.73760247796E+01  0.12378648612E+02  0.15046380308E+02  0.00000000000E+00 0.  1.
</event>
<event>
 7    1  0.5748623E-013  0.5052888E+02  0.7816164E-02  0.1300439E+00
        -11   -1    0    0    0    0  0.00000000000E+00  0.00000000000E+00  0.45593999997E+02  0.45594000000E+02  0.51100000000E-03 0.  1.
         11   -1    0    0    0    0 -0.00000000000E+00 -0.00000000000E+00 -0.45593999997E+02  0.45594000000E+02  0.51100000000E-03 0. -1.
    9900012    2    1    2    0    0 -0.26708453664E+02 -0.21843512489E+02  0.21510077143E+02  0.50528881051E+02  0.30000064442E+02 0.  0.
         12    1    1    2    0    0  0.26708453664E+02  0.21843512489E+02 -0.21510077143E+02  0.40659118949E+02  0.00000000000E+00 0. -1.
         11    1    3    3    0    0  0.21299633020E+01 -0.28986361622E+01  0.21334086401E+01  0.41821367691E+01  0.51100000000E-03 0. -1.
        -11    1    3    3    0    0 -0.29528583088E+02 -0.74167112288E+01  0.12548462874E+02  0.32930362060E+02  0.51100000000E-03 0.  1.
        -12    1    3    3    0    0  0.69016612128E+00 -0.11528165098E+02  0.68282056290E+01  0.13416382222E+02  0.00000000000E+00 0.  1.
</event>
<event>
 7    1  0.5748623E-013  0.5052887E+02  0.7816164E-02  0.1300439E+00
        -11   -1    0    0    0    0  0.00000000000E+00  0.00000000000E+00  0.45593999997E+02  0.45594000000E+02  0.51100000000E-03 0. -1.
         11   -1    0    0    0    0 -0.00000000000E+00 -0.00000000000E+00 -0.45593999997E+02  0.45594000000E+02  0.51100000000E-03 0.  1.
    9900012    2    1    2    0    0  0.16234419872E+02  0.15917996684E+02 -0.33707954615E+02  0.50528865585E+02  0.30000017433E+02 0.  0.
         12    1    1    2    0    0 -0.16234419872E+02 -0.15917996684E+02  0.33707954615E+02  0.40659134415E+02  0.00000000000E+00 0. -1.
         11    1    3    3    0    0  0.18880614952E+02  0.74415785609E+01 -0.12155043982E+02  0.23655861999E+02  0.51100000000E-03 0. -1.
        -11    1    3    3    0    0  0.32542693504E+00 -0.18264431321E+01 -0.13068428252E+02  0.13199455082E+02  0.51100000000E-03 0.  1.
         12    1    3    3    0    0 -0.29716220151E+01  0.10302861255E+02 -0.84844823808E+01  0.13673548505E+02  0.00000000000E+00 0. -1.
</event>
<event>
 7    1  0.5748623E-013  0.5052886E+02  0.7816164E-02  0.1300439E+00
        -11   -1    0    0    0    0  0.00000000000E+00  0.00000000000E+00  0.45593999997E+02  0.45594000000E+02  0.51100000000E-03 0. -1.
         11   -1    0    0    0    0 -0.00000000000E+00 -0.00000000000E+00 -0.45593999997E+02  0.45594000000E+02  0.51100000000E-03 0.  1.
    9900012    2    1    2    0    0 -0.31230058879E+02 -0.12544299942E+02 -0.22814239901E+02  0.50528861041E+02  0.30000003621E+02 0.  0.
         12    1    1    2    0    0  0.31230058879E+02  0.12544299942E+02  0.22814239901E+02  0.40659138959E+02  0.00000000000E+00 0. -1.
         11    1    3    3    0    0 -0.55990945289E+01 -0.91601890872E+00  0.24466009345E+01  0.61785764201E+01  0.51100000000E-03 0. -1.
        -11    1    3    3    0    0 -0.15148668605E+02 -0.18405484230E+02 -0.18348980625E+02  0.30082039500E+02  0.51100000000E-03 0.  1.
        -12    1    3    3    0    0 -0.10482295745E+02  0.67772031974E+01 -0.69118602102E+01  0.14268245121E+02  0.00000000000E+00 0.  1.
</event>
<event>
 7    1  0.5748623E-013  0.5052886E+02  0.7816164E-02  0.1300439E+00
        -11   -1    0    0    0    0  0.00000000000E+00  0.00000000000E+00  0.45593999997E+02  0.45594000000E+02  0.51100000000E-03 0.  1.
         11   -1    0    0    0    0 -0.00000000000E+00 -0.00000000000E+00 -0.45593999997E+02  0.45594000000E+02  0.51100000000E-03 0. -1.
    9900012    2    1    2    0    0  0.14315792386E+02 -0.22249156694E+02  0.30873917797E+02  0.50528859756E+02  0.29999999715E+02 0.  0.
         12    1    1    2    0    0 -0.14315792386E+02  0.22249156694E+02 -0.30873917797E+02  0.40659140244E+02  0.00000000000E+00 0. -1.
         11    1    3    3    0    0  0.80023450139E+01 -0.87248228242E+01  0.20319781179E+02  0.23517090944E+02  0.51100000000E-03 0. -1.
        -11    1    3    3    0    0  0.71686482014E+00 -0.15440506175E+02  0.64423796056E+00  0.15470558133E+02  0.51100000000E-03 0.  1.
        -12    1    3    3    0    0  0.55965825515E+01  0.19161723053E+01  0.99098986572E+01  0.11541210680E+02  0.00000000000E+00 0.  1.
</event>
<event>
 7    1  0.5748623E-013  0.5052885E+02  0.7816164E-02  0.1300439E+00
        -11   -1    0    0    0    0  0.00000000000E+00  0.00000000000E+00  0.45593999997E+02  0.45594000000E+02  0.51100000000E-03 0.  1.
         11   -1    0    0    0    0 -0.00000000000E+00 -0.00000000000E+00 -0.45593999997E+02  0.45594000000E+02  0.51100000000E-03 0. -1.
    9900012    2    1    2    0    0 -0.16286613801E+02  0.18091395428E+02  0.32567067161E+02  0.50528852923E+02  0.29999978943E+02 0.  0.
         12    1    1    2    0    0  0.16286613801E+02 -0.18091395428E+02 -0.32567067161E+02  0.40659147077E+02  0.00000000000E+00 0. -1.
         11    1    3    3    0    0 -0.76207883921E+01  0.17692007459E+02  0.47215846991E+01  0.19833731519E+02  0.51100000000E-03 0. -1.
        -11    1    3    3    0    0 -0.54320723653E+01  0.48373039409E+01  0.18139743877E+02  0.19543726047E+02  0.51100000000E-03 0.  1.
         12    1    3    3    0    0 -0.32337530432E+01 -0.44379159724E+01  0.97057385843E+01  0.11151395356E+02  0.00000000000E+00 0. -1.
</event>
<event>
 7    1  0.5748623E-013  0.5052882E+02  0.7816164E-02  0.1300439E+00
        -11   -1    0    0    0    0  0.00000000000E+00  0.00000000000E+00  0.45593999997E+02  0.45594000000E+02  0.51100000000E-03 0. -1.
         11   -1    0    0    0    0 -0.00000000000E+00 -0.00000000000E+00 -0.45593999997E+02  0.45594000000E+02  0.51100000000E-03 0.  1.
    9900012    2    1    2    0    0  0.23974622691E+02  0.19716477244E+02 -0.26261131149E+02  0.50528818782E+02  0.29999875170E+02 0.  0.
         12    1    1    2    0    0 -0.23974622691E+02 -0.19716477244E+02  0.26261131149E+02  0.40659181218E+02  0.00000000000E+00 0. -1.
         11    1    3    3    0    0 -0.50100439488E+01  0.98705793808E+00 -0.29993352093E+01  0.59220634665E+01  0.51100000000E-03 0. -1.
        -11    1    3    3    0    0  0.14624707932E+02  0.18365061207E+02 -0.12075319786E+02  0.26400206503E+02  0.51100000000E-03 0.  1.
        -12    1    3    3    0    0  0.14359958708E+02  0.36435809882E+00 -0.11186476154E+02  0.18206548813E+02  0.00000000000E+00 0.  1.
</event>
<event>
 7    1  0.5748623E-013  0.5052886E+02  0.7816164E-02  0.1300439E+00
        -11   -1    0    0    0    0  0.00000000000E+00  0.00000000000E+00  0.45593999997E+02  0.45594000000E+02  0.51100000000E-03 0. -1.
         11   -1    0    0    0    0 -0.00000000000E+00 -0.00000000000E+00 -0.45593999997E+02  0.45594000000E+02  0.51100000000E-03 0.  1.
    9900012    2    1    2    0    0 -0.15454999680E+02  0.17232620979E+02 -0.33426718290E+02  0.50528859127E+02  0.29999997803E+02 0.  0.
         12    1    1    2    0    0  0.15454999680E+02 -0.17232620979E+02  0.33426718290E+02  0.40659140873E+02  0.00000000000E+00 0. -1.
         11    1    3    3    0    0 -0.25659706452E+01 -0.10837284087E+01  0.18414080125E+01  0.33390801646E+01  0.51100000000E-03 0. -1.
        -11    1    3    3    0    0 -0.15647152314E+02  0.19967690515E+02 -0.22130409799E+02  0.33664477988E+02  0.51100000000E-03 0.  1.
        -12    1    3    3    0    0  0.27581232794E+01 -0.16513411275E+01 -0.13137716503E+02  0.13525300975E+02  0.00000000000E+00 0.  1.
</event>
<event>
 7    1  0.5748623E-013  0.5052887E+02  0.7816164E-02  0.1300439E+00
        -11   -1    0    0    0    0  0.00000000000E+00  0.00000000000E+00  0.45593999997E+02  0.45594000000E+02  0.51100000000E-03 0. -1.
         11   -1    0    0    0    0 -0.00000000000E+00 -0.00000000000E+00 -0.45593999997E+02  0.45594000000E+02  0.51100000000E-03 0.  1.
    9900012    2    1    2    0    0  0.62371857812E+01  0.31389540894E+02 -0.25079063402E+02  0.50528865907E+02  0.30000018412E+02 0.  0.
         12    1    1    2    0    0 -0.62371857812E+01 -0.31389540894E+02  0.25079063402E+02  0.40659134093E+02  0.00000000000E+00 0. -1.
         11    1    3    3    0    0 -0.67713620499E+01 -0.12979898528E+01 -0.84000200953E+01  0.10867219494E+02  0.51100000000E-03 0. -1.
        -11    1    3    3    0    0  0.56197206410E+01  0.19894417174E+02 -0.63173519562E+01  0.21616614693E+02  0.51100000000E-03 0.  1.
         12    1    3    3    0    0  0.73888271900E+01  0.12793113573E+02 -0.10361691351E+02  0.18045031720E+02  0.00000000000E+00 0. -1.
</event>
<event>
 7    1  0.5748623E-013  0.5052886E+02  0.7816164E-02  0.1300439E+00
        -11   -1    0    0    0    0  0.00000000000E+00  0.00000000000E+00  0.45593999997E+02  0.45594000000E+02  0.51100000000E-03 0. -1.
         11   -1    0    0    0    0 -0.00000000000E+00 -0.00000000000E+00 -0.45593999997E+02  0.45594000000E+02  0.51100000000E-03 0.  1.
    9900012    2    1    2    0    0  0.24860891848E+02 -0.31102913947E+02 -0.82286174352E+01  0.50528863950E+02  0.30000012461E+02 0.  0.
         12    1    1    2    0    0 -0.24860891848E+02  0.31102913947E+02  0.82286174352E+01  0.40659136050E+02  0.00000000000E+00 0. -1.
         11    1    3    3    0    0  0.80481396066E+01 -0.50546962107E+01 -0.25207746614E+01  0.98324366291E+01  0.51100000000E-03 0. -1.
        -11    1    3    3    0    0 -0.82739940555E+00 -0.21309430005E+02 -0.68406083389E+01  0.22395765663E+02  0.51100000000E-03 0.  1.
        -12    1    3    3    0    0  0.17640151647E+02 -0.47387877312E+01  0.11327655651E+01  0.18300661658E+02  0.00000000000E+00 0.  1.
</event>
<event>
 7    1  0.5748623E-013  0.5052886E+02  0.7816164E-02  0.1300439E+00
        -11   -1    0    0    0    0  0.00000000000E+00  0.00000000000E+00  0.45593999997E+02  0.45594000000E+02  0.51100000000E-03 0.  1.
         11   -1    0    0    0    0 -0.00000000000E+00 -0.00000000000E+00 -0.45593999997E+02  0.45594000000E+02  0.51100000000E-03 0. -1.
    9900012    2    1    2    0    0  0.28974347289E+02 -0.13804150449E+02  0.24961938401E+02  0.50528859095E+02  0.29999997704E+02 0.  0.
         12    1    1    2    0    0 -0.28974347289E+02  0.13804150449E+02 -0.24961938401E+02  0.40659140905E+02  0.00000000000E+00 0. -1.
         11    1    3    3    0    0 -0.56069903844E+00 -0.43061856409E+01  0.41003975334E+01  0.59725102242E+01  0.51100000000E-03 0. -1.
        -11    1    3    3    0    0  0.21856651779E+02 -0.14578304522E+01  0.11618350314E+01  0.21936005961E+02  0.51100000000E-03 0.  1.
        -12    1    3    3    0    0  0.76783945479E+01 -0.80401343562E+01  0.19699705836E+02  0.22620342909E+02  0.00000000000E+00 0.  1.
</event>
<event>
 7    1  0.5748623E-013  0.5052887E+02  0.7816164E-02  0.1300439E+00
        -11   -1    0    0    0    0  0.00000000000E+00  0.00000000000E+00  0.45593999997E+02  0.45594000000E+02  0.51100000000E-03 0.  1.
         11   -1    0    0    0    0 -0.00000000000E+00 -0.00000000000E+00 -0.45593999997E+02  0.45594000000E+02  0.51100000000E-03 0. -1.
    9900012    2    1    2    0    0  0.11371303988E+02 -0.30136115392E+01  0.38920130615E+02  0.50528868480E+02  0.30000026231E+02 0.  0.
         12    1    1    2    0    0 -0.11371303988E+02  0.30136115392E+01 -0.38920130615E+02  0.40659131520E+02  0.00000000000E+00 0. -1.
         11    1    3    3    0    0 -0.49184114545E+01  0.10631484426E+01  0.28779213919E+01  0.57968515287E+01  0.51100000000E-03 0. -1.
        -11    1    3    3    0    0  0.15830871239E+02  0.26935453034E+01  0.12848116015E+02  0.20565645039E+02  0.51100000000E-03 0.  1.
        -12    1    3    3    0    0  0.45884420401E+00 -0.67703052852E+01  0.23194093208E+02  0.24166371912E+02  0.00000000000E+00 0.  1.
</event>
<event>
 7    1  0.5748623E-013  0.5052886E+02  0.7816164E-02  0.1300439E+00
        -11   -1    0    0    0    0  0.00000000000E+00  0.00000000000E+00  0.45593999997E+02  0.45594000000E+02  0.51100000000E-03 0. -1.
         11   -1    0    0    0    0 -0.00000000000E+00 -0.00000000000E+00 -0.45593999997E+02  0.45594000000E+02  0.51100000000E-03 0.  1.
    9900012    2    1    2    0    0  0.10785323038E+02 -0.38266129078E+02  0.85173852634E+01  0.50528859830E+02  0.29999999939E+02 0.  0.
         12    1    1    2    0    0 -0.10785323038E+02  0.38266129078E+02 -0.85173852634E+01  0.40659140170E+02  0.00000000000E+00 0. -1.
         11    1    3    3    0    0  0.20789716772E+01 -0.98003658343E+01  0.93994900406E+01  0.13737529145E+02  0.51100000000E-03 0. -1.
        -11    1    3    3    0    0  0.14510275048E+01  0.35002634908E+01 -0.13109210350E+01  0.40094687361E+01  0.51100000000E-03 0.  1.
        -12    1    3    3    0    0  0.72553238557E+01 -0.31966026735E+02  0.42881625769E+00  0.32781861949E+02  0.00000000000E+00 0.  1.
</event>
<event>
 7    1  0.5748623E-013  0.5052884E+02  0.7816164E-02  0.1300439E+00
        -11   -1    0    0    0    0  0.00000000000E+00  0.00000000000E+00  0.45593999997E+02  0.45594000000E+02  0.51100000000E-03 0.  1.
         11   -1    0    0    0    0 -0.00000000000E+00 -0.00000000000E+00 -0.45593999997E+02  0.45594000000E+02  0.51100000000E-03 0. -1.
    9900012    2    1    2    0    0 -0.27023754510E+02 -0.11359694143E+01  0.30357762927E+02  0.50528837388E+02  0.29999931726E+02 0.  0.
         12    1    1    2    0    0  0.27023754510E+02  0.11359694143E+01 -0.30357762927E+02  0.40659162612E+02  0.00000000000E+00 0. -1.
         11    1    3    3    0    0 -0.27878602983E+01 -0.94578061779E+01  0.95208148040E+01  0.13706501287E+02  0.51100000000E-03 0. -1.
        -11    1    3    3    0    0 -0.25166378519E+02  0.10930362286E+02  0.17766738914E+02  0.32687557868E+02  0.51100000000E-03 0.  1.
        -12    1    3    3    0    0  0.93048430751E+00 -0.26085255227E+01  0.30702092090E+01  0.41347782330E+01  0.00000000000E+00 0.  1.
</event>
<event>
 7    1  0.5748623E-013  0.5052885E+02  0.7816164E-02  0.1300439E+00
        -11   -1    0    0    0    0  0.00000000000E+00  0.00000000000E+00  0.45593999997E+02  0.45594000000E+02  0.51100000000E-03 0. -1.
         11   -1    0    0    0    0 -0.00000000000E+00 -0.00000000000E+00 -0.45593999997E+02  0.45594000000E+02  0.51100000000E-03 0.  1.
    9900012    2    1    2    0    0  0.12802975417E+02  0.18954973058E+02 -0.33614869463E+02  0.50528848113E+02  0.29999964323E+02 0.  0.
         12    1    1    2    0    0 -0.12802975417E+02 -0.18954973058E+02  0.33614869463E+02  0.40659151887E+02  0.00000000000E+00 0. -1.
         11    1    3    3    0    0 -0.65850217251E+01  0.69193494003E+01 -0.20036513005E+02  0.22196886288E+02  0.51100000000E-03 0. -1.
        -11    1    3    3    0    0 -0.77524710573E+00 -0.30810232078E+00 -0.16560957826E+01  0.18543431768E+01  0.51100000000E-03 0.  1.
         12    1    3    3    0    0  0.20163244248E+02  0.12343725978E+02 -0.11922260676E+02  0.26477618648E+02  0.00000000000E+00 0. -1.
</event>
<event>
 7    1  0.5748623E-013  0.5052888E+02  0.7816164E-02  0.1300439E+00
        -11   -1    0    0    0    0  0.00000000000E+00  0.00000000000E+00  0.45593999997E+02  0.45594000000E+02  0.51100000000E-03 0.  1.
         11   -1    0    0    0    0 -0.00000000000E+00 -0.00000000000E+00 -0.45593999997E+02  0.45594000000E+02  0.51100000000E-03 0. -1.
    9900012    2    1    2    0    0  0.37705540291E+02  0.15020724155E+02 -0.24154097135E+01  0.50528878922E+02  0.30000057971E+02 0.  0.
         12    1    1    2    0    0 -0.37705540291E+02 -0.15020724155E+02  0.24154097135E+01  0.40659121078E+02  0.00000000000E+00 0. -1.
         11    1    3    3    0    0  0.15624295355E+02  0.13237426513E+02  0.84930864947E+01  0.22169361391E+02  0.51100000000E-03 0. -1.
        -11    1    3    3    0    0  0.17423275577E+02  0.73074536186E+01 -0.87252330950E+01  0.20811033204E+02  0.51100000000E-03 0.  1.
         12    1    3    3    0    0  0.46579693593E+01 -0.55241559767E+01 -0.21832631132E+01  0.75484843266E+01  0.00000000000E+00 0. -1.
</event>
<event>
 7    1  0.5748623E-013  0.5052887E+02  0.7816164E-02  0.1300439E+00
        -11   -1    0    0    0    0  0.00000000000E+00  0.00000000000E+00  0.45593999997E+02  0.45594000000E+02  0.51100000000E-03 0.  1.
         11   -1    0    0    0    0 -0.00000000000E+00 -0.00000000000E+00 -0.45593999997E+02  0.45594000000E+02  0.51100000000E-03 0. -1.
    9900012    2    1    2    0    0  0.22680474406E+02  0.28865109337E+02 -0.17480459345E+02  0.50528869227E+02  0.30000028502E+02 0.  0.
         12    1    1    2    0    0 -0.22680474406E+02 -0.28865109337E+02  0.17480459345E+02  0.40659130773E+02  0.00000000000E+00 0. -1.
         11    1    3    3    0    0  0.60001661208E+01  0.27661007613E+02 -0.13447605969E+02  0.31336423571E+02  0.51100000000E-03 0. -1.
        -11    1    3    3    0    0  0.17197535978E+02  0.15444331075E+01 -0.50602022018E+01  0.17992947616E+02  0.51100000000E-03 0.  1.
        -12    1    3    3    0    0 -0.51722769259E+00 -0.34033138288E+00  0.10273488267E+01  0.11994980399E+01  0.00000000000E+00 0.  1.
</event>
<event>
 7    1  0.5748623E-013  0.5052886E+02  0.7816164E-02  0.1300439E+00
        -11   -1    0    0    0    0  0.00000000000E+00  0.00000000000E+00  0.45593999997E+02  0.45594000000E+02  0.51100000000E-03 0. -1.
         11   -1    0    0    0    0 -0.00000000000E+00 -0.00000000000E+00 -0.45593999997E+02  0.45594000000E+02  0.51100000000E-03 0.  1.
    9900012    2    1    2    0    0 -0.12524113595E+02 -0.38682175074E+02  0.38730609801E-01  0.50528860931E+02  0.30000003285E+02 0.  0.
         12    1    1    2    0    0  0.12524113595E+02  0.38682175074E+02 -0.38730609801E-01  0.40659139069E+02  0.00000000000E+00 0. -1.
         11    1    3    3    0    0 -0.19257355892E+01  0.21199768106E+01 -0.19942765111E+01  0.34899711031E+01  0.51100000000E-03 0. -1.
        -11    1    3    3    0    0 -0.10109293792E+02 -0.40710117370E+02 -0.29321179463E+01  0.42048885754E+02  0.51100000000E-03 0.  1.
         12    1    3    3    0    0 -0.48908421429E+00 -0.92034514140E-01  0.49651250671E+01  0.49900040734E+01  0.00000000000E+00 0. -1.
</event>
<event>
 7    1  0.5748623E-013  0.5052885E+02  0.7816164E-02  0.1300439E+00
        -11   -1    0    0    0    0  0.00000000000E+00  0.00000000000E+00  0.45593999997E+02  0.45594000000E+02  0.51100000000E-03 0.  1.
         11   -1    0    0    0    0 -0.00000000000E+00 -0.00000000000E+00 -0.45593999997E+02  0.45594000000E+02  0.51100000000E-03 0. -1.
    9900012    2    1    2    0    0  0.61410621915E+01 -0.22133637633E+02  0.33549301484E+02  0.50528853553E+02  0.29999980860E+02 0.  0.
         12    1    1    2    0    0 -0.61410621915E+01  0.22133637633E+02 -0.33549301484E+02  0.40659146447E+02  0.00000000000E+00 0. -1.
         11    1    3    3    0    0  0.46684144041E+01 -0.21951897108E+02  0.77921300988E+01  0.23757044669E+02  0.51100000000E-03 0. -1.
        -11    1    3    3    0    0  0.24272779777E+01  0.22630274950E+01  0.61363130213E+01  0.69761959248E+01  0.51100000000E-03 0.  1.
         12    1    3    3    0    0 -0.95463019032E+00 -0.24447680204E+01  0.19620858364E+02  0.19795612959E+02  0.00000000000E+00 0. -1.
</event>
<event>
 7    1  0.5748623E-013  0.5052885E+02  0.7816164E-02  0.1300439E+00
        -11   -1    0    0    0    0  0.00000000000E+00  0.00000000000E+00  0.45593999997E+02  0.45594000000E+02  0.51100000000E-03 0.  1.
         11   -1    0    0    0    0 -0.00000000000E+00 -0.00000000000E+00 -0.45593999997E+02  0.45594000000E+02  0.51100000000E-03 0. -1.
    9900012    2    1    2    0    0 -0.21165837873E+02  0.13371257527E+01  0.34689850563E+02  0.50528851826E+02  0.29999975611E+02 0.  0.
         12    1    1    2    0    0  0.21165837873E+02 -0.13371257527E+01 -0.34689850563E+02  0.40659148174E+02  0.00000000000E+00 0. -1.
         11    1    3    3    0    0 -0.44742951478E+01 -0.11831463328E+02  0.71054824733E+01  0.14508298419E+02  0.51100000000E-03 0. -1.
        -11    1    3    3    0    0 -0.70292789354E+01  0.46392389043E+01  0.18272993399E+02  0.20120526533E+02  0.51100000000E-03 0.  1.
         12    1    3    3    0    0 -0.96622637898E+01  0.85293501770E+01  0.93113746907E+01  0.15900026875E+02  0.00000000000E+00 0. -1.
</event>
<event>
 7    1  0.5748623E-013  0.5052887E+02  0.7816164E-02  0.1300439E+00
        -11   -1    0    0    0    0  0.00000000000E+00  0.00000000000E+00  0.45593999997E+02  0.45594000000E+02  0.51100000000E-03 0.  1.
         11   -1    0    0    0    0 -0.00000000000E+00 -0.00000000000E+00 -0.45593999997E+02  0.45594000000E+02  0.51100000000E-03 0. -1.
    9900012    2    1    2    0    0 -0.48914784016E+01 -0.34544047386E+02  0.20879351411E+02  0.50528867125E+02  0.30000022115E+02 0.  0.
         12    1    1    2    0    0  0.48914784016E+01  0.34544047386E+02 -0.20879351411E+02  0.40659132875E+02  0.00000000000E+00 0. -1.
         11    1    3    3    0    0 -0.21906661195E+01 -0.11903521329E+02  0.30796207371E+01  0.12489071312E+02  0.51100000000E-03 0. -1.
        -11    1    3    3    0    0 -0.19991626211E+01  0.42758079270E+01  0.81863214153E+01  0.94496054516E+01  0.51100000000E-03 0.  1.
        -12    1    3    3    0    0 -0.70164966098E+00 -0.26916333984E+02  0.96134092589E+01  0.28590190362E+02  0.00000000000E+00 0.  1.
</event>
<event>
 7    1  0.5748623E-013  0.5052886E+02  0.7816164E-02  0.1300439E+00
        -11   -1    0    0    0    0  0.00000000000E+00  0.00000000000E+00  0.45593999997E+02  0.45594000000E+02  0.51100000000E-03 0. -1.
         11   -1    0    0    0    0 -0.00000000000E+00 -0.00000000000E+00 -0.45593999997E+02  0.45594000000E+02  0.51100000000E-03 0.  1.
    9900012    2    1    2    0    0  0.23675811655E+01  0.36351000607E+02 -0.18060042573E+02  0.50528858058E+02  0.29999994553E+02 0.  0.
         12    1    1    2    0    0 -0.23675811655E+01 -0.36351000607E+02  0.18060042573E+02  0.40659141942E+02  0.00000000000E+00 0. -1.
         11    1    3    3    0    0  0.63904212424E+01  0.30009453157E+01  0.16145441190E+01  0.72422309696E+01  0.51100000000E-03 0. -1.
        -11    1    3    3    0    0 -0.18553976872E+01  0.35473935619E+02 -0.18130221226E+02  0.39881669108E+02  0.51100000000E-03 0.  1.
        -12    1    3    3    0    0 -0.21674423897E+01 -0.21238803272E+01 -0.15443654657E+01  0.34049579805E+01  0.00000000000E+00 0.  1.
</event>
<event>
 7    1  0.5748623E-013  0.5052875E+02  0.7816164E-02  0.1300439E+00
        -11   -1    0    0    0    0  0.00000000000E+00  0.00000000000E+00  0.45593999997E+02  0.45594000000E+02  0.51100000000E-03 0.  1.
         11   -1    0    0    0    0 -0.00000000000E+00 -0.00000000000E+00 -0.45593999997E+02  0.45594000000E+02  0.51100000000E-03 0. -1.
    9900012    2    1    2    0    0 -0.38226698009E+02  0.35065297458E+01 -0.13401420894E+02  0.50528754145E+02  0.29999678697E+02 0.  0.
         12    1    1    2    0    0  0.38226698009E+02 -0.35065297458E+01  0.13401420894E+02  0.40659245855E+02  0.00000000000E+00 0. -1.
         11    1    3    3    0    0 -0.27174082189E+01 -0.15880205250E+01 -0.60236872498E+01  0.67963905832E+01  0.51100000000E-03 0. -1.
        -11    1    3    3    0    0 -0.21373268064E+02  0.14529856036E+02 -0.20699054527E+01  0.25927163613E+02  0.51100000000E-03 0.  1.
        -12    1    3    3    0    0 -0.14136021726E+02 -0.94353057649E+01 -0.53078281911E+01  0.17805199949E+02  0.00000000000E+00 0.  1.
</event>
<event>
 7    1  0.5748623E-013  0.5052888E+02  0.7816164E-02  0.1300439E+00
        -11   -1    0    0    0    0  0.00000000000E+00  0.00000000000E+00  0.45593999997E+02  0.45594000000E+02  0.51100000000E-03 0.  1.
         11   -1    0    0    0    0 -0.00000000000E+00 -0.00000000000E+00 -0.45593999997E+02  0.45594000000E+02  0.51100000000E-03 0. -1.
    9900012    2    1    2    0    0 -0.24330247559E+02  0.22481609043E+02  0.23574999121E+02  0.50528877100E+02  0.30000052432E+02 0.  0.
         12    1    1    2    0    0  0.24330247559E+02 -0.22481609043E+02 -0.23574999121E+02  0.40659122900E+02  0.00000000000E+00 0. -1.
         11    1    3    3    0    0 -0.33828746423E-01 -0.22840679089E+01  0.11281818544E+02  0.11510757600E+02  0.51100000000E-03 0. -1.
        -11    1    3    3    0    0 -0.16743940945E+02  0.16912419595E+02  0.14545813845E+02  0.27892117087E+02  0.51100000000E-03 0.  1.
         12    1    3    3    0    0 -0.75524778673E+01  0.78532573569E+01 -0.22526332674E+01  0.11126002413E+02  0.00000000000E+00 0. -1.
</event>
<event>
 7    1  0.5748623E-013  0.5052887E+02  0.7816164E-02  0.1300439E+00
        -11   -1    0    0    0    0  0.00000000000E+00  0.00000000000E+00  0.45593999997E+02  0.45594000000E+02  0.51100000000E-03 0. -1.
         11   -1    0    0    0    0 -0.00000000000E+00 -0.00000000000E+00 -0.45593999997E+02  0.45594000000E+02  0.51100000000E-03 0.  1.
    9900012    2    1    2    0    0  0.37112164460E+02  0.41591292447E+01 -0.16079618039E+02  0.50528865439E+02  0.30000016988E+02 0.  0.
         12    1    1    2    0    0 -0.37112164460E+02 -0.41591292447E+01  0.16079618039E+02  0.40659134561E+02  0.00000000000E+00 0. -1.
         11    1    3    3    0    0  0.23249431290E+02 -0.66343488367E+01 -0.49847351477E+00  0.24182620121E+02  0.51100000000E-03 0. -1.
        -11    1    3    3    0    0  0.14581635618E+02  0.53724691770E+01 -0.13169267443E+02  0.20369514663E+02  0.51100000000E-03 0.  1.
        -12    1    3    3    0    0 -0.71890244815E+00  0.54210089043E+01 -0.24118770812E+01  0.59767306552E+01  0.00000000000E+00 0.  1.
</event>
<event>
 7    1  0.5748623E-013  0.5052886E+02  0.7816164E-02  0.1300439E+00
        -11   -1    0    0    0    0  0.00000000000E+00  0.00000000000E+00  0.45593999997E+02  0.45594000000E+02  0.51100000000E-03 0. -1.
         11   -1    0    0    0    0 -0.00000000000E+00 -0.00000000000E+00 -0.45593999997E+02  0.45594000000E+02  0.51100000000E-03 0.  1.
    9900012    2    1    2    0    0  0.75819048019E+01 -0.31182385469E+02 -0.24966760337E+02  0.50528861228E+02  0.30000004188E+02 0.  0.
         12    1    1    2    0    0 -0.75819048019E+01  0.31182385469E+02  0.24966760337E+02  0.40659138772E+02  0.00000000000E+00 0. -1.
         11    1    3    3    0    0  0.15324061969E+02 -0.14478592666E+02 -0.13457026916E+02  0.25010959487E+02  0.51100000000E-03 0. -1.
        -11    1    3    3    0    0 -0.56169922544E+01 -0.18530206805E+02 -0.11840663773E+02  0.22696265884E+02  0.51100000000E-03 0.  1.
        -12    1    3    3    0    0 -0.21251649126E+01  0.18264140015E+01  0.33093035139E+00  0.28216358567E+01  0.00000000000E+00 0.  1.
</event>
<event>
 7    1  0.5748623E-013  0.5052886E+02  0.7816164E-02  0.1300439E+00
        -11   -1    0    0    0    0  0.00000000000E+00  0.00000000000E+00  0.45593999997E+02  0.45594000000E+02  0.51100000000E-03 0.  1.
         11   -1    0    0    0    0 -0.00000000000E+00 -0.00000000000E+00 -0.45593999997E+02  0.45594000000E+02  0.51100000000E-03 0. -1.
    9900012    2    1    2    0    0 -0.72019514410E+01  0.23164969664E+02  0.32629462516E+02  0.50528858984E+02  0.29999997368E+02 0.  0.
         12    1    1    2    0    0  0.72019514410E+01 -0.23164969664E+02 -0.32629462516E+02  0.40659141016E+02  0.00000000000E+00 0. -1.
         11    1    3    3    0    0  0.22810572401E+01 -0.34149914107E+00  0.25279904458E+01  0.34220724351E+01  0.51100000000E-03 0. -1.
        -11    1    3    3    0    0 -0.17863131958E+02  0.10964156713E+02  0.19860137241E+02  0.28874370422E+02  0.51100000000E-03 0.  1.
        -12    1    3    3    0    0  0.83801232773E+01  0.12542312091E+02  0.10241334829E+02  0.18232416127E+02  0.00000000000E+00 0.  1.
</event>
<event>
 7    1  0.5748623E-013  0.5052886E+02  0.7816164E-02  0.1300439E+00
        -11   -1    0    0    0    0  0.00000000000E+00  0.00000000000E+00  0.45593999997E+02  0.45594000000E+02  0.51100000000E-03 0. -1.
         11   -1    0    0    0    0 -0.00000000000E+00 -0.00000000000E+00 -0.45593999997E+02  0.45594000000E+02  0.51100000000E-03 0.  1.
    9900012    2    1    2    0    0 -0.29998110845E+01  0.26113920423E+02 -0.31019830002E+02  0.50528861301E+02  0.30000004410E+02 0.  0.
         12    1    1    2    0    0  0.29998110845E+01 -0.26113920423E+02  0.31019830002E+02  0.40659138699E+02  0.00000000000E+00 0. -1.
         11    1    3    3    0    0  0.44731545195E+01 -0.37594042722E+01 -0.65255021580E-01  0.58434998345E+01  0.51100000000E-03 0. -1.
        -11    1    3    3    0    0 -0.20248928557E+01  0.20205141422E+02 -0.24595791263E+02  0.31895154477E+02  0.51100000000E-03 0.  1.
        -12    1    3    3    0    0 -0.54480727483E+01  0.96681832733E+01 -0.63587837172E+01  0.12790206990E+02  0.00000000000E+00 0.  1.
</event>
<event>
 7    1  0.5748623E-013  0.5052886E+02  0.7816164E-02  0.1300439E+00
        -11   -1    0    0    0    0  0.00000000000E+00  0.00000000000E+00  0.45593999997E+02  0.45594000000E+02  0.51100000000E-03 0.  1.
         11   -1    0    0    0    0 -0.00000000000E+00 -0.00000000000E+00 -0.45593999997E+02  0.45594000000E+02  0.51100000000E-03 0. -1.
    9900012    2    1    2    0    0  0.18455832309E+02  0.13709613438E+02  0.33534973856E+02  0.50528859350E+02  0.29999998481E+02 0.  0.
         12    1    1    2    0    0 -0.18455832309E+02 -0.13709613438E+02 -0.33534973856E+02  0.40659140650E+02  0.00000000000E+00 0. -1.
         11    1    3    3    0    0 -0.62416886499E+01  0.26558963592E+01  0.10661837011E+01  0.68665282799E+01  0.51100000000E-03 0. -1.
        -11    1    3    3    0    0  0.13834706472E+02  0.42222240033E+01  0.24808639197E+02  0.28717500897E+02  0.51100000000E-03 0.  1.
        -12    1    3    3    0    0  0.10862814487E+02  0.68314930750E+01  0.76601509584E+01  0.14944830174E+02  0.00000000000E+00 0.  1.
</event>
<event>
 7    1  0.5748623E-013  0.5052886E+02  0.7816164E-02  0.1300439E+00
        -11   -1    0    0    0    0  0.00000000000E+00  0.00000000000E+00  0.45593999997E+02  0.45594000000E+02  0.51100000000E-03 0. -1.
         11   -1    0    0    0    0 -0.00000000000E+00 -0.00000000000E+00 -0.45593999997E+02  0.45594000000E+02  0.51100000000E-03 0.  1.
    9900012    2    1    2    0    0  0.14797507712E+02  0.20654822306E+02 -0.31742362900E+02  0.50528861772E+02  0.30000005843E+02 0.  0.
         12    1    1    2    0    0 -0.14797507712E+02 -0.20654822306E+02  0.31742362900E+02  0.40659138228E+02  0.00000000000E+00 0. -1.
         11    1    3    3    0    0  0.15828497156E+02  0.23859995596E+02 -0.14915028016E+02  0.32284652283E+02  0.51100000000E-03 0. -1.
        -11    1    3    3    0    0 -0.30049693716E+01 -0.17097749535E+00 -0.46402703404E+01  0.55309296978E+01  0.51100000000E-03 0.  1.
         12    1    3    3    0    0  0.19739799277E+01 -0.30341957947E+01 -0.12187064543E+02  0.12713279791E+02  0.00000000000E+00 0. -1.
</event>
<event>
 7    1  0.5748623E-013  0.5052886E+02  0.7816164E-02  0.1300439E+00
        -11   -1    0    0    0    0  0.00000000000E+00  0.00000000000E+00  0.45593999997E+02  0.45594000000E+02  0.51100000000E-03 0.  1.
         11   -1    0    0    0    0 -0.00000000000E+00 -0.00000000000E+00 -0.45593999997E+02  0.45594000000E+02  0.51100000000E-03 0. -1.
    9900012    2    1    2    0    0  0.20563563534E+00  0.16910978244E+02  0.36974891245E+02  0.50528855226E+02  0.29999985945E+02 0.  0.
         12    1    1    2    0    0 -0.20563563534E+00 -0.16910978244E+02 -0.36974891245E+02  0.40659144774E+02  0.00000000000E+00 0. -1.
         11    1    3    3    0    0 -0.44296038471E+01  0.10257450230E+00  0.20595992897E+02  0.21067198092E+02  0.51100000000E-03 0. -1.
        -11    1    3    3    0    0 -0.28041506900E+01  0.13722702304E+02  0.37781655041E+01  0.14506907129E+02  0.51100000000E-03 0.  1.
        -12    1    3    3    0    0  0.74393901725E+01  0.30857014375E+01  0.12600732844E+02  0.14954750005E+02  0.00000000000E+00 0.  1.
</event>
<event>
 7    1  0.5748623E-013  0.5052885E+02  0.7816164E-02  0.1300439E+00
        -11   -1    0    0    0    0  0.00000000000E+00  0.00000000000E+00  0.45593999997E+02  0.45594000000E+02  0.51100000000E-03 0. -1.
         11   -1    0    0    0    0 -0.00000000000E+00 -0.00000000000E+00 -0.45593999997E+02  0.45594000000E+02  0.51100000000E-03 0.  1.
    9900012    2    1    2    0    0 -0.18055322678E+02 -0.29173821001E+02  0.21818792013E+02  0.50528853505E+02  0.29999980715E+02 0.  0.
         12    1    1    2    0    0  0.18055322678E+02  0.29173821001E+02 -0.21818792013E+02  0.40659146495E+02  0.00000000000E+00 0. -1.
         11    1    3    3    0    0 -0.69627210379E+01 -0.10212066465E+02  0.83152180144E+01  0.14896598156E+02  0.51100000000E-03 0. -1.
        -11    1    3    3    0    0  0.44339967689E+01 -0.16592286456E+02  0.57120252828E+01  0.18099489780E+02  0.51100000000E-03 0.  1.
        -12    1    3    3    0    0 -0.15526598409E+02 -0.23694680790E+01  0.77915487157E+01  0.17532765569E+02  0.00000000000E+00 0.  1.
</event>
<event>
 7    1  0.5748623E-013  0.5052886E+02  0.7816164E-02  0.1300439E+00
        -11   -1    0    0    0    0  0.00000000000E+00  0.00000000000E+00  0.45593999997E+02  0.45594000000E+02  0.51100000000E-03 0.  1.
         11   -1    0    0    0    0 -0.00000000000E+00 -0.00000000000E+00 -0.45593999997E+02  0.45594000000E+02  0.51100000000E-03 0. -1.
    9900012    2    1    2    0    0  0.23359491650E+02  0.14644116136E+02  0.29883943385E+02  0.50528855152E+02  0.29999985719E+02 0.  0.
         12    1    1    2    0    0 -0.23359491650E+02 -0.14644116136E+02 -0.29883943385E+02  0.40659144848E+02  0.00000000000E+00 0. -1.
         11    1    3    3    0    0  0.22164056993E+02  0.51916105278E+01  0.16138611645E+02  0.27904355007E+02  0.51100000000E-03 0. -1.
        -11    1    3    3    0    0 -0.76650345516E+00 -0.20149470958E+01  0.10253538749E+02  0.10477719050E+02  0.51100000000E-03 0.  1.
        -12    1    3    3    0    0  0.19619381115E+01  0.11467452704E+02  0.34917929915E+01  0.12146781095E+02  0.00000000000E+00 0.  1.
</event>
<event>
 7    1  0.5748623E-013  0.5052886E+02  0.7816164E-02  0.1300439E+00
        -11   -1    0    0    0    0  0.00000000000E+00  0.00000000000E+00  0.45593999997E+02  0.45594000000E+02  0.51100000000E-03 0.  1.
         11   -1    0    0    0    0 -0.00000000000E+00 -0.00000000000E+00 -0.45593999997E+02  0.45594000000E+02  0.51100000000E-03 0. -1.
    9900012    2    1    2    0    0  0.39984066786E+02  0.14415010926E+01  0.72361854551E+01  0.50528857091E+02  0.29999991615E+02 0.  0.
         12    1    1    2    0    0 -0.39984066786E+02 -0.14415010926E+01 -0.72361854551E+01  0.40659142909E+02  0.00000000000E+00 0. -1.
         11    1    3    3    0    0  0.87844121829E+01 -0.73846291031E+01 -0.66608723469E+01  0.13268981313E+02  0.51100000000E-03 0. -1.
        -11    1    3    3    0    0  0.28478380580E+02  0.39744590235E+01  0.13247669090E+02  0.31659362305E+02  0.51100000000E-03 0.  1.
        -12    1    3    3    0    0  0.27212740226E+01  0.48516711722E+01  0.64938871203E+00  0.56005134736E+01  0.00000000000E+00 0.  1.
</event>
<event>
 7    1  0.5748623E-013  0.5052886E+02  0.7816164E-02  0.1300439E+00
        -11   -1    0    0    0    0  0.00000000000E+00  0.00000000000E+00  0.45593999997E+02  0.45594000000E+02  0.51100000000E-03 0.  1.
         11   -1    0    0    0    0 -0.00000000000E+00 -0.00000000000E+00 -0.45593999997E+02  0.45594000000E+02  0.51100000000E-03 0. -1.
    9900012    2    1    2    0    0 -0.11131939563E+02  0.33549938767E+02 -0.20090969691E+02  0.50528861632E+02  0.30000005418E+02 0.  0.
         12    1    1    2    0    0  0.11131939563E+02 -0.33549938767E+02  0.20090969691E+02  0.40659138368E+02  0.00000000000E+00 0. -1.
         11    1    3    3    0    0 -0.71943937334E+01  0.61073300666E+00 -0.41195009591E+01  0.83127964254E+01  0.51100000000E-03 0. -1.
        -11    1    3    3    0    0 -0.15854594051E+01  0.35194014787E+02 -0.16522064405E+02  0.38911578879E+02  0.51100000000E-03 0.  1.
        -12    1    3    3    0    0 -0.23520864246E+01 -0.22548090275E+01  0.55059567282E+00  0.33044863283E+01  0.00000000000E+00 0.  1.
</event>
<event>
 7    1  0.5748623E-013  0.5052886E+02  0.7816164E-02  0.1300439E+00
        -11   -1    0    0    0    0  0.00000000000E+00  0.00000000000E+00  0.45593999997E+02  0.45594000000E+02  0.51100000000E-03 0.  1.
         11   -1    0    0    0    0 -0.00000000000E+00 -0.00000000000E+00 -0.45593999997E+02  0.45594000000E+02  0.51100000000E-03 0. -1.
    9900012    2    1    2    0    0  0.16985910909E+02 -0.35002550722E+02  0.11809581261E+02  0.50528856674E+02  0.29999990346E+02 0.  0.
         12    1    1    2    0    0 -0.16985910909E+02  0.35002550722E+02 -0.11809581261E+02  0.40659143326E+02  0.00000000000E+00 0. -1.
         11    1    3    3    0    0  0.86125299538E+01 -0.34914515888E+01  0.13521264754E+02  0.16407026154E+02  0.51100000000E-03 0. -1.
        -11    1    3    3    0    0  0.43615962283E+01 -0.20618946074E+02  0.35592545856E+01  0.21373646211E+02  0.51100000000E-03 0.  1.
         12    1    3    3    0    0  0.40117847270E+01 -0.10892153059E+02 -0.52709380791E+01  0.12748184309E+02  0.00000000000E+00 0. -1.
</event>
<event>
 7    1  0.5748623E-013  0.5052886E+02  0.7816164E-02  0.1300439E+00
        -11   -1    0    0    0    0  0.00000000000E+00  0.00000000000E+00  0.45593999997E+02  0.45594000000E+02  0.51100000000E-03 0.  1.
         11   -1    0    0    0    0 -0.00000000000E+00 -0.00000000000E+00 -0.45593999997E+02  0.45594000000E+02  0.51100000000E-03 0. -1.
    9900012    2    1    2    0    0  0.13919161691E+02 -0.33798086824E+02  0.17807644265E+02  0.50528856755E+02  0.29999990593E+02 0.  0.
         12    1    1    2    0    0 -0.13919161691E+02  0.33798086824E+02 -0.17807644265E+02  0.40659143245E+02  0.00000000000E+00 0. -1.
         11    1    3    3    0    0 -0.37998412176E+01 -0.63122356306E+01  0.14130283887E+02  0.15935747078E+02  0.51100000000E-03 0. -1.
        -11    1    3    3    0    0  0.66911299036E+00 -0.43805778757E+01  0.38610684437E+01  0.58775015531E+01  0.51100000000E-03 0.  1.
         12    1    3    3    0    0  0.17049889918E+02 -0.23105273318E+02 -0.18370806599E+00  0.28715608124E+02  0.00000000000E+00 0. -1.
</event>
<event>
 7    1  0.5748623E-013  0.5052886E+02  0.7816164E-02  0.1300439E+00
        -11   -1    0    0    0    0  0.00000000000E+00  0.00000000000E+00  0.45593999997E+02  0.45594000000E+02  0.51100000000E-03 0. -1.
         11   -1    0    0    0    0 -0.00000000000E+00 -0.00000000000E+00 -0.45593999997E+02  0.45594000000E+02  0.51100000000E-03 0.  1.
    9900012    2    1    2    0    0  0.69878733416E+01 -0.17378647444E+01 -0.40016431229E+02  0.50528864298E+02  0.30000013520E+02 0.  0.
         12    1    1    2    0    0 -0.69878733416E+01  0.17378647444E+01  0.40016431229E+02  0.40659135702E+02  0.00000000000E+00 0. -1.
         11    1    3    3    0    0 -0.64713956711E+01  0.52290011806E+01 -0.81537859868E+01  0.11649276435E+02  0.51100000000E-03 0. -1.
        -11    1    3    3    0    0  0.10509557133E+02 -0.11959855487E+02 -0.26843634783E+02  0.31210089123E+02  0.51100000000E-03 0.  1.
        -12    1    3    3    0    0  0.29497118799E+01  0.49929895619E+01 -0.50190104591E+01  0.76694987403E+01  0.00000000000E+00 0.  1.
</event>
<event>
 7    1  0.5748623E-013  0.5052880E+02  0.7816164E-02  0.1300439E+00
        -11   -1    0    0    0    0  0.00000000000E+00  0.00000000000E+00  0.45593999997E+02  0.45594000000E+02  0.51100000000E-03 0. -1.
         11   -1    0    0    0    0 -0.00000000000E+00 -0.00000000000E+00 -0.45593999997E+02  0.45594000000E+02  0.51100000000E-03 0.  1.
    9900012    2    1    2    0    0 -0.24441874592E+02 -0.14049071730E+02 -0.29298269034E+02  0.50528804012E+02  0.29999830273E+02 0.  0.
         12    1    1    2    0    0  0.24441874592E+02  0.14049071730E+02  0.29298269034E+02  0.40659195988E+02  0.00000000000E+00 0. -1.
         11    1    3    3    0    0 -0.70818705137E+01 -0.10817766207E+02  0.11254938534E+00  0.12930182648E+02  0.51100000000E-03 0. -1.
        -11    1    3    3    0    0 -0.11280010257E+02  0.50218258455E+01 -0.11048945448E+02  0.16569144878E+02  0.51100000000E-03 0.  1.
         12    1    3    3    0    0 -0.60799938213E+01 -0.82531313683E+01 -0.18361872971E+02  0.21029476486E+02  0.00000000000E+00 0. -1.
</event>
<event>
 7    1  0.5748623E-013  0.5052884E+02  0.7816164E-02  0.1300439E+00
        -11   -1    0    0    0    0  0.00000000000E+00  0.00000000000E+00  0.45593999997E+02  0.45594000000E+02  0.51100000000E-03 0.  1.
         11   -1    0    0    0    0 -0.00000000000E+00 -0.00000000000E+00 -0.45593999997E+02  0.45594000000E+02  0.51100000000E-03 0. -1.
    9900012    2    1    2    0    0  0.27491515333E+02 -0.89115969742E+01  0.28600123156E+02  0.50528843338E+02  0.29999949810E+02 0.  0.
         12    1    1    2    0    0 -0.27491515333E+02  0.89115969742E+01 -0.28600123156E+02  0.40659156662E+02  0.00000000000E+00 0. -1.
         11    1    3    3    0    0  0.92501958945E+01 -0.47433383091E+01 -0.94467668615E+00  0.10438285142E+02  0.51100000000E-03 0. -1.
        -11    1    3    3    0    0  0.10025773599E+02  0.76979677143E+01  0.14674477776E+02  0.19367889442E+02  0.51100000000E-03 0.  1.
        -12    1    3    3    0    0  0.82155458397E+01 -0.11866226379E+02  0.14870322067E+02  0.20722668754E+02  0.00000000000E+00 0.  1.
</event>
<event>
 7    1  0.5748623E-013  0.5052888E+02  0.7816164E-02  0.1300439E+00
        -11   -1    0    0    0    0  0.00000000000E+00  0.00000000000E+00  0.45593999997E+02  0.45594000000E+02  0.51100000000E-03 0.  1.
         11   -1    0    0    0    0 -0.00000000000E+00 -0.00000000000E+00 -0.45593999997E+02  0.45594000000E+02  0.51100000000E-03 0. -1.
    9900012    2    1    2    0    0  0.33171396935E+02  0.15745615220E+02  0.17461320568E+02  0.50528884304E+02  0.30000074329E+02 0.  0.
         12    1    1    2    0    0 -0.33171396935E+02 -0.15745615220E+02 -0.17461320568E+02  0.40659115696E+02  0.00000000000E+00 0. -1.
         11    1    3    3    0    0  0.27232965635E+02  0.30122026376E+01 -0.88084899803E+00  0.27413202608E+02  0.51100000000E-03 0. -1.
        -11    1    3    3    0    0  0.24247655483E+01  0.44833660830E+01  0.68966159401E+01  0.85757431797E+01  0.51100000000E-03 0.  1.
         12    1    3    3    0    0  0.35136657515E+01  0.82500464991E+01  0.11445553626E+02  0.14539938516E+02  0.00000000000E+00 0. -1.
</event>
<event>
 7    1  0.5748623E-013  0.5052886E+02  0.7816164E-02  0.1300439E+00
        -11   -1    0    0    0    0  0.00000000000E+00  0.00000000000E+00  0.45593999997E+02  0.45594000000E+02  0.51100000000E-03 0.  1.
         11   -1    0    0    0    0 -0.00000000000E+00 -0.00000000000E+00 -0.45593999997E+02  0.45594000000E+02  0.51100000000E-03 0. -1.
    9900012    2    1    2    0    0 -0.23497827389E+02  0.13815340822E+02  0.30168754836E+02  0.50528864466E+02  0.30000014032E+02 0.  0.
         12    1    1    2    0    0  0.23497827389E+02 -0.13815340822E+02 -0.30168754836E+02  0.40659135534E+02  0.00000000000E+00 0. -1.
         11    1    3    3    0    0 -0.20157808619E-01  0.64564734185E+01  0.34025284121E+01  0.72981953384E+01  0.51100000000E-03 0. -1.
        -11    1    3    3    0    0 -0.16822095351E+02 -0.66052943503E+01  0.11072650679E+02  0.21194725730E+02  0.51100000000E-03 0.  1.
        -12    1    3    3    0    0 -0.66555742296E+01  0.13964161754E+02  0.15693575745E+02  0.22035943398E+02  0.00000000000E+00 0.  1.
</event>
<event>
 7    1  0.5748623E-013  0.5052883E+02  0.7816164E-02  0.1300439E+00
        -11   -1    0    0    0    0  0.00000000000E+00  0.00000000000E+00  0.45593999997E+02  0.45594000000E+02  0.51100000000E-03 0.  1.
         11   -1    0    0    0    0 -0.00000000000E+00 -0.00000000000E+00 -0.45593999997E+02  0.45594000000E+02  0.51100000000E-03 0. -1.
    9900012    2    1    2    0    0  0.32425015854E+02 -0.16312473028E+02  0.18321842861E+02  0.50528826924E+02  0.29999899918E+02 0.  0.
         12    1    1    2    0    0 -0.32425015854E+02  0.16312473028E+02 -0.18321842861E+02  0.40659173076E+02  0.00000000000E+00 0. -1.
         11    1    3    3    0    0  0.26809316416E+01  0.71908757146E+01  0.28424898566E+01  0.81838766398E+01  0.51100000000E-03 0. -1.
        -11    1    3    3    0    0  0.25552352687E+02 -0.14253589159E+02  0.11524659294E+02  0.31446864770E+02  0.51100000000E-03 0.  1.
         12    1    3    3    0    0  0.41917315245E+01 -0.92497595836E+01  0.39546937109E+01  0.10898085514E+02  0.00000000000E+00 0. -1.
</event>
<event>
 7    1  0.5748623E-013  0.5052886E+02  0.7816164E-02  0.1300439E+00
        -11   -1    0    0    0    0  0.00000000000E+00  0.00000000000E+00  0.45593999997E+02  0.45594000000E+02  0.51100000000E-03 0.  1.
         11   -1    0    0    0    0 -0.00000000000E+00 -0.00000000000E+00 -0.45593999997E+02  0.45594000000E+02  0.51100000000E-03 0. -1.
    9900012    2    1    2    0    0  0.13230479234E+01  0.93786202038E+01  0.39540571413E+02  0.50528858834E+02  0.29999996911E+02 0.  0.
         12    1    1    2    0    0 -0.13230479234E+01 -0.93786202038E+01 -0.39540571413E+02  0.40659141166E+02  0.00000000000E+00 0. -1.
         11    1    3    3    0    0  0.91355264845E-01 -0.91789338557E+01  0.52413684732E+01  0.10570388652E+02  0.51100000000E-03 0. -1.
        -11    1    3    3    0    0  0.77944144432E+00  0.64292102501E+01  0.20896952639E+02  0.21877497647E+02  0.51100000000E-03 0.  1.
         12    1    3    3    0    0  0.45225121421E+00  0.12128343809E+02  0.13402250300E+02  0.18080972536E+02  0.00000000000E+00 0. -1.
</event>
<event>
 7    1  0.5748623E-013  0.5052887E+02  0.7816164E-02  0.1300439E+00
        -11   -1    0    0    0    0  0.00000000000E+00  0.00000000000E+00  0.45593999997E+02  0.45594000000E+02  0.51100000000E-03 0. -1.
         11   -1    0    0    0    0 -0.00000000000E+00 -0.00000000000E+00 -0.45593999997E+02  0.45594000000E+02  0.51100000000E-03 0.  1.
    9900012    2    1    2    0    0  0.10162963269E+02 -0.38904967545E+01 -0.39175797428E+02  0.50528869518E+02  0.30000029387E+02 0.  0.
         12    1    1    2    0    0 -0.10162963269E+02  0.38904967545E+01  0.39175797428E+02  0.40659130482E+02  0.00000000000E+00 0. -1.
         11    1    3    3    0    0  0.45346086617E+01  0.10208350691E+02 -0.14401692128E+02  0.18225856247E+02  0.51100000000E-03 0. -1.
        -11    1    3    3    0    0 -0.78859962223E+00 -0.11560575973E+02 -0.22001061670E+02  0.24865951039E+02  0.51100000000E-03 0.  1.
         12    1    3    3    0    0  0.64169542300E+01 -0.25382714735E+01 -0.27730436301E+01  0.74370622316E+01  0.00000000000E+00 0. -1.
</event>
<event>
 7    1  0.5748623E-013  0.5052885E+02  0.7816164E-02  0.1300439E+00
        -11   -1    0    0    0    0  0.00000000000E+00  0.00000000000E+00  0.45593999997E+02  0.45594000000E+02  0.51100000000E-03 0. -1.
         11   -1    0    0    0    0 -0.00000000000E+00 -0.00000000000E+00 -0.45593999997E+02  0.45594000000E+02  0.51100000000E-03 0.  1.
    9900012    2    1    2    0    0 -0.36826592157E+01 -0.19310284374E+02 -0.35590975938E+02  0.50528848143E+02  0.29999964416E+02 0.  0.
         12    1    1    2    0    0  0.36826592157E+01  0.19310284374E+02  0.35590975938E+02  0.40659151857E+02  0.00000000000E+00 0. -1.
         11    1    3    3    0    0  0.11062263113E+02 -0.47352845560E+01 -0.13356117720E+02  0.17977276374E+02  0.51100000000E-03 0.  1.
        -11    1    3    3    0    0 -0.62123756995E+01 -0.75732305586E+01 -0.18439370910E+02  0.20879603271E+02  0.51100000000E-03 0. -1.
         12    1    3    3    0    0 -0.85325466290E+01 -0.70017692589E+01 -0.37954873080E+01  0.11671968499E+02  0.00000000000E+00 0. -1.
</event>
<event>
 7    1  0.5748623E-013  0.5052886E+02  0.7816164E-02  0.1300439E+00
        -11   -1    0    0    0    0  0.00000000000E+00  0.00000000000E+00  0.45593999997E+02  0.45594000000E+02  0.51100000000E-03 0.  1.
         11   -1    0    0    0    0 -0.00000000000E+00 -0.00000000000E+00 -0.45593999997E+02  0.45594000000E+02  0.51100000000E-03 0. -1.
    9900012    2    1    2    0    0  0.11665869359E+02  0.15079145226E+02  0.35912293402E+02  0.50528856551E+02  0.29999989972E+02 0.  0.
         12    1    1    2    0    0 -0.11665869359E+02 -0.15079145226E+02 -0.35912293402E+02  0.40659143449E+02  0.00000000000E+00 0. -1.
         11    1    3    3    0    0  0.12650407665E+02  0.66486229169E+01  0.14460401573E+01  0.14364123126E+02  0.51100000000E-03 0. -1.
        -11    1    3    3    0    0 -0.32983247024E+01  0.22900820366E+01  0.87979637762E+01  0.96709662622E+01  0.51100000000E-03 0.  1.
         12    1    3    3    0    0  0.23137863961E+01  0.61404402728E+01  0.25668289468E+02  0.26493767162E+02  0.00000000000E+00 0. -1.
</event>
<event>
 7    1  0.5748623E-013  0.5052884E+02  0.7816164E-02  0.1300439E+00
        -11   -1    0    0    0    0  0.00000000000E+00  0.00000000000E+00  0.45593999997E+02  0.45594000000E+02  0.51100000000E-03 0. -1.
         11   -1    0    0    0    0 -0.00000000000E+00 -0.00000000000E+00 -0.45593999997E+02  0.45594000000E+02  0.51100000000E-03 0.  1.
    9900012    2    1    2    0    0 -0.19387463060E+02  0.25979180903E+02 -0.24543339292E+02  0.50528842755E+02  0.29999948038E+02 0.  0.
         12    1    1    2    0    0  0.19387463060E+02 -0.25979180903E+02  0.24543339292E+02  0.40659157245E+02  0.00000000000E+00 0. -1.
         11    1    3    3    0    0 -0.34367800811E+01  0.19638710804E+02 -0.87470043788E+01  0.21771552660E+02  0.51100000000E-03 0. -1.
        -11    1    3    3    0    0 -0.10229695233E+02 -0.45584031264E+01 -0.45642830828E+01  0.12093733251E+02  0.51100000000E-03 0.  1.
         12    1    3    3    0    0 -0.57209877457E+01  0.10898873225E+02 -0.11232051830E+02  0.16663556844E+02  0.00000000000E+00 0. -1.
</event>
<event>
 7    1  0.5748623E-013  0.5052885E+02  0.7816164E-02  0.1300439E+00
        -11   -1    0    0    0    0  0.00000000000E+00  0.00000000000E+00  0.45593999997E+02  0.45594000000E+02  0.51100000000E-03 0. -1.
         11   -1    0    0    0    0 -0.00000000000E+00 -0.00000000000E+00 -0.45593999997E+02  0.45594000000E+02  0.51100000000E-03 0.  1.
    9900012    2    1    2    0    0 -0.39777492136E+02 -0.32963360670E+01  0.77493106123E+01  0.50528849406E+02  0.29999968254E+02 0.  0.
         12    1    1    2    0    0  0.39777492136E+02  0.32963360670E+01 -0.77493106123E+01  0.40659150594E+02  0.00000000000E+00 0. -1.
         11    1    3    3    0    0  0.51190049793E+00 -0.17591569329E+01 -0.53621328411E+01  0.56664931043E+01  0.51100000000E-03 0. -1.
        -11    1    3    3    0    0 -0.35756416694E+02 -0.60558187896E+01  0.12786225808E+02  0.38453632425E+02  0.51100000000E-03 0.  1.
         12    1    3    3    0    0 -0.45329759397E+01  0.45186396555E+01  0.32521764568E+00  0.64087238763E+01  0.00000000000E+00 0. -1.
</event>
<event>
 7    1  0.5748623E-013  0.5052884E+02  0.7816164E-02  0.1300439E+00
        -11   -1    0    0    0    0  0.00000000000E+00  0.00000000000E+00  0.45593999997E+02  0.45594000000E+02  0.51100000000E-03 0.  1.
         11   -1    0    0    0    0 -0.00000000000E+00 -0.00000000000E+00 -0.45593999997E+02  0.45594000000E+02  0.51100000000E-03 0. -1.
    9900012    2    1    2    0    0 -0.93211072474E+01 -0.30576671139E+02  0.25126711964E+02  0.50528837288E+02  0.29999931422E+02 0.  0.
         12    1    1    2    0    0  0.93211072474E+01  0.30576671139E+02 -0.25126711964E+02  0.40659162712E+02  0.00000000000E+00 0. -1.
         11    1    3    3    0    0  0.25954458521E+01  0.42620793185E+01  0.18970529701E+01  0.53385831005E+01  0.51100000000E-03 0. -1.
        -11    1    3    3    0    0 -0.12676592893E+02 -0.28163731021E+02  0.22927929989E+02  0.38465331485E+02  0.51100000000E-03 0.  1.
         12    1    3    3    0    0  0.76003979307E+00 -0.66750194369E+01  0.30172900460E+00  0.67249227030E+01  0.00000000000E+00 0. -1.
</event>
<event>
 7    1  0.5748623E-013  0.5052885E+02  0.7816164E-02  0.1300439E+00
        -11   -1    0    0    0    0  0.00000000000E+00  0.00000000000E+00  0.45593999997E+02  0.45594000000E+02  0.51100000000E-03 0.  1.
         11   -1    0    0    0    0 -0.00000000000E+00 -0.00000000000E+00 -0.45593999997E+02  0.45594000000E+02  0.51100000000E-03 0. -1.
    9900012    2    1    2    0    0 -0.38773051510E+02  0.10148174737E+02 -0.68433533269E+01  0.50528850247E+02  0.29999970812E+02 0.  0.
         12    1    1    2    0    0  0.38773051510E+02 -0.10148174737E+02  0.68433533269E+01  0.40659149753E+02  0.00000000000E+00 0. -1.
         11    1    3    3    0    0 -0.46449902529E+01  0.35171574038E+01 -0.13806289902E+02  0.14985325214E+02  0.51100000000E-03 0.  1.
        -11    1    3    3    0    0 -0.32506517828E+02  0.58245939064E+01  0.68626986363E+01  0.33729752865E+02  0.51100000000E-03 0. -1.
        -12    1    3    3    0    0 -0.16215434282E+01  0.80642342685E+00  0.10023793898E+00  0.18137721679E+01  0.00000000000E+00 0.  1.
</event>
<event>
 7    1  0.5748623E-013  0.5052887E+02  0.7816164E-02  0.1300439E+00
        -11   -1    0    0    0    0  0.00000000000E+00  0.00000000000E+00  0.45593999997E+02  0.45594000000E+02  0.51100000000E-03 0.  1.
         11   -1    0    0    0    0 -0.00000000000E+00 -0.00000000000E+00 -0.45593999997E+02  0.45594000000E+02  0.51100000000E-03 0. -1.
    9900012    2    1    2    0    0 -0.43357044762E+01 -0.17695754750E+02  0.36348685464E+02  0.50528868130E+02  0.30000025167E+02 0.  0.
         12    1    1    2    0    0  0.43357044762E+01  0.17695754750E+02 -0.36348685464E+02  0.40659131870E+02  0.00000000000E+00 0. -1.
         11    1    3    3    0    0  0.96933755672E+00  0.66673446268E+00  0.57811473248E+01  0.58996453109E+01  0.51100000000E-03 0. -1.
        -11    1    3    3    0    0  0.73053529475E+00 -0.21657093288E+02  0.11870288868E+02  0.24707633023E+02  0.51100000000E-03 0.  1.
        -12    1    3    3    0    0 -0.60355773277E+01  0.32946040751E+01  0.18697249271E+02  0.19921589796E+02  0.00000000000E+00 0.  1.
</event>
<event>
 7    1  0.5748623E-013  0.5052886E+02  0.7816164E-02  0.1300439E+00
        -11   -1    0    0    0    0  0.00000000000E+00  0.00000000000E+00  0.45593999997E+02  0.45594000000E+02  0.51100000000E-03 0.  1.
         11   -1    0    0    0    0 -0.00000000000E+00 -0.00000000000E+00 -0.45593999997E+02  0.45594000000E+02  0.51100000000E-03 0. -1.
    9900012    2    1    2    0    0  0.24381537163E+02  0.32360590215E+02  0.33909586939E+01  0.50528858907E+02  0.29999997135E+02 0.  0.
         12    1    1    2    0    0 -0.24381537163E+02 -0.32360590215E+02 -0.33909586939E+01  0.40659141093E+02  0.00000000000E+00 0. -1.
         11    1    3    3    0    0  0.86060334667E+01  0.12508842714E+02 -0.73347191436E+01  0.16862178484E+02  0.51100000000E-03 0. -1.
        -11    1    3    3    0    0  0.10537146590E+02  0.35175554018E+01  0.12139199152E+02  0.16454932713E+02  0.51100000000E-03 0.  1.
         12    1    3    3    0    0  0.52383571064E+01  0.16334192100E+02 -0.14135213148E+01  0.17211747710E+02  0.00000000000E+00 0. -1.
</event>
<event>
 7    1  0.5748623E-013  0.5052885E+02  0.7816164E-02  0.1300439E+00
        -11   -1    0    0    0    0  0.00000000000E+00  0.00000000000E+00  0.45593999997E+02  0.45594000000E+02  0.51100000000E-03 0. -1.
         11   -1    0    0    0    0 -0.00000000000E+00 -0.00000000000E+00 -0.45593999997E+02  0.45594000000E+02  0.51100000000E-03 0.  1.
    9900012    2    1    2    0    0  0.21035148439E+02  0.18936811554E+02 -0.29190508305E+02  0.50528854942E+02  0.29999985083E+02 0.  0.
         12    1    1    2    0    0 -0.21035148439E+02 -0.18936811554E+02  0.29190508305E+02  0.40659145058E+02  0.00000000000E+00 0. -1.
         11    1    3    3    0    0  0.88316549487E+01  0.19862894836E+02 -0.24134778891E+02  0.32481075610E+02  0.51100000000E-03 0. -1.
        -11    1    3    3    0    0 -0.35739729654E+00 -0.25155578484E+01 -0.47455323566E+01  0.53829213002E+01  0.51100000000E-03 0.  1.
         12    1    3    3    0    0  0.12560890787E+02  0.15894745667E+01 -0.31019705783E+00  0.12664858032E+02  0.00000000000E+00 0. -1.
</event>
<event>
 7    1  0.5748623E-013  0.5052886E+02  0.7816164E-02  0.1300439E+00
        -11   -1    0    0    0    0  0.00000000000E+00  0.00000000000E+00  0.45593999997E+02  0.45594000000E+02  0.51100000000E-03 0. -1.
         11   -1    0    0    0    0 -0.00000000000E+00 -0.00000000000E+00 -0.45593999997E+02  0.45594000000E+02  0.51100000000E-03 0.  1.
    9900012    2    1    2    0    0 -0.32803058035E+02  0.32303332408E+01 -0.23805258246E+02  0.50528856017E+02  0.29999988349E+02 0.  0.
         12    1    1    2    0    0  0.32803058035E+02 -0.32303332408E+01  0.23805258246E+02  0.40659143983E+02  0.00000000000E+00 0. -1.
         11    1    3    3    0    0 -0.17845649425E+02  0.29295601267E+01 -0.22855285390E+02  0.29144701001E+02  0.51100000000E-03 0. -1.
        -11    1    3    3    0    0 -0.17548218710E+02 -0.22756986507E+01 -0.10791464067E+01  0.17728038286E+02  0.51100000000E-03 0.  1.
         12    1    3    3    0    0  0.25908101008E+01  0.25764717648E+01  0.12917355029E+00  0.36561167294E+01  0.00000000000E+00 0. -1.
</event>
<event>
 7    1  0.5748623E-013  0.5052886E+02  0.7816164E-02  0.1300439E+00
        -11   -1    0    0    0    0  0.00000000000E+00  0.00000000000E+00  0.45593999997E+02  0.45594000000E+02  0.51100000000E-03 0.  1.
         11   -1    0    0    0    0 -0.00000000000E+00 -0.00000000000E+00 -0.45593999997E+02  0.45594000000E+02  0.51100000000E-03 0. -1.
    9900012    2    1    2    0    0 -0.14272889665E+02  0.34530835912E+02  0.16033457217E+02  0.50528858857E+02  0.29999996981E+02 0.  0.
         12    1    1    2    0    0  0.14272889665E+02 -0.34530835912E+02 -0.16033457217E+02  0.40659141143E+02  0.00000000000E+00 0. -1.
         11    1    3    3    0    0 -0.11494221987E+02  0.82203644536E+01 -0.23219916984E+01  0.14320725420E+02  0.51100000000E-03 0. -1.
        -11    1    3    3    0    0 -0.33801372379E+00  0.99931884354E+01  0.16911460675E+02  0.19646260988E+02  0.51100000000E-03 0.  1.
        -12    1    3    3    0    0 -0.24406539544E+01  0.16317283023E+02  0.14439882402E+01  0.16561872449E+02  0.00000000000E+00 0.  1.
</event>
<event>
 7    1  0.5748623E-013  0.5052886E+02  0.7816164E-02  0.1300439E+00
        -11   -1    0    0    0    0  0.00000000000E+00  0.00000000000E+00  0.45593999997E+02  0.45594000000E+02  0.51100000000E-03 0.  1.
         11   -1    0    0    0    0 -0.00000000000E+00 -0.00000000000E+00 -0.45593999997E+02  0.45594000000E+02  0.51100000000E-03 0. -1.
    9900012    2    1    2    0    0 -0.31643437689E+02  0.11482891986E+02  0.22803544790E+02  0.50528860657E+02  0.30000002453E+02 0.  0.
         12    1    1    2    0    0  0.31643437689E+02 -0.11482891986E+02 -0.22803544790E+02  0.40659139343E+02  0.00000000000E+00 0. -1.
         11    1    3    3    0    0 -0.67901253891E+01  0.59829749613E+01  0.17243206533E+02  0.19473827667E+02  0.51100000000E-03 0. -1.
        -11    1    3    3    0    0 -0.21140312770E+02  0.11058342501E+02  0.46836288316E+01  0.24313291472E+02  0.51100000000E-03 0.  1.
        -12    1    3    3    0    0 -0.37129995297E+01 -0.55584254761E+01  0.87670942447E+00  0.67417415180E+01  0.00000000000E+00 0.  1.
</event>
<event>
 7    1  0.5748623E-013  0.5052888E+02  0.7816164E-02  0.1300439E+00
        -11   -1    0    0    0    0  0.00000000000E+00  0.00000000000E+00  0.45593999997E+02  0.45594000000E+02  0.51100000000E-03 0.  1.
         11   -1    0    0    0    0 -0.00000000000E+00 -0.00000000000E+00 -0.45593999997E+02  0.45594000000E+02  0.51100000000E-03 0. -1.
    9900012    2    1    2    0    0 -0.45467651914E+01  0.20836138149E+02  0.34617142121E+02  0.50528877343E+02  0.30000053171E+02 0.  0.
         12    1    1    2    0    0  0.45467651914E+01 -0.20836138149E+02 -0.34617142121E+02  0.40659122657E+02  0.00000000000E+00 0. -1.
         11    1    3    3    0    0 -0.30719179803E+01  0.83900483653E+01 -0.40736031008E+01  0.98195638465E+01  0.51100000000E-03 0. -1.
        -11    1    3    3    0    0 -0.14675810960E+01  0.49361588614E+01  0.15597782767E+02  0.16425902900E+02  0.51100000000E-03 0.  1.
         12    1    3    3    0    0 -0.72661150979E-02  0.75099309218E+01  0.23092962454E+02  0.24283410596E+02  0.00000000000E+00 0. -1.
</event>
<event>
 7    1  0.5748623E-013  0.5052886E+02  0.7816164E-02  0.1300439E+00
        -11   -1    0    0    0    0  0.00000000000E+00  0.00000000000E+00  0.45593999997E+02  0.45594000000E+02  0.51100000000E-03 0.  1.
         11   -1    0    0    0    0 -0.00000000000E+00 -0.00000000000E+00 -0.45593999997E+02  0.45594000000E+02  0.51100000000E-03 0. -1.
    9900012    2    1    2    0    0 -0.60415347663E+01 -0.40197752449E+02 -0.89777585689E+00  0.50528862703E+02  0.30000008672E+02 0.  0.
         12    1    1    2    0    0  0.60415347663E+01  0.40197752449E+02  0.89777585689E+00  0.40659137297E+02  0.00000000000E+00 0. -1.
         11    1    3    3    0    0  0.63657143504E+01  0.26337180845E+00  0.10585180730E+01  0.64584939941E+01  0.51100000000E-03 0. -1.
        -11    1    3    3    0    0 -0.47688389209E+01 -0.21278849631E+02  0.48326011505E+01  0.22335740427E+02  0.51100000000E-03 0.  1.
         12    1    3    3    0    0 -0.76384101958E+01 -0.19182274626E+02 -0.67888950804E+01  0.21734628282E+02  0.00000000000E+00 0. -1.
</event>
<event>
 7    1  0.5748623E-013  0.5052886E+02  0.7816164E-02  0.1300439E+00
        -11   -1    0    0    0    0  0.00000000000E+00  0.00000000000E+00  0.45593999997E+02  0.45594000000E+02  0.51100000000E-03 0. -1.
         11   -1    0    0    0    0 -0.00000000000E+00 -0.00000000000E+00 -0.45593999997E+02  0.45594000000E+02  0.51100000000E-03 0.  1.
    9900012    2    1    2    0    0 -0.34973837147E+02 -0.32106315675E+01 -0.20486286262E+02  0.50528863700E+02  0.30000011703E+02 0.  0.
         12    1    1    2    0    0  0.34973837147E+02  0.32106315675E+01  0.20486286262E+02  0.40659136300E+02  0.00000000000E+00 0. -1.
         11    1    3    3    0    0 -0.29170022232E+02  0.13905259795E+01 -0.51458396892E+01  0.29653050870E+02  0.51100000000E-03 0.  1.
        -11    1    3    3    0    0 -0.63621633109E+01 -0.74952908971E+01 -0.14963553314E+02  0.17904313326E+02  0.51100000000E-03 0. -1.
         12    1    3    3    0    0  0.55834839609E+00  0.28941333501E+01 -0.37689325885E+00  0.29714995049E+01  0.00000000000E+00 0. -1.
</event>
<event>
 7    1  0.5748623E-013  0.5052888E+02  0.7816164E-02  0.1300439E+00
        -11   -1    0    0    0    0  0.00000000000E+00  0.00000000000E+00  0.45593999997E+02  0.45594000000E+02  0.51100000000E-03 0. -1.
         11   -1    0    0    0    0 -0.00000000000E+00 -0.00000000000E+00 -0.45593999997E+02  0.45594000000E+02  0.51100000000E-03 0.  1.
    9900012    2    1    2    0    0 -0.20595957420E+02  0.30994861200E+02 -0.16379537556E+02  0.50528878841E+02  0.30000057726E+02 0.  0.
         12    1    1    2    0    0  0.20595957420E+02 -0.30994861200E+02  0.16379537556E+02  0.40659121159E+02  0.00000000000E+00 0. -1.
         11    1    3    3    0    0  0.54197198832E+01  0.14648837077E+02 -0.66841168948E+01  0.16989385223E+02  0.51100000000E-03 0. -1.
        -11    1    3    3    0    0 -0.14082011487E+02  0.37225577483E+01 -0.61455935281E+01  0.15809136718E+02  0.51100000000E-03 0.  1.
        -12    1    3    3    0    0 -0.11933665817E+02  0.12623466375E+02 -0.35498271327E+01  0.17730356900E+02  0.00000000000E+00 0.  1.
</event>
<event>
 7    1  0.5748623E-013  0.5052886E+02  0.7816164E-02  0.1300439E+00
        -11   -1    0    0    0    0  0.00000000000E+00  0.00000000000E+00  0.45593999997E+02  0.45594000000E+02  0.51100000000E-03 0.  1.
         11   -1    0    0    0    0 -0.00000000000E+00 -0.00000000000E+00 -0.45593999997E+02  0.45594000000E+02  0.51100000000E-03 0. -1.
    9900012    2    1    2    0    0 -0.20450168136E+02  0.19099321399E+02  0.29498682057E+02  0.50528859603E+02  0.29999999250E+02 0.  0.
         12    1    1    2    0    0  0.20450168136E+02 -0.19099321399E+02 -0.29498682057E+02  0.40659140397E+02  0.00000000000E+00 0. -1.
         11    1    3    3    0    0 -0.82315151953E+01  0.29140041682E+01  0.31764275554E+01  0.92918757514E+01  0.51100000000E-03 0. -1.
        -11    1    3    3    0    0 -0.11544564640E+02  0.18122677211E+02  0.30073740519E+02  0.36961307757E+02  0.51100000000E-03 0.  1.
        -12    1    3    3    0    0 -0.67408830148E+00 -0.19373599800E+01 -0.37514860176E+01  0.42756760952E+01  0.00000000000E+00 0.  1.
</event>
<event>
 7    1  0.5748623E-013  0.5052888E+02  0.7816164E-02  0.1300439E+00
        -11   -1    0    0    0    0  0.00000000000E+00  0.00000000000E+00  0.45593999997E+02  0.45594000000E+02  0.51100000000E-03 0.  1.
         11   -1    0    0    0    0 -0.00000000000E+00 -0.00000000000E+00 -0.45593999997E+02  0.45594000000E+02  0.51100000000E-03 0. -1.
    9900012    2    1    2    0    0  0.34782867418E+02  0.19203960345E+02  0.86327281070E+01  0.50528881056E+02  0.30000064459E+02 0.  0.
         12    1    1    2    0    0 -0.34782867418E+02 -0.19203960345E+02 -0.86327281070E+01  0.40659118944E+02  0.00000000000E+00 0. -1.
         11    1    3    3    0    0  0.34758051374E+02  0.10726333802E+02  0.40656133403E+01  0.36601988802E+02  0.51100000000E-03 0.  1.
        -11    1    3    3    0    0  0.28276484462E+00  0.10717600030E+02  0.46130725413E+01  0.11671647051E+02  0.51100000000E-03 0. -1.
        -12    1    3    3    0    0 -0.25794880151E+00 -0.22399734873E+01 -0.45957774623E-01  0.22552452029E+01  0.00000000000E+00 0.  1.
</event>
<event>
 7    1  0.5748623E-013  0.5052886E+02  0.7816164E-02  0.1300439E+00
        -11   -1    0    0    0    0  0.00000000000E+00  0.00000000000E+00  0.45593999997E+02  0.45594000000E+02  0.51100000000E-03 0. -1.
         11   -1    0    0    0    0 -0.00000000000E+00 -0.00000000000E+00 -0.45593999997E+02  0.45594000000E+02  0.51100000000E-03 0.  1.
    9900012    2    1    2    0    0 -0.34108123973E+02  0.16235041560E+02  0.15040781237E+02  0.50528858400E+02  0.29999995594E+02 0.  0.
         12    1    1    2    0    0  0.34108123973E+02 -0.16235041560E+02 -0.15040781237E+02  0.40659141600E+02  0.00000000000E+00 0. -1.
         11    1    3    3    0    0 -0.25055984994E+02  0.15185622301E+02  0.38666319304E+01  0.29552603125E+02  0.51100000000E-03 0.  1.
        -11    1    3    3    0    0 -0.10239884233E+02  0.19787673213E+01  0.14186426994E+02  0.17607539872E+02  0.51100000000E-03 0. -1.
         12    1    3    3    0    0  0.11877452544E+01 -0.92934806276E+00 -0.30122776868E+01  0.33687154040E+01  0.00000000000E+00 0. -1.
</event>
<event>
 7    1  0.5748623E-013  0.5052886E+02  0.7816164E-02  0.1300439E+00
        -11   -1    0    0    0    0  0.00000000000E+00  0.00000000000E+00  0.45593999997E+02  0.45594000000E+02  0.51100000000E-03 0. -1.
         11   -1    0    0    0    0 -0.00000000000E+00 -0.00000000000E+00 -0.45593999997E+02  0.45594000000E+02  0.51100000000E-03 0.  1.
    9900012    2    1    2    0    0 -0.83531007274E+01 -0.25929295993E+02 -0.30183815756E+02  0.50528863067E+02  0.30000009780E+02 0.  0.
         12    1    1    2    0    0  0.83531007274E+01  0.25929295993E+02  0.30183815756E+02  0.40659136933E+02  0.00000000000E+00 0. -1.
         11    1    3    3    0    0  0.26409134401E+01  0.44665678888E+01 -0.12689904467E+02  0.13709789501E+02  0.51100000000E-03 0. -1.
        -11    1    3    3    0    0 -0.51904489293E+01 -0.12207946739E+02 -0.80833901484E+01  0.15534346469E+02  0.51100000000E-03 0.  1.
         12    1    3    3    0    0 -0.58035652382E+01 -0.18187917143E+02 -0.94105211406E+01  0.21284727097E+02  0.00000000000E+00 0. -1.
</event>
<event>
 7    1  0.5748623E-013  0.5052885E+02  0.7816164E-02  0.1300439E+00
        -11   -1    0    0    0    0  0.00000000000E+00  0.00000000000E+00  0.45593999997E+02  0.45594000000E+02  0.51100000000E-03 0.  1.
         11   -1    0    0    0    0 -0.00000000000E+00 -0.00000000000E+00 -0.45593999997E+02  0.45594000000E+02  0.51100000000E-03 0. -1.
    9900012    2    1    2    0    0  0.33109885607E+02 -0.16051589946E+02  0.17298790811E+02  0.50528853080E+02  0.29999979423E+02 0.  0.
         12    1    1    2    0    0 -0.33109885607E+02  0.16051589946E+02 -0.17298790811E+02  0.40659146920E+02  0.00000000000E+00 0. -1.
         11    1    3    3    0    0 -0.16730016669E+01  0.81656198583E+00 -0.46295246066E+01  0.49898102568E+01  0.51100000000E-03 0. -1.
        -11    1    3    3    0    0  0.41454342731E+01 -0.20928368481E+01  0.69834479269E+01  0.83864853541E+01  0.51100000000E-03 0.  1.
         12    1    3    3    0    0  0.30637453001E+02 -0.14775315083E+02  0.14944867491E+02  0.37152557469E+02  0.00000000000E+00 0. -1.
</event>
<event>
 7    1  0.5748623E-013  0.5052886E+02  0.7816164E-02  0.1300439E+00
        -11   -1    0    0    0    0  0.00000000000E+00  0.00000000000E+00  0.45593999997E+02  0.45594000000E+02  0.51100000000E-03 0.  1.
         11   -1    0    0    0    0 -0.00000000000E+00 -0.00000000000E+00 -0.45593999997E+02  0.45594000000E+02  0.51100000000E-03 0. -1.
    9900012    2    1    2    0    0 -0.55051272557E+01 -0.23041108723E+02  0.33044916494E+02  0.50528860519E+02  0.30000002032E+02 0.  0.
         12    1    1    2    0    0  0.55051272557E+01  0.23041108723E+02 -0.33044916494E+02  0.40659139481E+02  0.00000000000E+00 0. -1.
         11    1    3    3    0    0 -0.35207980224E+01  0.23809133037E+00  0.67808909839E+01  0.76441604505E+01  0.51100000000E-03 0. -1.
        -11    1    3    3    0    0 -0.18394758430E+01 -0.27348159172E+02  0.15756742434E+02  0.31616141667E+02  0.51100000000E-03 0.  1.
        -12    1    3    3    0    0 -0.14485339033E+00  0.40689591186E+01  0.10507283076E+02  0.11268558401E+02  0.00000000000E+00 0.  1.
</event>
<event>
 7    1  0.5748623E-013  0.5052886E+02  0.7816164E-02  0.1300439E+00
        -11   -1    0    0    0    0  0.00000000000E+00  0.00000000000E+00  0.45593999997E+02  0.45594000000E+02  0.51100000000E-03 0.  1.
         11   -1    0    0    0    0 -0.00000000000E+00 -0.00000000000E+00 -0.45593999997E+02  0.45594000000E+02  0.51100000000E-03 0. -1.
    9900012    2    1    2    0    0  0.14802682481E+00  0.25554054600E+02  0.31624891631E+02  0.50528863399E+02  0.30000010787E+02 0.  0.
         12    1    1    2    0    0 -0.14802682481E+00 -0.25554054600E+02 -0.31624891631E+02  0.40659136601E+02  0.00000000000E+00 0. -1.
         11    1    3    3    0    0 -0.36126700237E+01 -0.35755386524E+01  0.16867819280E+02  0.17617014187E+02  0.51100000000E-03 0. -1.
        -11    1    3    3    0    0  0.35340423484E+01  0.23350641936E+02  0.12306968542E+02  0.26630873232E+02  0.51100000000E-03 0.  1.
         12    1    3    3    0    0  0.22665450009E+00  0.57789513166E+01  0.24501038094E+01  0.62809759798E+01  0.00000000000E+00 0. -1.
</event>
<event>
 7    1  0.6610393E-013  0.5052887E+02  0.7816164E-02  0.1300439E+00
        -11   -1    0    0    0    0  0.00000000000E+00  0.00000000000E+00  0.45593999997E+02  0.45594000000E+02  0.51100000000E-03 0. -1.
         11   -1    0    0    0    0 -0.00000000000E+00 -0.00000000000E+00 -0.45593999997E+02  0.45594000000E+02  0.51100000000E-03 0.  1.
    9900012    2    1    2    0    0  0.15175718813E+02 -0.33854411567E+02 -0.16635552876E+02  0.50528865189E+02  0.30000016228E+02 0.  0.
         12    1    1    2    0    0 -0.15175718813E+02  0.33854411567E+02  0.16635552876E+02  0.40659134811E+02  0.00000000000E+00 0. -1.
         11    1    3    3    0    0  0.69952419977E+01  0.39794484874E-02 -0.23831590077E+00  0.69993014775E+01  0.51100000000E-03 0. -1.
        -11    1    3    3    0    0  0.11491846119E+02 -0.31689328174E+02 -0.86053063672E+01  0.34789759201E+02  0.51100000000E-03 0.  1.
        -12    1    3    3    0    0 -0.33113693029E+01 -0.21690628416E+01 -0.77919306083E+01  0.87398045102E+01  0.00000000000E+00 0.  1.
</event>
<event>
 7    1  0.5748623E-013  0.5052887E+02  0.7816164E-02  0.1300439E+00
        -11   -1    0    0    0    0  0.00000000000E+00  0.00000000000E+00  0.45593999997E+02  0.45594000000E+02  0.51100000000E-03 0.  1.
         11   -1    0    0    0    0 -0.00000000000E+00 -0.00000000000E+00 -0.45593999997E+02  0.45594000000E+02  0.51100000000E-03 0. -1.
    9900012    2    1    2    0    0 -0.15835131621E+01  0.21780579430E+02  0.34296696827E+02  0.50528873503E+02  0.30000041500E+02 0.  0.
         12    1    1    2    0    0  0.15835131621E+01 -0.21780579430E+02 -0.34296696827E+02  0.40659126497E+02  0.00000000000E+00 0. -1.
         11    1    3    3    0    0  0.49225143426E+01  0.15496015898E+02  0.11424221614E+02  0.19871348618E+02  0.51100000000E-03 0. -1.
        -11    1    3    3    0    0 -0.80143325773E+01  0.18595750580E+01  0.99624260985E+00  0.82873424966E+01  0.51100000000E-03 0.  1.
        -12    1    3    3    0    0  0.15083050727E+01  0.44249884742E+01  0.21876232603E+02  0.22370182389E+02  0.00000000000E+00 0.  1.
</event>
<event>
 7    1  0.5748623E-013  0.5052886E+02  0.7816164E-02  0.1300439E+00
        -11   -1    0    0    0    0  0.00000000000E+00  0.00000000000E+00  0.45593999997E+02  0.45594000000E+02  0.51100000000E-03 0.  1.
         11   -1    0    0    0    0 -0.00000000000E+00 -0.00000000000E+00 -0.45593999997E+02  0.45594000000E+02  0.51100000000E-03 0. -1.
    9900012    2    1    2    0    0 -0.19045306911E+02  0.35826826827E+02  0.26231323506E+01  0.50528855160E+02  0.29999985744E+02 0.  0.
         12    1    1    2    0    0  0.19045306911E+02 -0.35826826827E+02 -0.26231323506E+01  0.40659144840E+02  0.00000000000E+00 0. -1.
         11    1    3    3    0    0  0.49275037162E+01  0.92594705633E+01 -0.15301347310E+01  0.10599971724E+02  0.51100000000E-03 0. -1.
        -11    1    3    3    0    0 -0.19088358184E+02  0.12670863514E+02 -0.37448721019E+01  0.23215087070E+02  0.51100000000E-03 0.  1.
        -12    1    3    3    0    0 -0.48844524431E+01  0.13896492749E+02  0.78981391835E+01  0.16713796366E+02  0.00000000000E+00 0.  1.
</event>
<event>
 7    1  0.5748623E-013  0.5052885E+02  0.7816164E-02  0.1300439E+00
        -11   -1    0    0    0    0  0.00000000000E+00  0.00000000000E+00  0.45593999997E+02  0.45594000000E+02  0.51100000000E-03 0.  1.
         11   -1    0    0    0    0 -0.00000000000E+00 -0.00000000000E+00 -0.45593999997E+02  0.45594000000E+02  0.51100000000E-03 0. -1.
    9900012    2    1    2    0    0 -0.29890043693E+02 -0.17629993491E+02  0.21188088680E+02  0.50528849930E+02  0.29999969849E+02 0.  0.
         12    1    1    2    0    0  0.29890043693E+02  0.17629993491E+02 -0.21188088680E+02  0.40659150070E+02  0.00000000000E+00 0. -1.
         11    1    3    3    0    0  0.58944987318E+00 -0.12068493300E+02  0.33941635184E+01  0.12550550902E+02  0.51100000000E-03 0. -1.
        -11    1    3    3    0    0 -0.14474743572E+02 -0.24736576699E+01  0.12247561514E+01  0.14735576393E+02  0.51100000000E-03 0.  1.
         12    1    3    3    0    0 -0.16004749994E+02 -0.30878425206E+01  0.16569169011E+02  0.23242722635E+02  0.00000000000E+00 0. -1.
</event>
<event>
 7    1  0.5748623E-013  0.5052892E+02  0.7816164E-02  0.1300439E+00
        -11   -1    0    0    0    0  0.00000000000E+00  0.00000000000E+00  0.45593999997E+02  0.45594000000E+02  0.51100000000E-03 0.  1.
         11   -1    0    0    0    0 -0.00000000000E+00 -0.00000000000E+00 -0.45593999997E+02  0.45594000000E+02  0.51100000000E-03 0. -1.
    9900012    2    1    2    0    0 -0.40098510840E+02  0.13936735268E+01 -0.65823737416E+01  0.50528923012E+02  0.30000191987E+02 0.  0.
         12    1    1    2    0    0  0.40098510840E+02 -0.13936735268E+01  0.65823737416E+01  0.40659076988E+02  0.00000000000E+00 0. -1.
         11    1    3    3    0    0 -0.40931810077E+02 -0.51416269686E+01 -0.33232065067E+01  0.41387112799E+02  0.51100000000E-03 0. -1.
        -11    1    3    3    0    0 -0.23959512078E+00  0.67154720064E+01 -0.12185952195E+01  0.68293443800E+01  0.51100000000E-03 0.  1.
         12    1    3    3    0    0  0.10728943587E+01 -0.18017151106E+00 -0.20405720154E+01  0.23124658329E+01  0.00000000000E+00 0. -1.
</event>
<event>
 7    1  0.5748623E-013  0.5052886E+02  0.7816164E-02  0.1300439E+00
        -11   -1    0    0    0    0  0.00000000000E+00  0.00000000000E+00  0.45593999997E+02  0.45594000000E+02  0.51100000000E-03 0.  1.
         11   -1    0    0    0    0 -0.00000000000E+00 -0.00000000000E+00 -0.45593999997E+02  0.45594000000E+02  0.51100000000E-03 0. -1.
    9900012    2    1    2    0    0 -0.18860136981E+02 -0.36006137023E+02  0.10092688618E+01  0.50528864571E+02  0.30000014349E+02 0.  0.
         12    1    1    2    0    0  0.18860136981E+02  0.36006137023E+02 -0.10092688618E+01  0.40659135429E+02  0.00000000000E+00 0. -1.
         11    1    3    3    0    0 -0.13226853758E+02 -0.13517465828E+01  0.55775411385E+01  0.14418246931E+02  0.51100000000E-03 0. -1.
        -11    1    3    3    0    0 -0.23366297311E+01 -0.96854999644E+01 -0.44815676448E+01  0.10924888872E+02  0.51100000000E-03 0.  1.
         12    1    3    3    0    0 -0.32966534918E+01 -0.24968890476E+02 -0.86704631894E-01  0.25185728767E+02  0.00000000000E+00 0. -1.
</event>
<event>
 7    1  0.5748623E-013  0.5052886E+02  0.7816164E-02  0.1300439E+00
        -11   -1    0    0    0    0  0.00000000000E+00  0.00000000000E+00  0.45593999997E+02  0.45594000000E+02  0.51100000000E-03 0.  1.
         11   -1    0    0    0    0 -0.00000000000E+00 -0.00000000000E+00 -0.45593999997E+02  0.45594000000E+02  0.51100000000E-03 0. -1.
    9900012    2    1    2    0    0  0.34653303758E+02 -0.15681562410E+02  0.14366713107E+02  0.50528864416E+02  0.30000013878E+02 0.  0.
         12    1    1    2    0    0 -0.34653303758E+02  0.15681562410E+02 -0.14366713107E+02  0.40659135584E+02  0.00000000000E+00 0. -1.
         11    1    3    3    0    0  0.21259760434E+02 -0.12757004156E+02 -0.25369940267E+01  0.24922979511E+02  0.51100000000E-03 0. -1.
        -11    1    3    3    0    0  0.75640166665E+01 -0.67764335694E+01  0.15418671521E+02  0.18462660474E+02  0.51100000000E-03 0.  1.
        -12    1    3    3    0    0  0.58295266570E+01  0.38518753152E+01  0.14850356131E+01  0.71432244302E+01  0.00000000000E+00 0.  1.
</event>
<event>
 7    1  0.7714054E-013  0.5052886E+02  0.7816164E-02  0.1300439E+00
        -11   -1    0    0    0    0  0.00000000000E+00  0.00000000000E+00  0.45593999997E+02  0.45594000000E+02  0.51100000000E-03 0. -1.
         11   -1    0    0    0    0 -0.00000000000E+00 -0.00000000000E+00 -0.45593999997E+02  0.45594000000E+02  0.51100000000E-03 0.  1.
    9900012    2    1    2    0    0 -0.26050393194E+01  0.81855111323E+01 -0.39741373521E+02  0.50528860909E+02  0.30000003218E+02 0.  0.
         12    1    1    2    0    0  0.26050393194E+01 -0.81855111323E+01  0.39741373521E+02  0.40659139091E+02  0.00000000000E+00 0. -1.
         11    1    3    3    0    0 -0.16231503051E+01  0.44326231830E+01  0.24643812060E+01  0.53250295948E+01  0.51100000000E-03 0. -1.
        -11    1    3    3    0    0  0.50076407468E+01 -0.38464112493E+01 -0.20221494947E+02  0.21184433046E+02  0.51100000000E-03 0.  1.
        -12    1    3    3    0    0 -0.59895297611E+01  0.75992991986E+01 -0.21984259780E+02  0.24019398268E+02  0.00000000000E+00 0.  1.
</event>
<event>
 7    1  0.5748623E-013  0.5052887E+02  0.7816164E-02  0.1300439E+00
        -11   -1    0    0    0    0  0.00000000000E+00  0.00000000000E+00  0.45593999997E+02  0.45594000000E+02  0.51100000000E-03 0. -1.
         11   -1    0    0    0    0 -0.00000000000E+00 -0.00000000000E+00 -0.45593999997E+02  0.45594000000E+02  0.51100000000E-03 0.  1.
    9900012    2    1    2    0    0  0.38527539347E+02 -0.74864282715E+01 -0.10618251598E+02  0.50528866175E+02  0.30000019226E+02 0.  0.
         12    1    1    2    0    0 -0.38527539347E+02  0.74864282715E+01  0.10618251598E+02  0.40659133825E+02  0.00000000000E+00 0. -1.
         11    1    3    3    0    0  0.19588128662E+02 -0.20815044173E+01  0.15970444783E+01  0.19763046234E+02  0.51100000000E-03 0. -1.
        -11    1    3    3    0    0  0.15777753077E+02  0.43358140558E+00 -0.16523764309E+02  0.22850826510E+02  0.51100000000E-03 0.  1.
        -12    1    3    3    0    0  0.31616576076E+01 -0.58385052598E+01  0.43084682331E+01  0.79149934310E+01  0.00000000000E+00 0.  1.
</event>
<event>
 7    1  0.5748623E-013  0.5052886E+02  0.7816164E-02  0.1300439E+00
        -11   -1    0    0    0    0  0.00000000000E+00  0.00000000000E+00  0.45593999997E+02  0.45594000000E+02  0.51100000000E-03 0.  1.
         11   -1    0    0    0    0 -0.00000000000E+00 -0.00000000000E+00 -0.45593999997E+02  0.45594000000E+02  0.51100000000E-03 0. -1.
    9900012    2    1    2    0    0 -0.37458465224E+02 -0.81921954723E+01 -0.13524683962E+02  0.50528858840E+02  0.29999996929E+02 0.  0.
         12    1    1    2    0    0  0.37458465224E+02  0.81921954723E+01  0.13524683962E+02  0.40659141160E+02  0.00000000000E+00 0. -1.
         11    1    3    3    0    0 -0.75937514009E+01  0.95735000435E+01 -0.54820379177E+01  0.13392897499E+02  0.51100000000E-03 0. -1.
        -11    1    3    3    0    0 -0.14148469550E+02 -0.10990451362E+02 -0.88910496596E+01  0.20000499395E+02  0.51100000000E-03 0.  1.
         12    1    3    3    0    0 -0.15716244274E+02 -0.67752441542E+01  0.84840361488E+00  0.17135461946E+02  0.00000000000E+00 0. -1.
</event>
<event>
 7    1  0.5748623E-013  0.5052885E+02  0.7816164E-02  0.1300439E+00
        -11   -1    0    0    0    0  0.00000000000E+00  0.00000000000E+00  0.45593999997E+02  0.45594000000E+02  0.51100000000E-03 0.  1.
         11   -1    0    0    0    0 -0.00000000000E+00 -0.00000000000E+00 -0.45593999997E+02  0.45594000000E+02  0.51100000000E-03 0. -1.
    9900012    2    1    2    0    0 -0.34001293240E+02  0.20506111267E+02 -0.87508594751E+01  0.50528854868E+02  0.29999984857E+02 0.  0.
         12    1    1    2    0    0  0.34001293240E+02 -0.20506111267E+02  0.87508594751E+01  0.40659145132E+02  0.00000000000E+00 0. -1.
         11    1    3    3    0    0 -0.81035000574E+01  0.82807702842E+01  0.56457814191E+01  0.12888472282E+02  0.51100000000E-03 0.  1.
        -11    1    3    3    0    0  0.62796801705E-01  0.34367066140E+01 -0.90971281817E+01  0.97248463846E+01  0.51100000000E-03 0. -1.
        -12    1    3    3    0    0 -0.25960589984E+02  0.87886343688E+01 -0.52995127125E+01  0.27915536201E+02  0.00000000000E+00 0.  1.
</event>
<event>
 7    1  0.5748623E-013  0.5052886E+02  0.7816164E-02  0.1300439E+00
        -11   -1    0    0    0    0  0.00000000000E+00  0.00000000000E+00  0.45593999997E+02  0.45594000000E+02  0.51100000000E-03 0. -1.
         11   -1    0    0    0    0 -0.00000000000E+00 -0.00000000000E+00 -0.45593999997E+02  0.45594000000E+02  0.51100000000E-03 0.  1.
    9900012    2    1    2    0    0 -0.12016311309E+02  0.17541830631E+02  0.34656282825E+02  0.50528862053E+02  0.30000006697E+02 0.  0.
         12    1    1    2    0    0  0.12016311309E+02 -0.17541830631E+02 -0.34656282825E+02  0.40659137947E+02  0.00000000000E+00 0. -1.
         11    1    3    3    0    0 -0.12252434826E+02  0.31548440092E+00  0.75298874996E+01  0.14384745239E+02  0.51100000000E-03 0. -1.
        -11    1    3    3    0    0  0.34391178834E+01  0.19449379870E+02  0.24372464261E+02  0.31370733551E+02  0.51100000000E-03 0.  1.
        -12    1    3    3    0    0 -0.32029943665E+01 -0.22230336394E+01  0.27539310644E+01  0.47733832636E+01  0.00000000000E+00 0.  1.
</event>
<event>
 7    1  0.5748623E-013  0.5052890E+02  0.7816164E-02  0.1300439E+00
        -11   -1    0    0    0    0  0.00000000000E+00  0.00000000000E+00  0.45593999997E+02  0.45594000000E+02  0.51100000000E-03 0.  1.
         11   -1    0    0    0    0 -0.00000000000E+00 -0.00000000000E+00 -0.45593999997E+02  0.45594000000E+02  0.51100000000E-03 0. -1.
    9900012    2    1    2    0    0 -0.18687108919E+02 -0.21508237333E+02  0.29006036890E+02  0.50528899064E+02  0.30000119195E+02 0.  0.
         12    1    1    2    0    0  0.18687108919E+02  0.21508237333E+02 -0.29006036890E+02  0.40659100936E+02  0.00000000000E+00 0. -1.
         11    1    3    3    0    0 -0.10562346890E+02 -0.68488078543E+01  0.91685526458E+01  0.15573429254E+02  0.51100000000E-03 0. -1.
        -11    1    3    3    0    0  0.80374967153E-01 -0.19277382071E+02  0.12022022293E+02  0.22718999536E+02  0.51100000000E-03 0.  1.
        -12    1    3    3    0    0 -0.82051369959E+01  0.46179525925E+01  0.78154619503E+01  0.12236470274E+02  0.00000000000E+00 0.  1.
</event>
<event>
 7    1  0.5748623E-013  0.5052888E+02  0.7816164E-02  0.1300439E+00
        -11   -1    0    0    0    0  0.00000000000E+00  0.00000000000E+00  0.45593999997E+02  0.45594000000E+02  0.51100000000E-03 0.  1.
         11   -1    0    0    0    0 -0.00000000000E+00 -0.00000000000E+00 -0.45593999997E+02  0.45594000000E+02  0.51100000000E-03 0. -1.
    9900012    2    1    2    0    0 -0.29454084529E+02 -0.26718575917E+02  0.84698763908E+01  0.50528878016E+02  0.30000055216E+02 0.  0.
         12    1    1    2    0    0  0.29454084529E+02  0.26718575917E+02 -0.84698763908E+01  0.40659121984E+02  0.00000000000E+00 0. -1.
         11    1    3    3    0    0 -0.23999939385E+02 -0.14596725609E+02 -0.38026193519E+01  0.28346453098E+02  0.51100000000E-03 0. -1.
        -11    1    3    3    0    0 -0.94413223484E+01 -0.95919062101E+01  0.10736718009E+02  0.17216862266E+02  0.51100000000E-03 0.  1.
         12    1    3    3    0    0  0.39871772051E+01 -0.25299440978E+01  0.15357777338E+01  0.49655626519E+01  0.00000000000E+00 0. -1.
</event>
<event>
 7    1  0.5748623E-013  0.5052886E+02  0.7816164E-02  0.1300439E+00
        -11   -1    0    0    0    0  0.00000000000E+00  0.00000000000E+00  0.45593999997E+02  0.45594000000E+02  0.51100000000E-03 0.  1.
         11   -1    0    0    0    0 -0.00000000000E+00 -0.00000000000E+00 -0.45593999997E+02  0.45594000000E+02  0.51100000000E-03 0. -1.
    9900012    2    1    2    0    0 -0.63629010433E+00 -0.21857183404E+02  0.34278627565E+02  0.50528860324E+02  0.30000001440E+02 0.  0.
         12    1    1    2    0    0  0.63629010433E+00  0.21857183404E+02 -0.34278627565E+02  0.40659139676E+02  0.00000000000E+00 0. -1.
         11    1    3    3    0    0  0.14769088778E+01 -0.18071936101E+02  0.35247440324E+02  0.39637837781E+02  0.51100000000E-03 0.  1.
        -11    1    3    3    0    0 -0.19348042708E+01  0.31151089123E+01 -0.15130259745E+01  0.39669407561E+01  0.51100000000E-03 0. -1.
         12    1    3    3    0    0 -0.17839471135E+00 -0.69003562146E+01  0.54421321569E+00  0.69240817865E+01  0.00000000000E+00 0. -1.
</event>
<event>
 7    1  0.5748623E-013  0.5052886E+02  0.7816164E-02  0.1300439E+00
        -11   -1    0    0    0    0  0.00000000000E+00  0.00000000000E+00  0.45593999997E+02  0.45594000000E+02  0.51100000000E-03 0.  1.
         11   -1    0    0    0    0 -0.00000000000E+00 -0.00000000000E+00 -0.45593999997E+02  0.45594000000E+02  0.51100000000E-03 0. -1.
    9900012    2    1    2    0    0  0.42723930308E+01 -0.37371563938E+00  0.40432325152E+02  0.50528856837E+02  0.29999990841E+02 0.  0.
         12    1    1    2    0    0 -0.42723930308E+01  0.37371563938E+00 -0.40432325152E+02  0.40659143163E+02  0.00000000000E+00 0. -1.
         11    1    3    3    0    0  0.12619951537E+02 -0.88339136151E+01  0.25396016124E+02  0.29702842319E+02  0.51100000000E-03 0. -1.
        -11    1    3    3    0    0 -0.56168666679E+01  0.82997384514E+01  0.15060922872E+02  0.18090501584E+02  0.51100000000E-03 0.  1.
         12    1    3    3    0    0 -0.27306918381E+01  0.16045952437E+00 -0.24613844903E-01  0.27355129345E+01  0.00000000000E+00 0. -1.
</event>
<event>
 7    1  0.5748623E-013  0.5052887E+02  0.7816164E-02  0.1300439E+00
        -11   -1    0    0    0    0  0.00000000000E+00  0.00000000000E+00  0.45593999997E+02  0.45594000000E+02  0.51100000000E-03 0. -1.
         11   -1    0    0    0    0 -0.00000000000E+00 -0.00000000000E+00 -0.45593999997E+02  0.45594000000E+02  0.51100000000E-03 0.  1.
    9900012    2    1    2    0    0 -0.16314627094E+02 -0.29141984525E+02 -0.23189269804E+02  0.50528873678E+02  0.30000042032E+02 0.  0.
         12    1    1    2    0    0  0.16314627094E+02  0.29141984525E+02  0.23189269804E+02  0.40659126322E+02  0.00000000000E+00 0. -1.
         11    1    3    3    0    0  0.45220505324E+01 -0.95981192882E+01 -0.13503370509E+02  0.17173055938E+02  0.51100000000E-03 0. -1.
        -11    1    3    3    0    0 -0.84549668404E+01 -0.10945866296E+02  0.23963077065E+01  0.14037120222E+02  0.51100000000E-03 0.  1.
         12    1    3    3    0    0 -0.12381710786E+02 -0.85979989400E+01 -0.12082207001E+02  0.19318697518E+02  0.00000000000E+00 0. -1.
</event>
<event>
 7    1  0.5748623E-013  0.5052886E+02  0.7816164E-02  0.1300439E+00
        -11   -1    0    0    0    0  0.00000000000E+00  0.00000000000E+00  0.45593999997E+02  0.45594000000E+02  0.51100000000E-03 0. -1.
         11   -1    0    0    0    0 -0.00000000000E+00 -0.00000000000E+00 -0.45593999997E+02  0.45594000000E+02  0.51100000000E-03 0.  1.
    9900012    2    1    2    0    0 -0.19529025474E+02 -0.32994572210E+02  0.13532963449E+02  0.50528859195E+02  0.29999998008E+02 0.  0.
         12    1    1    2    0    0  0.19529025474E+02  0.32994572210E+02 -0.13532963449E+02  0.40659140805E+02  0.00000000000E+00 0. -1.
         11    1    3    3    0    0  0.47611533240E+01 -0.40948549496E+01 -0.16556998730E+00  0.62820244918E+01  0.51100000000E-03 0. -1.
        -11    1    3    3    0    0 -0.12081427273E+02 -0.22145327469E+02  0.79011673100E+00  0.25238872763E+02  0.51100000000E-03 0.  1.
        -12    1    3    3    0    0 -0.12208751525E+02 -0.67543897920E+01  0.12908416705E+02  0.19007961939E+02  0.00000000000E+00 0.  1.
</event>
<event>
 7    1  0.5748623E-013  0.5052886E+02  0.7816164E-02  0.1300439E+00
        -11   -1    0    0    0    0  0.00000000000E+00  0.00000000000E+00  0.45593999997E+02  0.45594000000E+02  0.51100000000E-03 0.  1.
         11   -1    0    0    0    0 -0.00000000000E+00 -0.00000000000E+00 -0.45593999997E+02  0.45594000000E+02  0.51100000000E-03 0. -1.
    9900012    2    1    2    0    0 -0.22863165721E+02 -0.33234535079E+02 -0.50898757343E+01  0.50528861990E+02  0.30000006506E+02 0.  0.
         12    1    1    2    0    0  0.22863165721E+02  0.33234535079E+02  0.50898757343E+01  0.40659138010E+02  0.00000000000E+00 0. -1.
         11    1    3    3    0    0  0.30943681549E+01 -0.91850350786E+01 -0.67957325634E+01  0.11837312406E+02  0.51100000000E-03 0. -1.
        -11    1    3    3    0    0 -0.24621519497E+02 -0.14199403755E+02 -0.82353810689E+00  0.28434494977E+02  0.51100000000E-03 0.  1.
        -12    1    3    3    0    0 -0.13360143784E+01 -0.98500962453E+01  0.25293949359E+01  0.10257054607E+02  0.00000000000E+00 0.  1.
</event>
<event>
 7    1  0.5748623E-013  0.5052885E+02  0.7816164E-02  0.1300439E+00
        -11   -1    0    0    0    0  0.00000000000E+00  0.00000000000E+00  0.45593999997E+02  0.45594000000E+02  0.51100000000E-03 0.  1.
         11   -1    0    0    0    0 -0.00000000000E+00 -0.00000000000E+00 -0.45593999997E+02  0.45594000000E+02  0.51100000000E-03 0. -1.
    9900012    2    1    2    0    0 -0.37474883233E+02  0.23422771403E+01  0.15598508516E+02  0.50528848466E+02  0.29999965398E+02 0.  0.
         12    1    1    2    0    0  0.37474883233E+02 -0.23422771403E+01 -0.15598508516E+02  0.40659151534E+02  0.00000000000E+00 0. -1.
         11    1    3    3    0    0 -0.99993426411E+01  0.99021966156E+01 -0.11978793757E+01  0.14123571302E+02  0.51100000000E-03 0. -1.
        -11    1    3    3    0    0 -0.96040408810E+01 -0.10442830378E+02  0.78020282024E+01  0.16191415994E+02  0.51100000000E-03 0.  1.
        -12    1    3    3    0    0 -0.17871499711E+02  0.28829109026E+01  0.89943596890E+01  0.20213861170E+02  0.00000000000E+00 0.  1.
</event>
<event>
 7    1  0.5748623E-013  0.5052887E+02  0.7816164E-02  0.1300439E+00
        -11   -1    0    0    0    0  0.00000000000E+00  0.00000000000E+00  0.45593999997E+02  0.45594000000E+02  0.51100000000E-03 0.  1.
         11   -1    0    0    0    0 -0.00000000000E+00 -0.00000000000E+00 -0.45593999997E+02  0.45594000000E+02  0.51100000000E-03 0. -1.
    9900012    2    1    2    0    0 -0.16518976322E+02 -0.29389379868E+02  0.22727800962E+02  0.50528866164E+02  0.30000019191E+02 0.  0.
         12    1    1    2    0    0  0.16518976322E+02  0.29389379868E+02 -0.22727800962E+02  0.40659133836E+02  0.00000000000E+00 0. -1.
         11    1    3    3    0    0 -0.26961330969E+01 -0.18502598495E+02  0.16636703407E+02  0.25027888150E+02  0.51100000000E-03 0. -1.
        -11    1    3    3    0    0 -0.17631015047E+02 -0.61402289038E+01  0.48688390932E+01  0.19294058592E+02  0.51100000000E-03 0.  1.
         12    1    3    3    0    0  0.38081718211E+01 -0.47465524689E+01  0.12222584618E+01  0.62069194216E+01  0.00000000000E+00 0. -1.
</event>
<event>
 7    1  0.5748623E-013  0.5052880E+02  0.7816164E-02  0.1300439E+00
        -11   -1    0    0    0    0  0.00000000000E+00  0.00000000000E+00  0.45593999997E+02  0.45594000000E+02  0.51100000000E-03 0.  1.
         11   -1    0    0    0    0 -0.00000000000E+00 -0.00000000000E+00 -0.45593999997E+02  0.45594000000E+02  0.51100000000E-03 0. -1.
    9900012    2    1    2    0    0  0.19152515746E+02 -0.19681150109E+02  0.29983394930E+02  0.50528800542E+02  0.29999819727E+02 0.  0.
         12    1    1    2    0    0 -0.19152515746E+02  0.19681150109E+02 -0.29983394930E+02  0.40659199458E+02  0.00000000000E+00 0. -1.
         11    1    3    3    0    0  0.69670858444E+01 -0.14392441160E+01  0.29071071247E+01  0.76852443608E+01  0.51100000000E-03 0. -1.
        -11    1    3    3    0    0  0.11615299687E+02 -0.20401194475E+02  0.30663284447E+02  0.38618142578E+02  0.51100000000E-03 0.  1.
        -12    1    3    3    0    0  0.57013021392E+00  0.21592884818E+01 -0.35869966419E+01  0.42254136031E+01  0.00000000000E+00 0.  1.
</event>
<event>
 7    1  0.5748623E-013  0.5052886E+02  0.7816164E-02  0.1300439E+00
        -11   -1    0    0    0    0  0.00000000000E+00  0.00000000000E+00  0.45593999997E+02  0.45594000000E+02  0.51100000000E-03 0. -1.
         11   -1    0    0    0    0 -0.00000000000E+00 -0.00000000000E+00 -0.45593999997E+02  0.45594000000E+02  0.51100000000E-03 0.  1.
    9900012    2    1    2    0    0 -0.23701024873E+02 -0.22114687186E+02  0.24543180870E+02  0.50528859618E+02  0.29999999296E+02 0.  0.
         12    1    1    2    0    0  0.23701024873E+02  0.22114687186E+02 -0.24543180870E+02  0.40659140382E+02  0.00000000000E+00 0. -1.
         11    1    3    3    0    0  0.14139182270E+01 -0.44830556816E+01  0.97676116327E+00  0.48011473242E+01  0.51100000000E-03 0. -1.
        -11    1    3    3    0    0 -0.20586841107E+02 -0.36076013917E+01  0.22859241886E+02  0.30973823698E+02  0.51100000000E-03 0.  1.
        -12    1    3    3    0    0 -0.45281019930E+01 -0.14024030112E+02  0.70717782028E+00  0.14753888597E+02  0.00000000000E+00 0.  1.
</event>
<event>
 7    1  0.5748623E-013  0.5052886E+02  0.7816164E-02  0.1300439E+00
        -11   -1    0    0    0    0  0.00000000000E+00  0.00000000000E+00  0.45593999997E+02  0.45594000000E+02  0.51100000000E-03 0.  1.
         11   -1    0    0    0    0 -0.00000000000E+00 -0.00000000000E+00 -0.45593999997E+02  0.45594000000E+02  0.51100000000E-03 0. -1.
    9900012    2    1    2    0    0  0.13124352365E+02 -0.37033795299E+02 -0.10460183841E+02  0.50528855084E+02  0.29999985514E+02 0.  0.
         12    1    1    2    0    0 -0.13124352365E+02  0.37033795299E+02  0.10460183841E+02  0.40659144916E+02  0.00000000000E+00 0. -1.
         11    1    3    3    0    0 -0.43945691566E+00 -0.17451081173E+02 -0.11644749516E+02  0.20984126097E+02  0.51100000000E-03 0.  1.
        -11    1    3    3    0    0 -0.12435850887E+01 -0.38482668769E+01  0.61638050889E+01  0.73721201335E+01  0.51100000000E-03 0. -1.
        -12    1    3    3    0    0  0.14807394369E+02 -0.15734447250E+02 -0.49792394142E+01  0.22172608854E+02  0.00000000000E+00 0.  1.
</event>
<event>
 7    1  0.5748623E-013  0.5052886E+02  0.7816164E-02  0.1300439E+00
        -11   -1    0    0    0    0  0.00000000000E+00  0.00000000000E+00  0.45593999997E+02  0.45594000000E+02  0.51100000000E-03 0. -1.
         11   -1    0    0    0    0 -0.00000000000E+00 -0.00000000000E+00 -0.45593999997E+02  0.45594000000E+02  0.51100000000E-03 0.  1.
    9900012    2    1    2    0    0 -0.12995247386E+02  0.12104933880E+02 -0.36575402403E+02  0.50528856627E+02  0.29999990204E+02 0.  0.
         12    1    1    2    0    0  0.12995247386E+02 -0.12104933880E+02  0.36575402403E+02  0.40659143373E+02  0.00000000000E+00 0. -1.
         11    1    3    3    0    0  0.61421855871E+01 -0.53893083112E+01 -0.12114468716E+02  0.14612715025E+02  0.51100000000E-03 0. -1.
        -11    1    3    3    0    0 -0.10137666347E+02  0.64355300778E+01 -0.12081913796E+02  0.17034111881E+02  0.51100000000E-03 0.  1.
         12    1    3    3    0    0 -0.89997666260E+01  0.11058712113E+02 -0.12379019892E+02  0.18882029722E+02  0.00000000000E+00 0. -1.
</event>
<event>
 7    1  0.5748623E-013  0.5052886E+02  0.7816164E-02  0.1300439E+00
        -11   -1    0    0    0    0  0.00000000000E+00  0.00000000000E+00  0.45593999997E+02  0.45594000000E+02  0.51100000000E-03 0. -1.
         11   -1    0    0    0    0 -0.00000000000E+00 -0.00000000000E+00 -0.45593999997E+02  0.45594000000E+02  0.51100000000E-03 0.  1.
    9900012    2    1    2    0    0 -0.21459673580E+02 -0.33983537381E+02  0.61454986719E+01  0.50528861335E+02  0.30000004514E+02 0.  0.
         12    1    1    2    0    0  0.21459673580E+02  0.33983537381E+02 -0.61454986719E+01  0.40659138665E+02  0.00000000000E+00 0. -1.
         11    1    3    3    0    0  0.12212532645E+01 -0.20263335568E+01  0.47079473832E+01  0.52689900402E+01  0.51100000000E-03 0. -1.
        -11    1    3    3    0    0 -0.74366251833E+01 -0.23791010091E+02 -0.71775448321E+01  0.25939018974E+02  0.51100000000E-03 0.  1.
        -12    1    3    3    0    0 -0.15244301661E+02 -0.81661937326E+01  0.86150961208E+01  0.19320852320E+02  0.00000000000E+00 0.  1.
</event>
<event>
 7    1  0.5748623E-013  0.5052886E+02  0.7816164E-02  0.1300439E+00
        -11   -1    0    0    0    0  0.00000000000E+00  0.00000000000E+00  0.45593999997E+02  0.45594000000E+02  0.51100000000E-03 0. -1.
         11   -1    0    0    0    0 -0.00000000000E+00 -0.00000000000E+00 -0.45593999997E+02  0.45594000000E+02  0.51100000000E-03 0.  1.
    9900012    2    1    2    0    0 -0.29056793402E+02  0.22999785519E+02 -0.16729569818E+02  0.50528857326E+02  0.29999992327E+02 0.  0.
         12    1    1    2    0    0  0.29056793402E+02 -0.22999785519E+02  0.16729569818E+02  0.40659142674E+02  0.00000000000E+00 0. -1.
         11    1    3    3    0    0  0.14797686063E+01  0.12637198184E+02 -0.63620427981E+00  0.12739436770E+02  0.51100000000E-03 0. -1.
        -11    1    3    3    0    0 -0.22089040588E+02  0.71894696844E+01 -0.16904288889E+02  0.28729238965E+02  0.51100000000E-03 0.  1.
         12    1    3    3    0    0 -0.84475214208E+01  0.31731176507E+01  0.81092335103E+00  0.90601815910E+01  0.00000000000E+00 0. -1.
</event>
<event>
 7    1  0.5748623E-013  0.5052889E+02  0.7816164E-02  0.1300439E+00
        -11   -1    0    0    0    0  0.00000000000E+00  0.00000000000E+00  0.45593999997E+02  0.45594000000E+02  0.51100000000E-03 0.  1.
         11   -1    0    0    0    0 -0.00000000000E+00 -0.00000000000E+00 -0.45593999997E+02  0.45594000000E+02  0.51100000000E-03 0. -1.
    9900012    2    1    2    0    0  0.14111432705E+02  0.84729361031E+01  0.37178484901E+02  0.50528893779E+02  0.30000103131E+02 0.  0.
         12    1    1    2    0    0 -0.14111432705E+02 -0.84729361031E+01 -0.37178484901E+02  0.40659106221E+02  0.00000000000E+00 0. -1.
         11    1    3    3    0    0  0.11645190286E+02  0.16833204001E+02  0.17980266546E+02  0.27244397572E+02  0.51100000000E-03 0. -1.
        -11    1    3    3    0    0 -0.32197068946E+01 -0.58279972433E+01  0.12348526766E+02  0.14029190208E+02  0.51100000000E-03 0.  1.
         12    1    3    3    0    0  0.56859493134E+01 -0.25322706550E+01  0.68496915888E+01  0.92553059985E+01  0.00000000000E+00 0. -1.
</event>
<event>
 7    1  0.5748623E-013  0.5052886E+02  0.7816164E-02  0.1300439E+00
        -11   -1    0    0    0    0  0.00000000000E+00  0.00000000000E+00  0.45593999997E+02  0.45594000000E+02  0.51100000000E-03 0.  1.
         11   -1    0    0    0    0 -0.00000000000E+00 -0.00000000000E+00 -0.45593999997E+02  0.45594000000E+02  0.51100000000E-03 0. -1.
    9900012    2    1    2    0    0  0.88080013370E+01 -0.82404522122E+01  0.38828856585E+02  0.50528855347E+02  0.29999986313E+02 0.  0.
         12    1    1    2    0    0 -0.88080013370E+01  0.82404522122E+01 -0.38828856585E+02  0.40659144653E+02  0.00000000000E+00 0. -1.
         11    1    3    3    0    0 -0.47638636719E+01 -0.95240759143E+01  0.71024906230E+01  0.12800304388E+02  0.51100000000E-03 0. -1.
        -11    1    3    3    0    0  0.10576121640E+02  0.68576947814E+01  0.27105292645E+02  0.29892795391E+02  0.51100000000E-03 0.  1.
        -12    1    3    3    0    0  0.29957433693E+01 -0.55740710793E+01  0.46210733169E+01  0.78357555687E+01  0.00000000000E+00 0.  1.
</event>
<event>
 7    1  0.5748623E-013  0.5052883E+02  0.7816164E-02  0.1300439E+00
        -11   -1    0    0    0    0  0.00000000000E+00  0.00000000000E+00  0.45593999997E+02  0.45594000000E+02  0.51100000000E-03 0. -1.
         11   -1    0    0    0    0 -0.00000000000E+00 -0.00000000000E+00 -0.45593999997E+02  0.45594000000E+02  0.51100000000E-03 0.  1.
    9900012    2    1    2    0    0  0.39348266467E+02  0.24830363553E+01 -0.99356343469E+01  0.50528826701E+02  0.29999899241E+02 0.  0.
         12    1    1    2    0    0 -0.39348266467E+02 -0.24830363553E+01  0.99356343469E+01  0.40659173299E+02  0.00000000000E+00 0. -1.
         11    1    3    3    0    0  0.12267346897E+01  0.52032334796E+01  0.32878679927E+01  0.62760332090E+01  0.51100000000E-03 0. -1.
        -11    1    3    3    0    0  0.26821250627E+02 -0.10024101405E+02 -0.10674400820E+02  0.30558221926E+02  0.51100000000E-03 0.  1.
        -12    1    3    3    0    0  0.11300281150E+02  0.73039042807E+01 -0.25491015193E+01  0.13694571566E+02  0.00000000000E+00 0.  1.
</event>
<event>
 7    1  0.5748623E-013  0.5052886E+02  0.7816164E-02  0.1300439E+00
        -11   -1    0    0    0    0  0.00000000000E+00  0.00000000000E+00  0.45593999997E+02  0.45594000000E+02  0.51100000000E-03 0. -1.
         11   -1    0    0    0    0 -0.00000000000E+00 -0.00000000000E+00 -0.45593999997E+02  0.45594000000E+02  0.51100000000E-03 0.  1.
    9900012    2    1    2    0    0 -0.28497210158E+02  0.26103609019E+02  0.12636298426E+02  0.50528862915E+02  0.30000009316E+02 0.  0.
         12    1    1    2    0    0  0.28497210158E+02 -0.26103609019E+02 -0.12636298426E+02  0.40659137085E+02  0.00000000000E+00 0. -1.
         11    1    3    3    0    0 -0.11882435915E+02  0.89571106064E+01 -0.32604544383E+01  0.15233275324E+02  0.51100000000E-03 0.  1.
        -11    1    3    3    0    0 -0.17731995195E+02  0.67340457312E+01  0.16012399652E+02  0.24822730881E+02  0.51100000000E-03 0. -1.
        -12    1    3    3    0    0  0.11172209517E+01  0.10412452681E+02 -0.11564678802E+00  0.10472856710E+02  0.00000000000E+00 0.  1.
</event>
<event>
 7    1  0.5748623E-013  0.5052885E+02  0.7816164E-02  0.1300439E+00
        -11   -1    0    0    0    0  0.00000000000E+00  0.00000000000E+00  0.45593999997E+02  0.45594000000E+02  0.51100000000E-03 0.  1.
         11   -1    0    0    0    0 -0.00000000000E+00 -0.00000000000E+00 -0.45593999997E+02  0.45594000000E+02  0.51100000000E-03 0. -1.
    9900012    2    1    2    0    0 -0.30289064906E+02  0.17409721705E+02  0.20800009750E+02  0.50528852587E+02  0.29999977924E+02 0.  0.
         12    1    1    2    0    0  0.30289064906E+02 -0.17409721705E+02 -0.20800009750E+02  0.40659147413E+02  0.00000000000E+00 0. -1.
         11    1    3    3    0    0 -0.27080372265E+02  0.12807783766E+02  0.39500327683E+01  0.30215701980E+02  0.51100000000E-03 0. -1.
        -11    1    3    3    0    0 -0.30946244354E+01  0.73039682037E+01  0.15199247662E+02  0.17144730434E+02  0.51100000000E-03 0.  1.
        -12    1    3    3    0    0 -0.11406820549E+00 -0.27020302642E+01  0.16507293198E+01  0.31684201728E+01  0.00000000000E+00 0.  1.
</event>
<event>
 7    1  0.5748623E-013  0.5052887E+02  0.7816164E-02  0.1300439E+00
        -11   -1    0    0    0    0  0.00000000000E+00  0.00000000000E+00  0.45593999997E+02  0.45594000000E+02  0.51100000000E-03 0.  1.
         11   -1    0    0    0    0 -0.00000000000E+00 -0.00000000000E+00 -0.45593999997E+02  0.45594000000E+02  0.51100000000E-03 0. -1.
    9900012    2    1    2    0    0  0.19647519094E+00 -0.12803642812E+02  0.38590064153E+02  0.50528869130E+02  0.30000028208E+02 0.  0.
         12    1    1    2    0    0 -0.19647519094E+00  0.12803642812E+02 -0.38590064153E+02  0.40659130870E+02  0.00000000000E+00 0. -1.
         11    1    3    3    0    0  0.33893988797E+00  0.27714725314E+01 -0.14506052272E+01  0.31464576950E+01  0.51100000000E-03 0. -1.
        -11    1    3    3    0    0 -0.64591088153E+01 -0.70092378151E+01  0.33637097464E+02  0.34961462034E+02  0.51100000000E-03 0.  1.
        -12    1    3    3    0    0  0.63166441183E+01 -0.85658775286E+01  0.64035719159E+01  0.12420949401E+02  0.00000000000E+00 0.  1.
</event>
<event>
 7    1  0.5748623E-013  0.5052886E+02  0.7816164E-02  0.1300439E+00
        -11   -1    0    0    0    0  0.00000000000E+00  0.00000000000E+00  0.45593999997E+02  0.45594000000E+02  0.51100000000E-03 0.  1.
         11   -1    0    0    0    0 -0.00000000000E+00 -0.00000000000E+00 -0.45593999997E+02  0.45594000000E+02  0.51100000000E-03 0. -1.
    9900012    2    1    2    0    0 -0.13809250893E+02  0.28130489613E+02  0.25906479612E+02  0.50528861519E+02  0.30000005074E+02 0.  0.
         12    1    1    2    0    0  0.13809250893E+02 -0.28130489613E+02 -0.25906479612E+02  0.40659138481E+02  0.00000000000E+00 0. -1.
         11    1    3    3    0    0 -0.19578795125E+02  0.20968622137E+02  0.16088815567E+02  0.32891675535E+02  0.51100000000E-03 0.  1.
        -11    1    3    3    0    0  0.38462033597E+01 -0.15111720316E+01  0.73251672520E+01  0.84104100212E+01  0.51100000000E-03 0. -1.
        -12    1    3    3    0    0  0.19233408725E+01  0.86730395079E+01  0.24924967930E+01  0.92267759635E+01  0.00000000000E+00 0.  1.
</event>
<event>
 7    1  0.5748623E-013  0.5052886E+02  0.7816164E-02  0.1300439E+00
        -11   -1    0    0    0    0  0.00000000000E+00  0.00000000000E+00  0.45593999997E+02  0.45594000000E+02  0.51100000000E-03 0.  1.
         11   -1    0    0    0    0 -0.00000000000E+00 -0.00000000000E+00 -0.45593999997E+02  0.45594000000E+02  0.51100000000E-03 0. -1.
    9900012    2    1    2    0    0 -0.34001670462E+00 -0.25654567914E+02  0.31541926294E+02  0.50528861046E+02  0.30000003635E+02 0.  0.
         12    1    1    2    0    0  0.34001670462E+00  0.25654567914E+02 -0.31541926294E+02  0.40659138954E+02  0.00000000000E+00 0. -1.
         11    1    3    3    0    0 -0.51546538450E+01 -0.16856552054E+02  0.45064297592E+01  0.18194002112E+02  0.51100000000E-03 0. -1.
        -11    1    3    3    0    0  0.99042951596E+01 -0.40426157271E+01  0.17797948512E+02  0.20765470763E+02  0.51100000000E-03 0.  1.
        -12    1    3    3    0    0 -0.50896580193E+01 -0.47554001320E+01  0.92375480228E+01  0.11569388171E+02  0.00000000000E+00 0.  1.
</event>
<event>
 7    1  0.5748623E-013  0.5052886E+02  0.7816164E-02  0.1300439E+00
        -11   -1    0    0    0    0  0.00000000000E+00  0.00000000000E+00  0.45593999997E+02  0.45594000000E+02  0.51100000000E-03 0.  1.
         11   -1    0    0    0    0 -0.00000000000E+00 -0.00000000000E+00 -0.45593999997E+02  0.45594000000E+02  0.51100000000E-03 0. -1.
    9900012    2    1    2    0    0  0.27205698744E+02 -0.28670976088E+02  0.95389179324E+01  0.50528857495E+02  0.29999992841E+02 0.  0.
         12    1    1    2    0    0 -0.27205698744E+02  0.28670976088E+02 -0.95389179324E+01  0.40659142505E+02  0.00000000000E+00 0. -1.
         11    1    3    3    0    0 -0.20146958108E+01  0.25934831003E+00 -0.22181959556E+01  0.30077656682E+01  0.51100000000E-03 0. -1.
        -11    1    3    3    0    0  0.22789401367E+02 -0.19704463452E+02 -0.14659433908E+01  0.30162421734E+02  0.51100000000E-03 0.  1.
        -12    1    3    3    0    0  0.64309931872E+01 -0.92258609458E+01  0.13223057279E+02  0.17358670092E+02  0.00000000000E+00 0.  1.
</event>
<event>
 7    1  0.5748623E-013  0.5052886E+02  0.7816164E-02  0.1300439E+00
        -11   -1    0    0    0    0  0.00000000000E+00  0.00000000000E+00  0.45593999997E+02  0.45594000000E+02  0.51100000000E-03 0.  1.
         11   -1    0    0    0    0 -0.00000000000E+00 -0.00000000000E+00 -0.45593999997E+02  0.45594000000E+02  0.51100000000E-03 0. -1.
    9900012    2    1    2    0    0 -0.28578238909E+01 -0.22848919811E+02  0.33510081848E+02  0.50528857370E+02  0.29999992463E+02 0.  0.
         12    1    1    2    0    0  0.28578238909E+01  0.22848919811E+02 -0.33510081848E+02  0.40659142630E+02  0.00000000000E+00 0. -1.
         11    1    3    3    0    0  0.62101859022E+01 -0.59849778855E+01  0.85817537696E+01  0.12166875821E+02  0.51100000000E-03 0. -1.
        -11    1    3    3    0    0 -0.71343491786E+01 -0.19014215866E+02  0.90696663378E+01  0.22241811773E+02  0.51100000000E-03 0.  1.
        -12    1    3    3    0    0 -0.19336606145E+01  0.21502739411E+01  0.15858661741E+02  0.16120169776E+02  0.00000000000E+00 0.  1.
</event>
<event>
 7    1  0.5748623E-013  0.5052874E+02  0.7816164E-02  0.1300439E+00
        -11   -1    0    0    0    0  0.00000000000E+00  0.00000000000E+00  0.45593999997E+02  0.45594000000E+02  0.51100000000E-03 0.  1.
         11   -1    0    0    0    0 -0.00000000000E+00 -0.00000000000E+00 -0.45593999997E+02  0.45594000000E+02  0.51100000000E-03 0. -1.
    9900012    2    1    2    0    0  0.11629961897E+02 -0.35021107343E+00  0.38958910749E+02  0.50528740436E+02  0.29999637028E+02 0.  0.
         12    1    1    2    0    0 -0.11629961897E+02  0.35021107343E+00 -0.38958910749E+02  0.40659259564E+02  0.00000000000E+00 0. -1.
         11    1    3    3    0    0 -0.48501636490E+01  0.57816755972E+01  0.43816976800E+01  0.87264617660E+01  0.51100000000E-03 0. -1.
        -11    1    3    3    0    0  0.15255153716E+02  0.16399159287E+01  0.25777951019E+02  0.29998529933E+02  0.51100000000E-03 0.  1.
         12    1    3    3    0    0  0.12249718299E+01 -0.77718025993E+01  0.87992620504E+01  0.11803748737E+02  0.00000000000E+00 0. -1.
</event>
<event>
 7    1  0.5748623E-013  0.5052889E+02  0.7816164E-02  0.1300439E+00
        -11   -1    0    0    0    0  0.00000000000E+00  0.00000000000E+00  0.45593999997E+02  0.45594000000E+02  0.51100000000E-03 0.  1.
         11   -1    0    0    0    0 -0.00000000000E+00 -0.00000000000E+00 -0.45593999997E+02  0.45594000000E+02  0.51100000000E-03 0. -1.
    9900012    2    1    2    0    0  0.22737395657E+02 -0.24189961467E+02  0.23473817880E+02  0.50528886349E+02  0.30000080545E+02 0.  0.
         12    1    1    2    0    0 -0.22737395657E+02  0.24189961467E+02 -0.23473817880E+02  0.40659113651E+02  0.00000000000E+00 0. -1.
         11    1    3    3    0    0  0.13867042416E+02 -0.29233799855E+00  0.14318337271E+02  0.19934771364E+02  0.51100000000E-03 0. -1.
        -11    1    3    3    0    0  0.74480281918E+01 -0.17367977141E+02  0.12950204834E+02  0.22909115204E+02  0.51100000000E-03 0.  1.
         12    1    3    3    0    0  0.14223250498E+01 -0.65296463267E+01 -0.37947242241E+01  0.76849997811E+01  0.00000000000E+00 0. -1.
</event>
<event>
 7    1  0.5748623E-013  0.5052887E+02  0.7816164E-02  0.1300439E+00
        -11   -1    0    0    0    0  0.00000000000E+00  0.00000000000E+00  0.45593999997E+02  0.45594000000E+02  0.51100000000E-03 0.  1.
         11   -1    0    0    0    0 -0.00000000000E+00 -0.00000000000E+00 -0.45593999997E+02  0.45594000000E+02  0.51100000000E-03 0. -1.
    9900012    2    1    2    0    0  0.25756637109E+02  0.17759197091E+02  0.25968669251E+02  0.50528865489E+02  0.30000017142E+02 0.  0.
         12    1    1    2    0    0 -0.25756637109E+02 -0.17759197091E+02 -0.25968669251E+02  0.40659134511E+02  0.00000000000E+00 0. -1.
         11    1    3    3    0    0  0.32606110525E+01 -0.66134092835E+01  0.32930726297E+01  0.80754624878E+01  0.51100000000E-03 0. -1.
        -11    1    3    3    0    0  0.22866876720E+02  0.18604044507E+02  0.15716769992E+02  0.33406906205E+02  0.51100000000E-03 0.  1.
         12    1    3    3    0    0 -0.37085066363E+00  0.57685618679E+01  0.69588266292E+01  0.90464967968E+01  0.00000000000E+00 0. -1.
</event>
<event>
 7    1  0.5748623E-013  0.5052886E+02  0.7816164E-02  0.1300439E+00
        -11   -1    0    0    0    0  0.00000000000E+00  0.00000000000E+00  0.45593999997E+02  0.45594000000E+02  0.51100000000E-03 0. -1.
         11   -1    0    0    0    0 -0.00000000000E+00 -0.00000000000E+00 -0.45593999997E+02  0.45594000000E+02  0.51100000000E-03 0.  1.
    9900012    2    1    2    0    0 -0.17568089463E+01 -0.22021098157E+02 -0.34134300209E+02  0.50528860898E+02  0.30000003187E+02 0.  0.
         12    1    1    2    0    0  0.17568089463E+01  0.22021098157E+02  0.34134300209E+02  0.40659139102E+02  0.00000000000E+00 0. -1.
         11    1    3    3    0    0 -0.91225067014E+01 -0.45759534896E+01 -0.28680966124E+02  0.30442688727E+02  0.51100000000E-03 0. -1.
        -11    1    3    3    0    0  0.66828687028E+01 -0.17282470674E+02 -0.56231270349E+01  0.19363989377E+02  0.51100000000E-03 0.  1.
         12    1    3    3    0    0  0.68282905228E+00 -0.16267399346E+00  0.16979294932E+00  0.72218279433E+00  0.00000000000E+00 0. -1.
</event>
<event>
 7    1  0.5748623E-013  0.5052882E+02  0.7816164E-02  0.1300439E+00
        -11   -1    0    0    0    0  0.00000000000E+00  0.00000000000E+00  0.45593999997E+02  0.45594000000E+02  0.51100000000E-03 0.  1.
         11   -1    0    0    0    0 -0.00000000000E+00 -0.00000000000E+00 -0.45593999997E+02  0.45594000000E+02  0.51100000000E-03 0. -1.
    9900012    2    1    2    0    0  0.13330131338E+02 -0.53283353561E+01  0.38040574600E+02  0.50528820532E+02  0.29999880488E+02 0.  0.
         12    1    1    2    0    0 -0.13330131338E+02  0.53283353561E+01 -0.38040574600E+02  0.40659179468E+02  0.00000000000E+00 0. -1.
         11    1    3    3    0    0  0.45740543079E+01 -0.35089627459E+01  0.35230789107E+01  0.67562473042E+01  0.51100000000E-03 0. -1.
        -11    1    3    3    0    0 -0.81644017061E+01  0.61572919693E+00  0.48051155795E+01  0.94934563599E+01  0.51100000000E-03 0.  1.
        -12    1    3    3    0    0  0.16920478736E+02 -0.24351018072E+01  0.29712380109E+02  0.34279116868E+02  0.00000000000E+00 0.  1.
</event>
<event>
 7    1  0.5748623E-013  0.5052887E+02  0.7816164E-02  0.1300439E+00
        -11   -1    0    0    0    0  0.00000000000E+00  0.00000000000E+00  0.45593999997E+02  0.45594000000E+02  0.51100000000E-03 0. -1.
         11   -1    0    0    0    0 -0.00000000000E+00 -0.00000000000E+00 -0.45593999997E+02  0.45594000000E+02  0.51100000000E-03 0.  1.
    9900012    2    1    2    0    0  0.14814646559E+02 -0.30229008227E+02 -0.22801275179E+02  0.50528870141E+02  0.30000031282E+02 0.  0.
         12    1    1    2    0    0 -0.14814646559E+02  0.30229008227E+02  0.22801275179E+02  0.40659129859E+02  0.00000000000E+00 0. -1.
         11    1    3    3    0    0  0.24272372197E-01  0.57979427696E+01 -0.34500756347E+01  0.67468327127E+01  0.51100000000E-03 0. -1.
        -11    1    3    3    0    0  0.46370017670E+01 -0.68063229568E+01 -0.53925287973E+01  0.98441446897E+01  0.51100000000E-03 0.  1.
         12    1    3    3    0    0  0.10153372420E+02 -0.29220628040E+02 -0.13958670747E+02  0.33937892739E+02  0.00000000000E+00 0. -1.
</event>
<event>
 7    1  0.5748623E-013  0.5052886E+02  0.7816164E-02  0.1300439E+00
        -11   -1    0    0    0    0  0.00000000000E+00  0.00000000000E+00  0.45593999997E+02  0.45594000000E+02  0.51100000000E-03 0.  1.
         11   -1    0    0    0    0 -0.00000000000E+00 -0.00000000000E+00 -0.45593999997E+02  0.45594000000E+02  0.51100000000E-03 0. -1.
    9900012    2    1    2    0    0  0.33147438976E+02  0.70669016853E+01  0.22460448243E+02  0.50528861477E+02  0.30000004946E+02 0.  0.
         12    1    1    2    0    0 -0.33147438976E+02 -0.70669016853E+01 -0.22460448243E+02  0.40659138523E+02  0.00000000000E+00 0. -1.
         11    1    3    3    0    0 -0.23866140870E+01  0.19077759191E+01  0.33065833580E+01  0.45021138949E+01  0.51100000000E-03 0. -1.
        -11    1    3    3    0    0  0.32536323650E+02 -0.60665009438E+00  0.21627490277E+02  0.39073376063E+02  0.51100000000E-03 0.  1.
        -12    1    3    3    0    0  0.29977294137E+01  0.57657758606E+01 -0.24736253919E+01  0.69533715197E+01  0.00000000000E+00 0.  1.
</event>
<event>
 7    1  0.5748623E-013  0.5052886E+02  0.7816164E-02  0.1300439E+00
        -11   -1    0    0    0    0  0.00000000000E+00  0.00000000000E+00  0.45593999997E+02  0.45594000000E+02  0.51100000000E-03 0. -1.
         11   -1    0    0    0    0 -0.00000000000E+00 -0.00000000000E+00 -0.45593999997E+02  0.45594000000E+02  0.51100000000E-03 0.  1.
    9900012    2    1    2    0    0  0.36462127891E+02 -0.13688922248E+02 -0.11674412676E+02  0.50528864815E+02  0.30000015092E+02 0.  0.
         12    1    1    2    0    0 -0.36462127891E+02  0.13688922248E+02  0.11674412676E+02  0.40659135185E+02  0.00000000000E+00 0. -1.
         11    1    3    3    0    0 -0.34208484104E+00 -0.91797746194E+01 -0.29269758550E+01  0.96411862350E+01  0.51100000000E-03 0. -1.
        -11    1    3    3    0    0  0.22256904902E+02  0.35945471891E+01 -0.88904767673E+01  0.24234916189E+02  0.51100000000E-03 0.  1.
        -12    1    3    3    0    0  0.14547307830E+02 -0.81036948182E+01  0.14303994598E+00  0.16652762391E+02  0.00000000000E+00 0.  1.
</event>
<event>
 7    1  0.5748623E-013  0.5052886E+02  0.7816164E-02  0.1300439E+00
        -11   -1    0    0    0    0  0.00000000000E+00  0.00000000000E+00  0.45593999997E+02  0.45594000000E+02  0.51100000000E-03 0.  1.
         11   -1    0    0    0    0 -0.00000000000E+00 -0.00000000000E+00 -0.45593999997E+02  0.45594000000E+02  0.51100000000E-03 0. -1.
    9900012    2    1    2    0    0 -0.30327290105E+02 -0.10098979571E+02  0.25128308276E+02  0.50528858466E+02  0.29999995793E+02 0.  0.
         12    1    1    2    0    0  0.30327290105E+02  0.10098979571E+02 -0.25128308276E+02  0.40659141534E+02  0.00000000000E+00 0. -1.
         11    1    3    3    0    0 -0.27884120260E+02 -0.78922683033E+01  0.16810869388E+02  0.33502498287E+02  0.51100000000E-03 0. -1.
        -11    1    3    3    0    0  0.55592347139E+01  0.10902887702E+01  0.11314045147E+01  0.57770145096E+01  0.51100000000E-03 0.  1.
        -12    1    3    3    0    0 -0.80024045584E+01 -0.32970000384E+01  0.71860343734E+01  0.11249345669E+02  0.00000000000E+00 0.  1.
</event>
<event>
 7    1  0.5748623E-013  0.5052886E+02  0.7816164E-02  0.1300439E+00
        -11   -1    0    0    0    0  0.00000000000E+00  0.00000000000E+00  0.45593999997E+02  0.45594000000E+02  0.51100000000E-03 0. -1.
         11   -1    0    0    0    0 -0.00000000000E+00 -0.00000000000E+00 -0.45593999997E+02  0.45594000000E+02  0.51100000000E-03 0.  1.
    9900012    2    1    2    0    0 -0.40229244115E+02 -0.57195908885E+01 -0.14352038410E+01  0.50528860658E+02  0.30000002455E+02 0.  0.
         12    1    1    2    0    0  0.40229244115E+02  0.57195908885E+01  0.14352038410E+01  0.40659139342E+02  0.00000000000E+00 0. -1.
         11    1    3    3    0    0 -0.16003702269E+02  0.17216180991E+01 -0.13766067402E+02  0.21179874106E+02  0.51100000000E-03 0.  1.
        -11    1    3    3    0    0 -0.53928877298E+01 -0.13491067609E+01  0.68279314547E+01  0.88047700327E+01  0.51100000000E-03 0. -1.
        -12    1    3    3    0    0 -0.18832654117E+02 -0.60921022267E+01  0.55029321058E+01  0.20544216519E+02  0.00000000000E+00 0.  1.
</event>
<event>
 7    1  0.5748623E-013  0.5052885E+02  0.7816164E-02  0.1300439E+00
        -11   -1    0    0    0    0  0.00000000000E+00  0.00000000000E+00  0.45593999997E+02  0.45594000000E+02  0.51100000000E-03 0.  1.
         11   -1    0    0    0    0 -0.00000000000E+00 -0.00000000000E+00 -0.45593999997E+02  0.45594000000E+02  0.51100000000E-03 0. -1.
    9900012    2    1    2    0    0 -0.17659997841E+02  0.35641773067E+02  0.84234767873E+01  0.50528850079E+02  0.29999970302E+02 0.  0.
         12    1    1    2    0    0  0.17659997841E+02 -0.35641773067E+02 -0.84234767873E+01  0.40659149921E+02  0.00000000000E+00 0. -1.
         11    1    3    3    0    0 -0.13557907837E+02  0.24075362506E+02 -0.54600349835E+01  0.28164728420E+02  0.51100000000E-03 0. -1.
        -11    1    3    3    0    0 -0.48559324326E+01  0.68637038907E+01  0.15245710117E+02  0.17410404594E+02  0.51100000000E-03 0.  1.
        -12    1    3    3    0    0  0.75384242818E+00  0.47027066695E+01 -0.13621983462E+01  0.49537170651E+01  0.00000000000E+00 0.  1.
</event>
<event>
 7    1  0.5748623E-013  0.5052885E+02  0.7816164E-02  0.1300439E+00
        -11   -1    0    0    0    0  0.00000000000E+00  0.00000000000E+00  0.45593999997E+02  0.45594000000E+02  0.51100000000E-03 0. -1.
         11   -1    0    0    0    0 -0.00000000000E+00 -0.00000000000E+00 -0.45593999997E+02  0.45594000000E+02  0.51100000000E-03 0.  1.
    9900012    2    1    2    0    0 -0.26996852711E+01 -0.70469385057E+01 -0.39952704413E+02  0.50528853024E+02  0.29999979253E+02 0.  0.
         12    1    1    2    0    0  0.26996852711E+01  0.70469385057E+01  0.39952704413E+02  0.40659146976E+02  0.00000000000E+00 0. -1.
         11    1    3    3    0    0  0.88947927646E+01 -0.40020547446E+01 -0.38591298558E+01  0.10489359561E+02  0.51100000000E-03 0. -1.
        -11    1    3    3    0    0 -0.95976013366E+01  0.28752668638E+01 -0.28477682122E+02  0.30188731180E+02  0.51100000000E-03 0.  1.
         12    1    3    3    0    0 -0.19968766991E+01 -0.59201506250E+01 -0.76158924352E+01  0.98507622831E+01  0.00000000000E+00 0. -1.
</event>
<event>
 7    1  0.5748623E-013  0.5052886E+02  0.7816164E-02  0.1300439E+00
        -11   -1    0    0    0    0  0.00000000000E+00  0.00000000000E+00  0.45593999997E+02  0.45594000000E+02  0.51100000000E-03 0. -1.
         11   -1    0    0    0    0 -0.00000000000E+00 -0.00000000000E+00 -0.45593999997E+02  0.45594000000E+02  0.51100000000E-03 0.  1.
    9900012    2    1    2    0    0  0.37381760624E+02 -0.10577133810E+02 -0.11995561883E+02  0.50528864595E+02  0.30000014422E+02 0.  0.
         12    1    1    2    0    0 -0.37381760624E+02  0.10577133810E+02  0.11995561883E+02  0.40659135405E+02  0.00000000000E+00 0. -1.
         11    1    3    3    0    0  0.13693446875E+02  0.24334282260E+01 -0.46057611630E+01  0.14650771188E+02  0.51100000000E-03 0. -1.
        -11    1    3    3    0    0  0.14166499659E+01 -0.21316202406E+01  0.68358600547E+01  0.72992934538E+01  0.51100000000E-03 0.  1.
        -12    1    3    3    0    0  0.22271663783E+02 -0.10878941796E+02 -0.14225660774E+02  0.28578799953E+02  0.00000000000E+00 0.  1.
</event>
<event>
 7    1  0.5748623E-013  0.5052891E+02  0.7816164E-02  0.1300439E+00
        -11   -1    0    0    0    0  0.00000000000E+00  0.00000000000E+00  0.45593999997E+02  0.45594000000E+02  0.51100000000E-03 0. -1.
         11   -1    0    0    0    0 -0.00000000000E+00 -0.00000000000E+00 -0.45593999997E+02  0.45594000000E+02  0.51100000000E-03 0.  1.
    9900012    2    1    2    0    0  0.33500345781E+01  0.28596405896E+02 -0.28708613119E+02  0.50528909638E+02  0.30000151335E+02 0.  0.
         12    1    1    2    0    0 -0.33500345781E+01 -0.28596405896E+02  0.28708613119E+02  0.40659090362E+02  0.00000000000E+00 0. -1.
         11    1    3    3    0    0  0.81153992456E+01  0.29731232722E+02 -0.12373234837E+02  0.33209981100E+02  0.51100000000E-03 0. -1.
        -11    1    3    3    0    0 -0.26313390005E+01 -0.20955154119E+01 -0.10720602649E+02  0.11235944606E+02  0.51100000000E-03 0.  1.
         12    1    3    3    0    0 -0.21340256670E+01  0.96068858662E+00 -0.56147756326E+01  0.60829839316E+01  0.00000000000E+00 0. -1.
</event>
<event>
 7    1  0.5748623E-013  0.5052883E+02  0.7816164E-02  0.1300439E+00
        -11   -1    0    0    0    0  0.00000000000E+00  0.00000000000E+00  0.45593999997E+02  0.45594000000E+02  0.51100000000E-03 0.  1.
         11   -1    0    0    0    0 -0.00000000000E+00 -0.00000000000E+00 -0.45593999997E+02  0.45594000000E+02  0.51100000000E-03 0. -1.
    9900012    2    1    2    0    0  0.23576942419E+02 -0.15010900743E+01  0.33091428150E+02  0.50528830035E+02  0.29999909373E+02 0.  0.
         12    1    1    2    0    0 -0.23576942419E+02  0.15010900743E+01 -0.33091428150E+02  0.40659169965E+02  0.00000000000E+00 0. -1.
         11    1    3    3    0    0  0.89888088740E+01 -0.27713110880E+01  0.38183359854E+01  0.10151775218E+02  0.51100000000E-03 0. -1.
        -11    1    3    3    0    0 -0.34103645217E+01 -0.71328666948E+01  0.93325826979E+01  0.12231331634E+02  0.51100000000E-03 0.  1.
        -12    1    3    3    0    0  0.17998498067E+02  0.84030877085E+01  0.19940509467E+02  0.28145723183E+02  0.00000000000E+00 0.  1.
</event>
<event>
 7    1  0.5748623E-013  0.5052886E+02  0.7816164E-02  0.1300439E+00
        -11   -1    0    0    0    0  0.00000000000E+00  0.00000000000E+00  0.45593999997E+02  0.45594000000E+02  0.51100000000E-03 0.  1.
         11   -1    0    0    0    0 -0.00000000000E+00 -0.00000000000E+00 -0.45593999997E+02  0.45594000000E+02  0.51100000000E-03 0. -1.
    9900012    2    1    2    0    0  0.23779543120E+02  0.75243620877E+01  0.32110480870E+02  0.50528859853E+02  0.30000000009E+02 0.  0.
         12    1    1    2    0    0 -0.23779543120E+02 -0.75243620877E+01 -0.32110480870E+02  0.40659140147E+02  0.00000000000E+00 0. -1.
         11    1    3    3    0    0  0.95428273398E+01 -0.84765637025E+01  0.14547430563E+02  0.19353176021E+02  0.51100000000E-03 0. -1.
        -11    1    3    3    0    0  0.16382613529E+02  0.96197452862E+01  0.13589588813E+02  0.23358220176E+02  0.51100000000E-03 0.  1.
         12    1    3    3    0    0 -0.21458977494E+01  0.63811805040E+01  0.39734614935E+01  0.78174636562E+01  0.00000000000E+00 0. -1.
</event>
<event>
 7    1  0.5748623E-013  0.5052886E+02  0.7816164E-02  0.1300439E+00
        -11   -1    0    0    0    0  0.00000000000E+00  0.00000000000E+00  0.45593999997E+02  0.45594000000E+02  0.51100000000E-03 0.  1.
         11   -1    0    0    0    0 -0.00000000000E+00 -0.00000000000E+00 -0.45593999997E+02  0.45594000000E+02  0.51100000000E-03 0. -1.
    9900012    2    1    2    0    0 -0.36133659806E+02 -0.10824715214E+02 -0.15177283821E+02  0.50528858658E+02  0.29999996378E+02 0.  0.
         12    1    1    2    0    0  0.36133659806E+02  0.10824715214E+02  0.15177283821E+02  0.40659141342E+02  0.00000000000E+00 0. -1.
         11    1    3    3    0    0 -0.35213302041E+01 -0.11875599670E+01 -0.92982780382E+01  0.10013393022E+02  0.51100000000E-03 0. -1.
        -11    1    3    3    0    0 -0.14755069755E+02 -0.10954854566E+02  0.56415762779E+01  0.19223639229E+02  0.51100000000E-03 0.  1.
        -12    1    3    3    0    0 -0.17857259846E+02  0.13176993189E+01 -0.11520582061E+02  0.21291826407E+02  0.00000000000E+00 0.  1.
</event>
<event>
 7    1  0.5748623E-013  0.5052886E+02  0.7816164E-02  0.1300439E+00
        -11   -1    0    0    0    0  0.00000000000E+00  0.00000000000E+00  0.45593999997E+02  0.45594000000E+02  0.51100000000E-03 0.  1.
         11   -1    0    0    0    0 -0.00000000000E+00 -0.00000000000E+00 -0.45593999997E+02  0.45594000000E+02  0.51100000000E-03 0. -1.
    9900012    2    1    2    0    0 -0.10512122442E+02 -0.97255679897E+01  0.38053570312E+02  0.50528860751E+02  0.30000002739E+02 0.  0.
         12    1    1    2    0    0  0.10512122442E+02  0.97255679897E+01 -0.38053570312E+02  0.40659139249E+02  0.00000000000E+00 0. -1.
         11    1    3    3    0    0 -0.12786282034E+02  0.65059620690E+01  0.22304780210E+02  0.26520176681E+02  0.51100000000E-03 0. -1.
        -11    1    3    3    0    0  0.39715124647E-01 -0.14945425455E+02  0.10835641261E+02  0.18460185295E+02  0.51100000000E-03 0.  1.
         12    1    3    3    0    0  0.22344444670E+01 -0.12861046034E+01  0.49131488408E+01  0.55484987753E+01  0.00000000000E+00 0. -1.
</event>
<event>
 7    1  0.5748623E-013  0.5052884E+02  0.7816164E-02  0.1300439E+00
        -11   -1    0    0    0    0  0.00000000000E+00  0.00000000000E+00  0.45593999997E+02  0.45594000000E+02  0.51100000000E-03 0. -1.
         11   -1    0    0    0    0 -0.00000000000E+00 -0.00000000000E+00 -0.45593999997E+02  0.45594000000E+02  0.51100000000E-03 0.  1.
    9900012    2    1    2    0    0 -0.78575224716E+01  0.39727666984E+02  0.36248136512E+01  0.50528837965E+02  0.29999933480E+02 0.  0.
         12    1    1    2    0    0  0.78575224716E+01 -0.39727666984E+02 -0.36248136512E+01  0.40659162035E+02  0.00000000000E+00 0. -1.
         11    1    3    3    0    0  0.34143054401E+00  0.62019372237E+01  0.61247615858E+01  0.87231476479E+01  0.51100000000E-03 0.  1.
        -11    1    3    3    0    0 -0.48619541180E+01  0.12936499190E+01 -0.74864285429E+01  0.90199080122E+01  0.51100000000E-03 0. -1.
        -12    1    3    3    0    0 -0.33369988977E+01  0.32232079841E+02  0.49864806084E+01  0.32785782305E+02  0.00000000000E+00 0.  1.
</event>
<event>
 7    1  0.5748623E-013  0.5052886E+02  0.7816164E-02  0.1300439E+00
        -11   -1    0    0    0    0  0.00000000000E+00  0.00000000000E+00  0.45593999997E+02  0.45594000000E+02  0.51100000000E-03 0.  1.
         11   -1    0    0    0    0 -0.00000000000E+00 -0.00000000000E+00 -0.45593999997E+02  0.45594000000E+02  0.51100000000E-03 0. -1.
    9900012    2    1    2    0    0  0.22603276919E+02  0.18067559394E+02  0.28562576621E+02  0.50528860644E+02  0.30000002414E+02 0.  0.
         12    1    1    2    0    0 -0.22603276919E+02 -0.18067559394E+02 -0.28562576621E+02  0.40659139356E+02  0.00000000000E+00 0. -1.
         11    1    3    3    0    0  0.86526885772E+01  0.16829865453E+02  0.13044375827E+01  0.18968788798E+02  0.51100000000E-03 0. -1.
        -11    1    3    3    0    0  0.72202344654E+01  0.42169770368E+01  0.16873069543E+02  0.18831228243E+02  0.51100000000E-03 0.  1.
         12    1    3    3    0    0  0.67303538762E+01 -0.29792830964E+01  0.10385069495E+02  0.12728843603E+02  0.00000000000E+00 0. -1.
</event>
<event>
 7    1  0.5748623E-013  0.5052886E+02  0.7816164E-02  0.1300439E+00
        -11   -1    0    0    0    0  0.00000000000E+00  0.00000000000E+00  0.45593999997E+02  0.45594000000E+02  0.51100000000E-03 0.  1.
         11   -1    0    0    0    0 -0.00000000000E+00 -0.00000000000E+00 -0.45593999997E+02  0.45594000000E+02  0.51100000000E-03 0. -1.
    9900012    2    1    2    0    0  0.16077373348E+02 -0.12987913489E+02  0.35014256531E+02  0.50528855998E+02  0.29999988292E+02 0.  0.
         12    1    1    2    0    0 -0.16077373348E+02  0.12987913489E+02 -0.35014256531E+02  0.40659144002E+02  0.00000000000E+00 0. -1.
         11    1    3    3    0    0  0.79508070201E+01  0.44284973691E+01 -0.14811624426E+01  0.92206704562E+01  0.51100000000E-03 0. -1.
        -11    1    3    3    0    0  0.41175633347E+01 -0.80490456809E+01  0.14875085961E+02  0.17407172281E+02  0.51100000000E-03 0.  1.
         12    1    3    3    0    0  0.40090029934E+01 -0.93673651769E+01  0.21620333012E+02  0.23901013261E+02  0.00000000000E+00 0. -1.
</event>
<event>
 7    1  0.5748623E-013  0.5052886E+02  0.7816164E-02  0.1300439E+00
        -11   -1    0    0    0    0  0.00000000000E+00  0.00000000000E+00  0.45593999997E+02  0.45594000000E+02  0.51100000000E-03 0. -1.
         11   -1    0    0    0    0 -0.00000000000E+00 -0.00000000000E+00 -0.45593999997E+02  0.45594000000E+02  0.51100000000E-03 0.  1.
    9900012    2    1    2    0    0 -0.38454497594E+02  0.21003897799E+01 -0.13038618999E+02  0.50528860709E+02  0.30000002612E+02 0.  0.
         12    1    1    2    0    0  0.38454497594E+02 -0.21003897799E+01  0.13038618999E+02  0.40659139291E+02  0.00000000000E+00 0. -1.
         11    1    3    3    0    0 -0.51925181739E+01  0.79314038266E+01  0.49343117920E+01  0.10687228114E+02  0.51100000000E-03 0. -1.
        -11    1    3    3    0    0 -0.16139515537E+02 -0.81265409308E+01 -0.70156855673E+01  0.19384129424E+02  0.51100000000E-03 0.  1.
         12    1    3    3    0    0 -0.17122463883E+02  0.22955268842E+01 -0.10957245224E+02  0.20457503171E+02  0.00000000000E+00 0. -1.
</event>
<event>
 7    1  0.5748623E-013  0.5052886E+02  0.7816164E-02  0.1300439E+00
        -11   -1    0    0    0    0  0.00000000000E+00  0.00000000000E+00  0.45593999997E+02  0.45594000000E+02  0.51100000000E-03 0.  1.
         11   -1    0    0    0    0 -0.00000000000E+00 -0.00000000000E+00 -0.45593999997E+02  0.45594000000E+02  0.51100000000E-03 0. -1.
    9900012    2    1    2    0    0 -0.23189454148E+02  0.66437878829E+00  0.33391218784E+02  0.50528859887E+02  0.30000000114E+02 0.  0.
         12    1    1    2    0    0  0.23189454148E+02 -0.66437878829E+00 -0.33391218784E+02  0.40659140113E+02  0.00000000000E+00 0. -1.
         11    1    3    3    0    0 -0.13313877636E+02  0.39621398921E+01 -0.10581247011E+01  0.13931170747E+02  0.51100000000E-03 0. -1.
        -11    1    3    3    0    0 -0.83682696947E+01 -0.14055520509E+01  0.17196977327E+02  0.19176536280E+02  0.51100000000E-03 0.  1.
         12    1    3    3    0    0 -0.15073068165E+01 -0.18922090530E+01  0.17252366158E+02  0.17421152860E+02  0.00000000000E+00 0. -1.
</event>
<event>
 7    1  0.5748623E-013  0.5052887E+02  0.7816164E-02  0.1300439E+00
        -11   -1    0    0    0    0  0.00000000000E+00  0.00000000000E+00  0.45593999997E+02  0.45594000000E+02  0.51100000000E-03 0. -1.
         11   -1    0    0    0    0 -0.00000000000E+00 -0.00000000000E+00 -0.45593999997E+02  0.45594000000E+02  0.51100000000E-03 0.  1.
    9900012    2    1    2    0    0 -0.13063940258E+01 -0.13561086517E+02 -0.38308680900E+02  0.50528871072E+02  0.30000034110E+02 0.  0.
         12    1    1    2    0    0  0.13063940258E+01  0.13561086517E+02  0.38308680900E+02  0.40659128928E+02  0.00000000000E+00 0. -1.
         11    1    3    3    0    0 -0.21302631109E+01  0.24576404441E+01  0.91910862408E+00  0.33797601095E+01  0.51100000000E-03 0. -1.
        -11    1    3    3    0    0  0.36260214771E+01 -0.11795137163E+02 -0.40144508413E+02  0.41998271970E+02  0.51100000000E-03 0.  1.
        -12    1    3    3    0    0 -0.28021523920E+01 -0.42235897979E+01  0.91671888853E+00  0.51508389928E+01  0.00000000000E+00 0.  1.
</event>
<event>
 7    1  0.5748623E-013  0.5052886E+02  0.7816164E-02  0.1300439E+00
        -11   -1    0    0    0    0  0.00000000000E+00  0.00000000000E+00  0.45593999997E+02  0.45594000000E+02  0.51100000000E-03 0.  1.
         11   -1    0    0    0    0 -0.00000000000E+00 -0.00000000000E+00 -0.45593999997E+02  0.45594000000E+02  0.51100000000E-03 0. -1.
    9900012    2    1    2    0    0  0.11287909848E+02 -0.27982155002E+02  0.27253396587E+02  0.50528861633E+02  0.30000005419E+02 0.  0.
         12    1    1    2    0    0 -0.11287909848E+02  0.27982155002E+02 -0.27253396587E+02  0.40659138367E+02  0.00000000000E+00 0. -1.
         11    1    3    3    0    0  0.80039487707E+01 -0.75708124804E+01  0.69236009734E+00  0.11039010839E+02  0.51100000000E-03 0. -1.
        -11    1    3    3    0    0  0.76923125416E+01 -0.21660079673E+02  0.26259248272E+02  0.34898120920E+02  0.51100000000E-03 0.  1.
        -12    1    3    3    0    0 -0.44083514648E+01  0.12487371515E+01  0.30178821758E+00  0.45917298743E+01  0.00000000000E+00 0.  1.
</event>
<event>
 7    1  0.5748623E-013  0.5052884E+02  0.7816164E-02  0.1300439E+00
        -11   -1    0    0    0    0  0.00000000000E+00  0.00000000000E+00  0.45593999997E+02  0.45594000000E+02  0.51100000000E-03 0.  1.
         11   -1    0    0    0    0 -0.00000000000E+00 -0.00000000000E+00 -0.45593999997E+02  0.45594000000E+02  0.51100000000E-03 0. -1.
    9900012    2    1    2    0    0 -0.12243727118E+02  0.25477945003E+02 -0.29225551433E+02  0.50528838771E+02  0.29999935929E+02 0.  0.
         12    1    1    2    0    0  0.12243727118E+02 -0.25477945003E+02  0.29225551433E+02  0.40659161229E+02  0.00000000000E+00 0. -1.
         11    1    3    3    0    0 -0.14748343204E+01  0.17643584724E+02 -0.22428347043E+02  0.28574498588E+02  0.51100000000E-03 0. -1.
        -11    1    3    3    0    0 -0.10351053593E+02  0.94213426480E+01  0.95610390809E+00  0.14029260235E+02  0.51100000000E-03 0.  1.
         12    1    3    3    0    0 -0.41783920390E+00 -0.15869823691E+01 -0.77533082974E+01  0.79250799488E+01  0.00000000000E+00 0. -1.
</event>
<event>
 7    1  0.5748623E-013  0.5052889E+02  0.7816164E-02  0.1300439E+00
        -11   -1    0    0    0    0  0.00000000000E+00  0.00000000000E+00  0.45593999997E+02  0.45594000000E+02  0.51100000000E-03 0. -1.
         11   -1    0    0    0    0 -0.00000000000E+00 -0.00000000000E+00 -0.45593999997E+02  0.45594000000E+02  0.51100000000E-03 0.  1.
    9900012    2    1    2    0    0 -0.35536468091E+01  0.79181357659E+01 -0.39722003605E+02  0.50528894623E+02  0.30000105697E+02 0.  0.
         12    1    1    2    0    0  0.35536468091E+01 -0.79181357659E+01  0.39722003605E+02  0.40659105377E+02  0.00000000000E+00 0. -1.
         11    1    3    3    0    0  0.22457950615E+01 -0.23698394080E+01 -0.70821032355E+01  0.77984563073E+01  0.51100000000E-03 0. -1.
        -11    1    3    3    0    0  0.10938916916E+01  0.17452952737E+02 -0.18635489637E+02  0.25555501023E+02  0.51100000000E-03 0.  1.
        -12    1    3    3    0    0 -0.68933335622E+01 -0.71649775627E+01 -0.14004410732E+02  0.17174937293E+02  0.00000000000E+00 0.  1.
</event>
<event>
 7    1  0.5748623E-013  0.5052885E+02  0.7816164E-02  0.1300439E+00
        -11   -1    0    0    0    0  0.00000000000E+00  0.00000000000E+00  0.45593999997E+02  0.45594000000E+02  0.51100000000E-03 0.  1.
         11   -1    0    0    0    0 -0.00000000000E+00 -0.00000000000E+00 -0.45593999997E+02  0.45594000000E+02  0.51100000000E-03 0. -1.
    9900012    2    1    2    0    0 -0.40398205867E+01 -0.28153640361E+02  0.29055447989E+02  0.50528847601E+02  0.29999962769E+02 0.  0.
         12    1    1    2    0    0  0.40398205867E+01  0.28153640361E+02 -0.29055447989E+02  0.40659152399E+02  0.00000000000E+00 0. -1.
         11    1    3    3    0    0 -0.11019150102E+02 -0.15219300605E+02  0.76380265852E+01  0.20282707665E+02  0.51100000000E-03 0.  1.
        -11    1    3    3    0    0  0.28302470946E+01  0.34219200234E+01  0.52576515007E+01  0.68820589090E+01  0.51100000000E-03 0. -1.
        -12    1    3    3    0    0  0.41490824204E+01 -0.16356259780E+02  0.16159769903E+02  0.23364081027E+02  0.00000000000E+00 0.  1.
</event>
<event>
 7    1  0.5748623E-013  0.5052886E+02  0.7816164E-02  0.1300439E+00
        -11   -1    0    0    0    0  0.00000000000E+00  0.00000000000E+00  0.45593999997E+02  0.45594000000E+02  0.51100000000E-03 0. -1.
         11   -1    0    0    0    0 -0.00000000000E+00 -0.00000000000E+00 -0.45593999997E+02  0.45594000000E+02  0.51100000000E-03 0.  1.
    9900012    2    1    2    0    0 -0.20394992443E+02  0.34087091620E+01 -0.35008435592E+02  0.50528861082E+02  0.30000003746E+02 0.  0.
         12    1    1    2    0    0  0.20394992443E+02 -0.34087091620E+01  0.35008435592E+02  0.40659138918E+02  0.00000000000E+00 0. -1.
         11    1    3    3    0    0 -0.61662547142E+01  0.13758880379E+02 -0.82864074832E+01  0.17204477200E+02  0.51100000000E-03 0. -1.
        -11    1    3    3    0    0 -0.82564884285E+01 -0.86628314590E+01 -0.10373010765E+02  0.15837095777E+02  0.51100000000E-03 0.  1.
        -12    1    3    3    0    0 -0.59722493006E+01 -0.16873397581E+01 -0.16349017344E+02  0.17487288105E+02  0.00000000000E+00 0.  1.
</event>
<event>
 7    1  0.5748623E-013  0.5052887E+02  0.7816164E-02  0.1300439E+00
        -11   -1    0    0    0    0  0.00000000000E+00  0.00000000000E+00  0.45593999997E+02  0.45594000000E+02  0.51100000000E-03 0. -1.
         11   -1    0    0    0    0 -0.00000000000E+00 -0.00000000000E+00 -0.45593999997E+02  0.45594000000E+02  0.51100000000E-03 0.  1.
    9900012    2    1    2    0    0 -0.89320227973E+01 -0.46293641536E+01 -0.39394834653E+02  0.50528867679E+02  0.30000023798E+02 0.  0.
         12    1    1    2    0    0  0.89320227973E+01  0.46293641536E+01  0.39394834653E+02  0.40659132321E+02  0.00000000000E+00 0. -1.
         11    1    3    3    0    0  0.48828341485E-01  0.97753954451E+00 -0.19725565579E+02  0.19749833049E+02  0.51100000000E-03 0. -1.
        -11    1    3    3    0    0  0.55009516279E+01 -0.68435222493E+01 -0.48893319534E+01  0.10049867303E+02  0.51100000000E-03 0.  1.
        -12    1    3    3    0    0 -0.14481802767E+02  0.12366185512E+01 -0.14779937121E+02  0.20729167328E+02  0.00000000000E+00 0.  1.
</event>
<event>
 7    1  0.5748623E-013  0.5052886E+02  0.7816164E-02  0.1300439E+00
        -11   -1    0    0    0    0  0.00000000000E+00  0.00000000000E+00  0.45593999997E+02  0.45594000000E+02  0.51100000000E-03 0.  1.
         11   -1    0    0    0    0 -0.00000000000E+00 -0.00000000000E+00 -0.45593999997E+02  0.45594000000E+02  0.51100000000E-03 0. -1.
    9900012    2    1    2    0    0 -0.18979313694E+02 -0.17159507640E+02  0.31599095740E+02  0.50528857088E+02  0.29999991605E+02 0.  0.
         12    1    1    2    0    0  0.18979313694E+02  0.17159507640E+02 -0.31599095740E+02  0.40659142912E+02  0.00000000000E+00 0. -1.
         11    1    3    3    0    0 -0.20403064673E+02 -0.10285325155E+01  0.22646090396E+02  0.30498989126E+02  0.51100000000E-03 0.  1.
        -11    1    3    3    0    0  0.44251396744E+01 -0.11217637052E+02  0.50472892320E+01  0.13072580886E+02  0.51100000000E-03 0. -1.
        -12    1    3    3    0    0 -0.30013886952E+01 -0.49133380725E+01  0.39057161122E+01  0.69572870764E+01  0.00000000000E+00 0.  1.
</event>
<event>
 7    1  0.5748623E-013  0.5052890E+02  0.7816164E-02  0.1300439E+00
        -11   -1    0    0    0    0  0.00000000000E+00  0.00000000000E+00  0.45593999997E+02  0.45594000000E+02  0.51100000000E-03 0. -1.
         11   -1    0    0    0    0 -0.00000000000E+00 -0.00000000000E+00 -0.45593999997E+02  0.45594000000E+02  0.51100000000E-03 0.  1.
    9900012    2    1    2    0    0  0.12776911808E+02  0.35707439619E+02 -0.14659197966E+02  0.50528895184E+02  0.30000107400E+02 0.  0.
         12    1    1    2    0    0 -0.12776911808E+02 -0.35707439619E+02  0.14659197966E+02  0.40659104816E+02  0.00000000000E+00 0. -1.
         11    1    3    3    0    0 -0.48882409452E+01  0.14517879374E+02 -0.12833028919E+02  0.19983752214E+02  0.51100000000E-03 0. -1.
        -11    1    3    3    0    0  0.88833558557E+01  0.49241213956E+01 -0.57171777616E+01  0.11655346610E+02  0.51100000000E-03 0.  1.
         12    1    3    3    0    0  0.87817968978E+01  0.16265438849E+02  0.38910087144E+01  0.18889796360E+02  0.00000000000E+00 0. -1.
</event>
<event>
 7    1  0.5748623E-013  0.5052886E+02  0.7816164E-02  0.1300439E+00
        -11   -1    0    0    0    0  0.00000000000E+00  0.00000000000E+00  0.45593999997E+02  0.45594000000E+02  0.51100000000E-03 0. -1.
         11   -1    0    0    0    0 -0.00000000000E+00 -0.00000000000E+00 -0.45593999997E+02  0.45594000000E+02  0.51100000000E-03 0.  1.
    9900012    2    1    2    0    0 -0.30150058476E+02 -0.19423148945E+02 -0.19154134773E+02  0.50528860560E+02  0.30000002159E+02 0.  0.
         12    1    1    2    0    0  0.30150058476E+02  0.19423148945E+02  0.19154134773E+02  0.40659139440E+02  0.00000000000E+00 0. -1.
         11    1    3    3    0    0 -0.39329174898E+01  0.29007757826E+01  0.35700330579E+01  0.60520638148E+01  0.51100000000E-03 0. -1.
        -11    1    3    3    0    0 -0.16516233655E+02 -0.91570392959E+01 -0.20662961677E+02  0.27992772788E+02  0.51100000000E-03 0.  1.
        -12    1    3    3    0    0 -0.97009073315E+01 -0.13166885432E+02 -0.20612061539E+01  0.16484023958E+02  0.00000000000E+00 0.  1.
</event>
<event>
 7    1  0.5748623E-013  0.5052886E+02  0.7816164E-02  0.1300439E+00
        -11   -1    0    0    0    0  0.00000000000E+00  0.00000000000E+00  0.45593999997E+02  0.45594000000E+02  0.51100000000E-03 0. -1.
         11   -1    0    0    0    0 -0.00000000000E+00 -0.00000000000E+00 -0.45593999997E+02  0.45594000000E+02  0.51100000000E-03 0.  1.
    9900012    2    1    2    0    0  0.37120323884E+02  0.60537096476E+01 -0.15446668187E+02  0.50528863218E+02  0.30000010238E+02 0.  0.
         12    1    1    2    0    0 -0.37120323884E+02 -0.60537096476E+01  0.15446668187E+02  0.40659136782E+02  0.00000000000E+00 0. -1.
         11    1    3    3    0    0 -0.53469160884E+00  0.35072002486E+01  0.36158912170E+01  0.50656705632E+01  0.51100000000E-03 0. -1.
        -11    1    3    3    0    0  0.31077098807E+02 -0.45733652257E+01 -0.16271296712E+02  0.35375935842E+02  0.51100000000E-03 0.  1.
         12    1    3    3    0    0  0.65779166858E+01  0.71198746247E+01 -0.27912626922E+01  0.10087256813E+02  0.00000000000E+00 0. -1.
</event>
<event>
 7    1  0.5748623E-013  0.5052885E+02  0.7816164E-02  0.1300439E+00
        -11   -1    0    0    0    0  0.00000000000E+00  0.00000000000E+00  0.45593999997E+02  0.45594000000E+02  0.51100000000E-03 0.  1.
         11   -1    0    0    0    0 -0.00000000000E+00 -0.00000000000E+00 -0.45593999997E+02  0.45594000000E+02  0.51100000000E-03 0. -1.
    9900012    2    1    2    0    0 -0.16074407821E+02 -0.26429366588E+02  0.26386903952E+02  0.50528847215E+02  0.29999961594E+02 0.  0.
         12    1    1    2    0    0  0.16074407821E+02  0.26429366588E+02 -0.26386903952E+02  0.40659152785E+02  0.00000000000E+00 0. -1.
         11    1    3    3    0    0 -0.19803248628E+01 -0.20132128800E+01 -0.15841136020E+01  0.32379204480E+01  0.51100000000E-03 0. -1.
        -11    1    3    3    0    0  0.48733820023E+01 -0.36114258777E+01  0.15221204572E+02  0.16385277474E+02  0.51100000000E-03 0.  1.
        -12    1    3    3    0    0 -0.18967464961E+02 -0.20804727830E+02  0.12749812982E+02  0.30905649293E+02  0.00000000000E+00 0.  1.
</event>
<event>
 7    1  0.5748623E-013  0.5052886E+02  0.7816164E-02  0.1300439E+00
        -11   -1    0    0    0    0  0.00000000000E+00  0.00000000000E+00  0.45593999997E+02  0.45594000000E+02  0.51100000000E-03 0.  1.
         11   -1    0    0    0    0 -0.00000000000E+00 -0.00000000000E+00 -0.45593999997E+02  0.45594000000E+02  0.51100000000E-03 0. -1.
    9900012    2    1    2    0    0 -0.32973802794E+02 -0.23442622647E+02  0.40419395613E+01  0.50528862003E+02  0.30000006544E+02 0.  0.
         12    1    1    2    0    0  0.32973802794E+02  0.23442622647E+02 -0.40419395613E+01  0.40659137997E+02  0.00000000000E+00 0. -1.
         11    1    3    3    0    0 -0.18707071826E+02 -0.88889949824E+01 -0.12338367756E+02  0.24108174697E+02  0.51100000000E-03 0. -1.
        -11    1    3    3    0    0 -0.95920066580E+01 -0.72973204004E+01  0.10407012392E+02  0.15923673695E+02  0.51100000000E-03 0.  1.
        -12    1    3    3    0    0 -0.46747243096E+01 -0.72563072643E+01  0.59732949249E+01  0.10497013611E+02  0.00000000000E+00 0.  1.
</event>
<event>
 7    1  0.5748623E-013  0.5052887E+02  0.7816164E-02  0.1300439E+00
        -11   -1    0    0    0    0  0.00000000000E+00  0.00000000000E+00  0.45593999997E+02  0.45594000000E+02  0.51100000000E-03 0.  1.
         11   -1    0    0    0    0 -0.00000000000E+00 -0.00000000000E+00 -0.45593999997E+02  0.45594000000E+02  0.51100000000E-03 0. -1.
    9900012    2    1    2    0    0  0.27380934845E+02 -0.28104583734E+02 -0.10657471229E+02  0.50528869256E+02  0.30000028591E+02 0.  0.
         12    1    1    2    0    0 -0.27380934845E+02  0.28104583734E+02  0.10657471229E+02  0.40659130744E+02  0.00000000000E+00 0. -1.
         11    1    3    3    0    0  0.47722079198E+01 -0.40057001190E+01  0.82943640758E+00  0.62855045055E+01  0.51100000000E-03 0.  1.
        -11    1    3    3    0    0  0.78044142164E+01 -0.26255562292E+02 -0.46030399073E+01  0.27775014117E+02  0.51100000000E-03 0. -1.
        -12    1    3    3    0    0  0.14804312709E+02  0.21566786769E+01 -0.68838677291E+01  0.16468350634E+02  0.00000000000E+00 0.  1.
</event>
<event>
 7    1  0.5748623E-013  0.5052885E+02  0.7816164E-02  0.1300439E+00
        -11   -1    0    0    0    0  0.00000000000E+00  0.00000000000E+00  0.45593999997E+02  0.45594000000E+02  0.51100000000E-03 0. -1.
         11   -1    0    0    0    0 -0.00000000000E+00 -0.00000000000E+00 -0.45593999997E+02  0.45594000000E+02  0.51100000000E-03 0.  1.
    9900012    2    1    2    0    0  0.21949753515E+02 -0.18079012613E+02 -0.29060691388E+02  0.50528853915E+02  0.29999981961E+02 0.  0.
         12    1    1    2    0    0 -0.21949753515E+02  0.18079012613E+02  0.29060691388E+02  0.40659146085E+02  0.00000000000E+00 0. -1.
         11    1    3    3    0    0  0.18105432454E+02  0.13856840219E+01 -0.63742697340E+01  0.19244690683E+02  0.51100000000E-03 0. -1.
        -11    1    3    3    0    0  0.54868448427E+00 -0.14013496920E+02 -0.10451668282E+02  0.17490469425E+02  0.51100000000E-03 0.  1.
        -12    1    3    3    0    0  0.32956365765E+01 -0.54511997146E+01 -0.12234753372E+02  0.13793693807E+02  0.00000000000E+00 0.  1.
</event>
<event>
 7    1  0.5748623E-013  0.5052880E+02  0.7816164E-02  0.1300439E+00
        -11   -1    0    0    0    0  0.00000000000E+00  0.00000000000E+00  0.45593999997E+02  0.45594000000E+02  0.51100000000E-03 0. -1.
         11   -1    0    0    0    0 -0.00000000000E+00 -0.00000000000E+00 -0.45593999997E+02  0.45594000000E+02  0.51100000000E-03 0.  1.
    9900012    2    1    2    0    0  0.28513309846E+01 -0.37302019638E+02 -0.15924825167E+02  0.50528796687E+02  0.29999808010E+02 0.  0.
         12    1    1    2    0    0 -0.28513309846E+01  0.37302019638E+02  0.15924825167E+02  0.40659203313E+02  0.00000000000E+00 0. -1.
         11    1    3    3    0    0  0.10839821967E+02 -0.32052916585E+01 -0.70273903985E+00  0.11325611564E+02  0.51100000000E-03 0. -1.
        -11    1    3    3    0    0 -0.68804888471E+00 -0.12499319129E+02 -0.15345155898E+01  0.12611943876E+02  0.51100000000E-03 0.  1.
         12    1    3    3    0    0 -0.73004420975E+01 -0.21597408850E+02 -0.13687570537E+02  0.26591241247E+02  0.00000000000E+00 0. -1.
</event>
<event>
 7    1  0.5748623E-013  0.5052883E+02  0.7816164E-02  0.1300439E+00
        -11   -1    0    0    0    0  0.00000000000E+00  0.00000000000E+00  0.45593999997E+02  0.45594000000E+02  0.51100000000E-03 0.  1.
         11   -1    0    0    0    0 -0.00000000000E+00 -0.00000000000E+00 -0.45593999997E+02  0.45594000000E+02  0.51100000000E-03 0. -1.
    9900012    2    1    2    0    0  0.33585363494E+02 -0.99357239673E-01  0.22916834927E+02  0.50528833310E+02  0.29999919328E+02 0.  0.
         12    1    1    2    0    0 -0.33585363494E+02  0.99357239673E-01 -0.22916834927E+02  0.40659166690E+02  0.00000000000E+00 0. -1.
         11    1    3    3    0    0  0.23743093586E+01 -0.47717298409E+01  0.79407422234E+01  0.95635839477E+01  0.51100000000E-03 0. -1.
        -11    1    3    3    0    0  0.32957233522E+02  0.71661699997E+01  0.16515401445E+02  0.37553850922E+02  0.51100000000E-03 0.  1.
        -12    1    3    3    0    0 -0.17461793866E+01 -0.24937973986E+01 -0.15393087420E+01  0.34113984403E+01  0.00000000000E+00 0.  1.
</event>
<event>
 7    1  0.5748623E-013  0.5052886E+02  0.7816164E-02  0.1300439E+00
        -11   -1    0    0    0    0  0.00000000000E+00  0.00000000000E+00  0.45593999997E+02  0.45594000000E+02  0.51100000000E-03 0. -1.
         11   -1    0    0    0    0 -0.00000000000E+00 -0.00000000000E+00 -0.45593999997E+02  0.45594000000E+02  0.51100000000E-03 0.  1.
    9900012    2    1    2    0    0  0.12494657532E+02  0.38618753950E+02 -0.23751537581E+01  0.50528856147E+02  0.29999988745E+02 0.  0.
         12    1    1    2    0    0 -0.12494657532E+02 -0.38618753950E+02  0.23751537581E+01  0.40659143853E+02  0.00000000000E+00 0. -1.
         11    1    3    3    0    0 -0.26442721580E+01  0.31068727196E+00  0.33951489827E+01  0.43145960069E+01  0.51100000000E-03 0. -1.
        -11    1    3    3    0    0  0.14007757301E+02  0.34087813138E+02  0.24182430366E+01  0.36932968589E+02  0.51100000000E-03 0.  1.
        -12    1    3    3    0    0  0.11311723894E+01  0.42202535392E+01 -0.81885457774E+01  0.92812915512E+01  0.00000000000E+00 0.  1.
</event>
<event>
 7    1  0.5748623E-013  0.5052885E+02  0.7816164E-02  0.1300439E+00
        -11   -1    0    0    0    0  0.00000000000E+00  0.00000000000E+00  0.45593999997E+02  0.45594000000E+02  0.51100000000E-03 0.  1.
         11   -1    0    0    0    0 -0.00000000000E+00 -0.00000000000E+00 -0.45593999997E+02  0.45594000000E+02  0.51100000000E-03 0. -1.
    9900012    2    1    2    0    0  0.21005696969E+02 -0.12961493351E+02  0.32309853494E+02  0.50528852839E+02  0.29999978691E+02 0.  0.
         12    1    1    2    0    0 -0.21005696969E+02  0.12961493351E+02 -0.32309853494E+02  0.40659147161E+02  0.00000000000E+00 0. -1.
         11    1    3    3    0    0  0.85528509035E+00 -0.56549940587E+01  0.67708628131E-02  0.57193108410E+01  0.51100000000E-03 0. -1.
        -11    1    3    3    0    0  0.90196895324E+01  0.74794080376E+01  0.17736402866E+02  0.21257382970E+02  0.51100000000E-03 0.  1.
        -12    1    3    3    0    0  0.11130722346E+02 -0.14785907330E+02  0.14566679764E+02  0.23552159028E+02  0.00000000000E+00 0.  1.
</event>
<event>
 7    1  0.5748623E-013  0.5052889E+02  0.7816164E-02  0.1300439E+00
        -11   -1    0    0    0    0  0.00000000000E+00  0.00000000000E+00  0.45593999997E+02  0.45594000000E+02  0.51100000000E-03 0.  1.
         11   -1    0    0    0    0 -0.00000000000E+00 -0.00000000000E+00 -0.45593999997E+02  0.45594000000E+02  0.51100000000E-03 0. -1.
    9900012    2    1    2    0    0 -0.85527857940E+01  0.23912294201E+02  0.31752401872E+02  0.50528892983E+02  0.30000100711E+02 0.  0.
         12    1    1    2    0    0  0.85527857940E+01 -0.23912294201E+02 -0.31752401872E+02  0.40659107017E+02  0.00000000000E+00 0. -1.
         11    1    3    3    0    0 -0.76404665137E+01 -0.20951016156E+01 -0.44107174207E+00  0.79347793838E+01  0.51100000000E-03 0. -1.
        -11    1    3    3    0    0 -0.93908633558E+00  0.24108243636E+02  0.23444164177E+02  0.33641018542E+02  0.51100000000E-03 0.  1.
         12    1    3    3    0    0  0.26767055339E-01  0.18991521806E+01  0.87493094366E+01  0.89530950569E+01  0.00000000000E+00 0. -1.
</event>
<event>
 7    1  0.5748623E-013  0.5052886E+02  0.7816164E-02  0.1300439E+00
        -11   -1    0    0    0    0  0.00000000000E+00  0.00000000000E+00  0.45593999997E+02  0.45594000000E+02  0.51100000000E-03 0.  1.
         11   -1    0    0    0    0 -0.00000000000E+00 -0.00000000000E+00 -0.45593999997E+02  0.45594000000E+02  0.51100000000E-03 0. -1.
    9900012    2    1    2    0    0 -0.38753503156E+02 -0.12634159728E+01  0.12236639057E+02  0.50528861270E+02  0.30000004318E+02 0.  0.
         12    1    1    2    0    0  0.38753503156E+02  0.12634159728E+01 -0.12236639057E+02  0.40659138730E+02  0.00000000000E+00 0. -1.
         11    1    3    3    0    0 -0.38129524127E+02  0.77517399953E+01  0.57517234434E+01  0.39332332832E+02  0.51100000000E-03 0. -1.
        -11    1    3    3    0    0 -0.10141081821E+00 -0.50579510386E+01  0.43381978441E+01  0.66643164434E+01  0.51100000000E-03 0.  1.
         12    1    3    3    0    0 -0.52256821070E+00 -0.39572049295E+01  0.21467177699E+01  0.45322119955E+01  0.00000000000E+00 0. -1.
</event>
<event>
 7    1  0.5748623E-013  0.5052886E+02  0.7816164E-02  0.1300439E+00
        -11   -1    0    0    0    0  0.00000000000E+00  0.00000000000E+00  0.45593999997E+02  0.45594000000E+02  0.51100000000E-03 0.  1.
         11   -1    0    0    0    0 -0.00000000000E+00 -0.00000000000E+00 -0.45593999997E+02  0.45594000000E+02  0.51100000000E-03 0. -1.
    9900012    2    1    2    0    0  0.22367953155E+02 -0.23532565062E+02 -0.24475677179E+02  0.50528859329E+02  0.29999998416E+02 0.  0.
         12    1    1    2    0    0 -0.22367953155E+02  0.23532565062E+02  0.24475677179E+02  0.40659140671E+02  0.00000000000E+00 0. -1.
         11    1    3    3    0    0  0.80100991987E+01 -0.13136841524E+02 -0.20097098506E+02  0.25310702539E+02  0.51100000000E-03 0. -1.
        -11    1    3    3    0    0  0.40887065487E+01 -0.11002566691E+02  0.35137186627E+01  0.12252355452E+02  0.51100000000E-03 0.  1.
         12    1    3    3    0    0  0.10269147408E+02  0.60684315281E+00 -0.78922973362E+01  0.12965801338E+02  0.00000000000E+00 0. -1.
</event>
<event>
 7    1  0.5748623E-013  0.5052888E+02  0.7816164E-02  0.1300439E+00
        -11   -1    0    0    0    0  0.00000000000E+00  0.00000000000E+00  0.45593999997E+02  0.45594000000E+02  0.51100000000E-03 0. -1.
         11   -1    0    0    0    0 -0.00000000000E+00 -0.00000000000E+00 -0.45593999997E+02  0.45594000000E+02  0.51100000000E-03 0.  1.
    9900012    2    1    2    0    0 -0.24761896413E+00 -0.38793373714E+02  0.12172790358E+02  0.50528880674E+02  0.30000063297E+02 0.  0.
         12    1    1    2    0    0  0.24761896413E+00  0.38793373714E+02 -0.12172790358E+02  0.40659119326E+02  0.00000000000E+00 0. -1.
         11    1    3    3    0    0 -0.62142993406E+01 -0.16973673642E+01  0.34588189219E+01  0.73117713900E+01  0.51100000000E-03 0. -1.
        -11    1    3    3    0    0  0.10991054783E+02 -0.30630096986E+02  0.19578757278E+01  0.32601217833E+02  0.51100000000E-03 0.  1.
        -12    1    3    3    0    0 -0.50243744062E+01 -0.64659093638E+01  0.67560957084E+01  0.10615891451E+02  0.00000000000E+00 0.  1.
</event>
<event>
 7    1  0.5748623E-013  0.5052884E+02  0.7816164E-02  0.1300439E+00
        -11   -1    0    0    0    0  0.00000000000E+00  0.00000000000E+00  0.45593999997E+02  0.45594000000E+02  0.51100000000E-03 0.  1.
         11   -1    0    0    0    0 -0.00000000000E+00 -0.00000000000E+00 -0.45593999997E+02  0.45594000000E+02  0.51100000000E-03 0. -1.
    9900012    2    1    2    0    0 -0.20066729137E+02 -0.81280444871E+01  0.34415530134E+02  0.50528838181E+02  0.29999934135E+02 0.  0.
         12    1    1    2    0    0  0.20066729137E+02  0.81280444871E+01 -0.34415530134E+02  0.40659161819E+02  0.00000000000E+00 0. -1.
         11    1    3    3    0    0 -0.69635063047E+01 -0.28117555080E+01 -0.11029066047E+00  0.75105627874E+01  0.51100000000E-03 0. -1.
        -11    1    3    3    0    0  0.78160028144E+00 -0.23103522881E+01  0.26676121565E+02  0.26787386747E+02  0.51100000000E-03 0.  1.
        -12    1    3    3    0    0 -0.13884823113E+02 -0.30059366910E+01  0.78496992292E+01  0.16230888647E+02  0.00000000000E+00 0.  1.
</event>
<event>
 7    1  0.5748623E-013  0.5052885E+02  0.7816164E-02  0.1300439E+00
        -11   -1    0    0    0    0  0.00000000000E+00  0.00000000000E+00  0.45593999997E+02  0.45594000000E+02  0.51100000000E-03 0.  1.
         11   -1    0    0    0    0 -0.00000000000E+00 -0.00000000000E+00 -0.45593999997E+02  0.45594000000E+02  0.51100000000E-03 0. -1.
    9900012    2    1    2    0    0  0.28332773523E+02 -0.28242260067E+02  0.72660540512E+01  0.50528845426E+02  0.29999956157E+02 0.  0.
         12    1    1    2    0    0 -0.28332773523E+02  0.28242260067E+02 -0.72660540512E+01  0.40659154574E+02  0.00000000000E+00 0. -1.
         11    1    3    3    0    0  0.13482143941E+02 -0.14090331585E+02  0.18517446014E+02  0.26892405184E+02  0.51100000000E-03 0. -1.
        -11    1    3    3    0    0  0.13173956355E+02 -0.12657634855E+02 -0.86929329660E+01  0.20232052046E+02  0.51100000000E-03 0.  1.
         12    1    3    3    0    0  0.16766732266E+01 -0.14942936262E+01 -0.25584589971E+01  0.34043881961E+01  0.00000000000E+00 0. -1.
</event>
<event>
 7    1  0.5748623E-013  0.5052886E+02  0.7816164E-02  0.1300439E+00
        -11   -1    0    0    0    0  0.00000000000E+00  0.00000000000E+00  0.45593999997E+02  0.45594000000E+02  0.51100000000E-03 0.  1.
         11   -1    0    0    0    0 -0.00000000000E+00 -0.00000000000E+00 -0.45593999997E+02  0.45594000000E+02  0.51100000000E-03 0. -1.
    9900012    2    1    2    0    0 -0.95650310479E+01  0.34738390764E+02  0.18839326315E+02  0.50528858005E+02  0.29999994391E+02 0.  0.
         12    1    1    2    0    0  0.95650310479E+01 -0.34738390764E+02 -0.18839326315E+02  0.40659141995E+02  0.00000000000E+00 0. -1.
         11    1    3    3    0    0 -0.58503681742E+01 -0.13037000606E+01  0.82123498941E+01  0.10167061162E+02  0.51100000000E-03 0. -1.
        -11    1    3    3    0    0 -0.74800969349E+01  0.32903462183E+02  0.75603090198E+01  0.34579588582E+02  0.51100000000E-03 0.  1.
        -12    1    3    3    0    0  0.37654340613E+01  0.31386286414E+01  0.30666674012E+01  0.57822082605E+01  0.00000000000E+00 0.  1.
</event>
<event>
 7    1  0.5748623E-013  0.5052886E+02  0.7816164E-02  0.1300439E+00
        -11   -1    0    0    0    0  0.00000000000E+00  0.00000000000E+00  0.45593999997E+02  0.45594000000E+02  0.51100000000E-03 0.  1.
         11   -1    0    0    0    0 -0.00000000000E+00 -0.00000000000E+00 -0.45593999997E+02  0.45594000000E+02  0.51100000000E-03 0. -1.
    9900012    2    1    2    0    0  0.27797712624E+02  0.15950402061E+02  0.25020747256E+02  0.50528856547E+02  0.29999989961E+02 0.  0.
         12    1    1    2    0    0 -0.27797712624E+02 -0.15950402061E+02 -0.25020747256E+02  0.40659143453E+02  0.00000000000E+00 0. -1.
         11    1    3    3    0    0  0.10439870845E+02  0.45988899646E+01  0.23966524694E+02  0.26543078163E+02  0.51100000000E-03 0. -1.
        -11    1    3    3    0    0  0.12012707138E+02  0.17682785128E+01 -0.26053519511E+01  0.12418526512E+02  0.51100000000E-03 0.  1.
         12    1    3    3    0    0  0.53451346411E+01  0.95832335840E+01  0.36595745128E+01  0.11567251872E+02  0.00000000000E+00 0. -1.
</event>
<event>
 7    1  0.5748623E-013  0.5052886E+02  0.7816164E-02  0.1300439E+00
        -11   -1    0    0    0    0  0.00000000000E+00  0.00000000000E+00  0.45593999997E+02  0.45594000000E+02  0.51100000000E-03 0.  1.
         11   -1    0    0    0    0 -0.00000000000E+00 -0.00000000000E+00 -0.45593999997E+02  0.45594000000E+02  0.51100000000E-03 0. -1.
    9900012    2    1    2    0    0  0.26485626468E+01 -0.10433601752E+02  0.39208296754E+02  0.50528862479E+02  0.30000007992E+02 0.  0.
         12    1    1    2    0    0 -0.26485626468E+01  0.10433601752E+02 -0.39208296754E+02  0.40659137521E+02  0.00000000000E+00 0. -1.
         11    1    3    3    0    0  0.24754678384E+01  0.27266816548E+01  0.30705221280E+01  0.47948764598E+01  0.51100000000E-03 0. -1.
        -11    1    3    3    0    0 -0.11308278934E+02 -0.11842220391E+02  0.19275708205E+02  0.25291664305E+02  0.51100000000E-03 0.  1.
        -12    1    3    3    0    0  0.11481373742E+02 -0.13180630152E+01  0.16862066421E+02  0.20442321715E+02  0.00000000000E+00 0.  1.
</event>
<event>
 7    1  0.5748623E-013  0.5052882E+02  0.7816164E-02  0.1300439E+00
        -11   -1    0    0    0    0  0.00000000000E+00  0.00000000000E+00  0.45593999997E+02  0.45594000000E+02  0.51100000000E-03 0. -1.
         11   -1    0    0    0    0 -0.00000000000E+00 -0.00000000000E+00 -0.45593999997E+02  0.45594000000E+02  0.51100000000E-03 0.  1.
    9900012    2    1    2    0    0  0.23936046363E+02 -0.21392794473E+02 -0.24951616188E+02  0.50528817504E+02  0.29999871285E+02 0.  0.
         12    1    1    2    0    0 -0.23936046363E+02  0.21392794473E+02  0.24951616188E+02  0.40659182496E+02  0.00000000000E+00 0. -1.
         11    1    3    3    0    0  0.58084640858E+01 -0.13780743330E+02 -0.87102500543E+01  0.17306518946E+02  0.51100000000E-03 0. -1.
        -11    1    3    3    0    0  0.10478243896E+02  0.51664311064E+01 -0.70997692722E+00  0.11704258755E+02  0.51100000000E-03 0.  1.
        -12    1    3    3    0    0  0.76493383811E+01 -0.12778482249E+02 -0.15531389207E+02  0.21518039803E+02  0.00000000000E+00 0.  1.
</event>
<event>
 7    1  0.5748623E-013  0.5052886E+02  0.7816164E-02  0.1300439E+00
        -11   -1    0    0    0    0  0.00000000000E+00  0.00000000000E+00  0.45593999997E+02  0.45594000000E+02  0.51100000000E-03 0.  1.
         11   -1    0    0    0    0 -0.00000000000E+00 -0.00000000000E+00 -0.45593999997E+02  0.45594000000E+02  0.51100000000E-03 0. -1.
    9900012    2    1    2    0    0  0.16679883397E+02  0.16601956581E+02  0.33156033495E+02  0.50528855523E+02  0.29999986848E+02 0.  0.
         12    1    1    2    0    0 -0.16679883397E+02 -0.16601956581E+02 -0.33156033495E+02  0.40659144477E+02  0.00000000000E+00 0. -1.
         11    1    3    3    0    0  0.18567103259E+02  0.75182649664E+00  0.20648255187E+02  0.27778643038E+02  0.51100000000E-03 0.  1.
        -11    1    3    3    0    0 -0.36883386116E+01  0.14481156218E+02  0.13629106260E+02  0.20225238313E+02  0.51100000000E-03 0. -1.
         12    1    3    3    0    0  0.18011187493E+01  0.13689738659E+01 -0.11213279512E+01  0.25249741719E+01  0.00000000000E+00 0. -1.
</event>
<event>
 7    1  0.5748623E-013  0.5052886E+02  0.7816164E-02  0.1300439E+00
        -11   -1    0    0    0    0  0.00000000000E+00  0.00000000000E+00  0.45593999997E+02  0.45594000000E+02  0.51100000000E-03 0. -1.
         11   -1    0    0    0    0 -0.00000000000E+00 -0.00000000000E+00 -0.45593999997E+02  0.45594000000E+02  0.51100000000E-03 0.  1.
    9900012    2    1    2    0    0  0.72767039375E+01  0.38879202941E+02 -0.94139682170E+01  0.50528860325E+02  0.30000001445E+02 0.  0.
         12    1    1    2    0    0 -0.72767039375E+01 -0.38879202941E+02  0.94139682170E+01  0.40659139675E+02  0.00000000000E+00 0. -1.
         11    1    3    3    0    0 -0.21154205684E+01  0.23626104905E+01 -0.76101110169E+01  0.82444358486E+01  0.51100000000E-03 0. -1.
        -11    1    3    3    0    0  0.89491624346E+01  0.13428916665E+02  0.69744247405E+01  0.17580270527E+02  0.51100000000E-03 0.  1.
        -12    1    3    3    0    0  0.44296207134E+00  0.23087675785E+02 -0.87782819407E+01  0.24704153950E+02  0.00000000000E+00 0.  1.
</event>
<event>
 7    1  0.5748623E-013  0.5052886E+02  0.7816164E-02  0.1300439E+00
        -11   -1    0    0    0    0  0.00000000000E+00  0.00000000000E+00  0.45593999997E+02  0.45594000000E+02  0.51100000000E-03 0. -1.
         11   -1    0    0    0    0 -0.00000000000E+00 -0.00000000000E+00 -0.45593999997E+02  0.45594000000E+02  0.51100000000E-03 0.  1.
    9900012    2    1    2    0    0 -0.18789114181E+02  0.35344927819E+02  0.71323681687E+01  0.50528863143E+02  0.30000010010E+02 0.  0.
         12    1    1    2    0    0  0.18789114181E+02 -0.35344927819E+02 -0.71323681687E+01  0.40659136857E+02  0.00000000000E+00 0. -1.
         11    1    3    3    0    0 -0.20013674108E+02  0.24715991009E+02 -0.32716239936E+01  0.31970781765E+02  0.51100000000E-03 0. -1.
        -11    1    3    3    0    0  0.22699791465E+01  0.63685808886E+01 -0.52517107420E+00  0.67814034520E+01  0.51100000000E-03 0.  1.
         12    1    3    3    0    0 -0.10454192187E+01  0.42603559222E+01  0.10929163236E+02  0.11776677926E+02  0.00000000000E+00 0. -1.
</event>
<event>
 7    1  0.5748623E-013  0.5052886E+02  0.7816164E-02  0.1300439E+00
        -11   -1    0    0    0    0  0.00000000000E+00  0.00000000000E+00  0.45593999997E+02  0.45594000000E+02  0.51100000000E-03 0.  1.
         11   -1    0    0    0    0 -0.00000000000E+00 -0.00000000000E+00 -0.45593999997E+02  0.45594000000E+02  0.51100000000E-03 0. -1.
    9900012    2    1    2    0    0  0.37341519077E+01 -0.33009500461E+02 -0.23443431169E+02  0.50528862329E+02  0.30000007536E+02 0.  0.
         12    1    1    2    0    0 -0.37341519077E+01  0.33009500461E+02  0.23443431169E+02  0.40659137671E+02  0.00000000000E+00 0. -1.
         11    1    3    3    0    0  0.51924206594E+01 -0.29960942714E+01 -0.15622706245E+02  0.16733402639E+02  0.51100000000E-03 0. -1.
        -11    1    3    3    0    0 -0.16260784984E+01 -0.11955005859E+02  0.33990690812E+01  0.12534750386E+02  0.51100000000E-03 0.  1.
         12    1    3    3    0    0  0.16780974665E+00 -0.18058400331E+02 -0.11219794005E+02  0.21260709305E+02  0.00000000000E+00 0. -1.
</event>
<event>
 7    1  0.5748623E-013  0.5052886E+02  0.7816164E-02  0.1300439E+00
        -11   -1    0    0    0    0  0.00000000000E+00  0.00000000000E+00  0.45593999997E+02  0.45594000000E+02  0.51100000000E-03 0. -1.
         11   -1    0    0    0    0 -0.00000000000E+00 -0.00000000000E+00 -0.45593999997E+02  0.45594000000E+02  0.51100000000E-03 0.  1.
    9900012    2    1    2    0    0  0.29956019325E+02  0.27202273845E+02 -0.39797778985E+01  0.50528862918E+02  0.30000009324E+02 0.  0.
         12    1    1    2    0    0 -0.29956019325E+02 -0.27202273845E+02  0.39797778985E+01  0.40659137082E+02  0.00000000000E+00 0. -1.
         11    1    3    3    0    0 -0.47212415966E+01  0.75621929787E+01 -0.61405381705E+00  0.89361035811E+01  0.51100000000E-03 0. -1.
        -11    1    3    3    0    0  0.31569767781E+02  0.16699881799E+02 -0.64845690833E+01  0.36298566449E+02  0.51100000000E-03 0.  1.
         12    1    3    3    0    0  0.31074931412E+01  0.29401990679E+01  0.31188450019E+01  0.52941928872E+01  0.00000000000E+00 0. -1.
</event>
<event>
 7    1  0.5748623E-013  0.5052886E+02  0.7816164E-02  0.1300439E+00
        -11   -1    0    0    0    0  0.00000000000E+00  0.00000000000E+00  0.45593999997E+02  0.45594000000E+02  0.51100000000E-03 0.  1.
         11   -1    0    0    0    0 -0.00000000000E+00 -0.00000000000E+00 -0.45593999997E+02  0.45594000000E+02  0.51100000000E-03 0. -1.
    9900012    2    1    2    0    0  0.18405590600E+02  0.73956197041E+00  0.36247113937E+02  0.50528856059E+02  0.29999988477E+02 0.  0.
         12    1    1    2    0    0 -0.18405590600E+02 -0.73956197041E+00 -0.36247113937E+02  0.40659143941E+02  0.00000000000E+00 0. -1.
         11    1    3    3    0    0  0.73349665068E+01 -0.15425217874E+01  0.14909213890E+02  0.16687293555E+02  0.51100000000E-03 0. -1.
        -11    1    3    3    0    0  0.94923514779E+01  0.83210802873E+01  0.11092932569E+01  0.12671844598E+02  0.51100000000E-03 0.  1.
        -12    1    3    3    0    0  0.15782726156E+01 -0.60389965296E+01  0.20228606790E+02  0.21169717906E+02  0.00000000000E+00 0.  1.
</event>
<event>
 7    1  0.5748623E-013  0.5052885E+02  0.7816164E-02  0.1300439E+00
        -11   -1    0    0    0    0  0.00000000000E+00  0.00000000000E+00  0.45593999997E+02  0.45594000000E+02  0.51100000000E-03 0. -1.
         11   -1    0    0    0    0 -0.00000000000E+00 -0.00000000000E+00 -0.45593999997E+02  0.45594000000E+02  0.51100000000E-03 0.  1.
    9900012    2    1    2    0    0 -0.21609617448E+02  0.14803319096E+02 -0.31097465168E+02  0.50528853891E+02  0.29999981886E+02 0.  0.
         12    1    1    2    0    0  0.21609617448E+02 -0.14803319096E+02  0.31097465168E+02  0.40659146109E+02  0.00000000000E+00 0. -1.
         11    1    3    3    0    0  0.23324116888E+01  0.41456690062E+01  0.39964405604E+01  0.62127492472E+01  0.51100000000E-03 0. -1.
        -11    1    3    3    0    0 -0.11307594854E+02  0.15271150531E+01 -0.16338591554E+02  0.19928455936E+02  0.51100000000E-03 0.  1.
         12    1    3    3    0    0 -0.12634434283E+02  0.91305350365E+01 -0.18755314174E+02  0.24387648707E+02  0.00000000000E+00 0. -1.
</event>
<event>
 7    1  0.5748623E-013  0.5052887E+02  0.7816164E-02  0.1300439E+00
        -11   -1    0    0    0    0  0.00000000000E+00  0.00000000000E+00  0.45593999997E+02  0.45594000000E+02  0.51100000000E-03 0.  1.
         11   -1    0    0    0    0 -0.00000000000E+00 -0.00000000000E+00 -0.45593999997E+02  0.45594000000E+02  0.51100000000E-03 0. -1.
    9900012    2    1    2    0    0  0.28687541109E+02 -0.87693369846E+01  0.27446108915E+02  0.50528865964E+02  0.30000018583E+02 0.  0.
         12    1    1    2    0    0 -0.28687541109E+02  0.87693369846E+01 -0.27446108915E+02  0.40659134036E+02  0.00000000000E+00 0. -1.
         11    1    3    3    0    0  0.94825836543E+01  0.10791195656E+01  0.69958018234E+01  0.11833221675E+02  0.51100000000E-03 0. -1.
        -11    1    3    3    0    0  0.16707914177E+02 -0.17653819612E+02  0.17636614928E+02  0.30031016123E+02  0.51100000000E-03 0.  1.
        -12    1    3    3    0    0  0.24970432777E+01  0.78053630615E+01  0.28136921632E+01  0.86646281652E+01  0.00000000000E+00 0.  1.
</event>
<event>
 7    1  0.5748623E-013  0.5052889E+02  0.7816164E-02  0.1300439E+00
        -11   -1    0    0    0    0  0.00000000000E+00  0.00000000000E+00  0.45593999997E+02  0.45594000000E+02  0.51100000000E-03 0. -1.
         11   -1    0    0    0    0 -0.00000000000E+00 -0.00000000000E+00 -0.45593999997E+02  0.45594000000E+02  0.51100000000E-03 0.  1.
    9900012    2    1    2    0    0 -0.20681070638E+02  0.34875521453E+02 -0.30256854018E+01  0.50528887226E+02  0.30000083213E+02 0.  0.
         12    1    1    2    0    0  0.20681070638E+02 -0.34875521453E+02  0.30256854018E+01  0.40659112774E+02  0.00000000000E+00 0. -1.
         11    1    3    3    0    0  0.26943991205E+01  0.12973384915E+00  0.62066895284E+01  0.67675411085E+01  0.51100000000E-03 0. -1.
        -11    1    3    3    0    0 -0.19246736412E+02  0.23257251518E+02 -0.91802022765E+01  0.31553331437E+02  0.51100000000E-03 0.  1.
        -12    1    3    3    0    0 -0.41287333464E+01  0.11488536086E+02 -0.52172653639E-01  0.12208014680E+02  0.00000000000E+00 0.  1.
</event>
<event>
 7    1  0.5748623E-013  0.5052886E+02  0.7816164E-02  0.1300439E+00
        -11   -1    0    0    0    0  0.00000000000E+00  0.00000000000E+00  0.45593999997E+02  0.45594000000E+02  0.51100000000E-03 0.  1.
         11   -1    0    0    0    0 -0.00000000000E+00 -0.00000000000E+00 -0.45593999997E+02  0.45594000000E+02  0.51100000000E-03 0. -1.
    9900012    2    1    2    0    0 -0.59671291372E+01  0.39031431910E+02 -0.97008396696E+01  0.50528860838E+02  0.30000003004E+02 0.  0.
         12    1    1    2    0    0  0.59671291372E+01 -0.39031431910E+02  0.97008396696E+01  0.40659139162E+02  0.00000000000E+00 0. -1.
         11    1    3    3    0    0 -0.14122653162E+02  0.13118861984E+02 -0.84298171486E+01  0.21038433628E+02  0.51100000000E-03 0. -1.
        -11    1    3    3    0    0  0.59494054290E+01  0.35403315576E+01  0.49260175407E+00  0.69406072678E+01  0.51100000000E-03 0.  1.
        -12    1    3    3    0    0  0.22061185957E+01  0.22372238368E+02 -0.17636242751E+01  0.22549819942E+02  0.00000000000E+00 0.  1.
</event>
<event>
 7    1  0.5748623E-013  0.5052886E+02  0.7816164E-02  0.1300439E+00
        -11   -1    0    0    0    0  0.00000000000E+00  0.00000000000E+00  0.45593999997E+02  0.45594000000E+02  0.51100000000E-03 0.  1.
         11   -1    0    0    0    0 -0.00000000000E+00 -0.00000000000E+00 -0.45593999997E+02  0.45594000000E+02  0.51100000000E-03 0. -1.
    9900012    2    1    2    0    0 -0.36971586423E+01  0.24368324875E+02  0.32336997005E+02  0.50528860627E+02  0.30000002361E+02 0.  0.
         12    1    1    2    0    0  0.36971586423E+01 -0.24368324875E+02 -0.32336997005E+02  0.40659139373E+02  0.00000000000E+00 0. -1.
         11    1    3    3    0    0 -0.14955791015E+02  0.44319260257E+01  0.11048907127E+02  0.19115334215E+02  0.51100000000E-03 0. -1.
        -11    1    3    3    0    0  0.86376474241E+01  0.13703254506E+02  0.16542841205E+02  0.23152834221E+02  0.51100000000E-03 0.  1.
         12    1    3    3    0    0  0.26209849484E+01  0.62331443436E+01  0.47452486735E+01  0.82606921914E+01  0.00000000000E+00 0. -1.
</event>
<event>
 7    1  0.5748623E-013  0.5052888E+02  0.7816164E-02  0.1300439E+00
        -11   -1    0    0    0    0  0.00000000000E+00  0.00000000000E+00  0.45593999997E+02  0.45594000000E+02  0.51100000000E-03 0. -1.
         11   -1    0    0    0    0 -0.00000000000E+00 -0.00000000000E+00 -0.45593999997E+02  0.45594000000E+02  0.51100000000E-03 0.  1.
    9900012    2    1    2    0    0  0.37139141554E+02 -0.16543228272E+02  0.41200423915E+00  0.50528880672E+02  0.30000063291E+02 0.  0.
         12    1    1    2    0    0 -0.37139141554E+02  0.16543228272E+02 -0.41200423915E+00  0.40659119328E+02  0.00000000000E+00 0. -1.
         11    1    3    3    0    0  0.15366136425E+02 -0.16258506828E+02  0.11940033853E+02  0.25357870604E+02  0.51100000000E-03 0. -1.
        -11    1    3    3    0    0  0.47288202311E+01  0.63786256495E-01 -0.26101416531E+00  0.47364478378E+01  0.51100000000E-03 0.  1.
         12    1    3    3    0    0  0.17044184898E+02 -0.34850770060E+00 -0.11267015448E+02  0.20434562231E+02  0.00000000000E+00 0. -1.
</event>
<event>
 7    1  0.5748623E-013  0.5052884E+02  0.7816164E-02  0.1300439E+00
        -11   -1    0    0    0    0  0.00000000000E+00  0.00000000000E+00  0.45593999997E+02  0.45594000000E+02  0.51100000000E-03 0. -1.
         11   -1    0    0    0    0 -0.00000000000E+00 -0.00000000000E+00 -0.45593999997E+02  0.45594000000E+02  0.51100000000E-03 0.  1.
    9900012    2    1    2    0    0  0.40674847751E+00  0.31174112607E+02 -0.26099356607E+02  0.50528841665E+02  0.29999944726E+02 0.  0.
         12    1    1    2    0    0 -0.40674847751E+00 -0.31174112607E+02  0.26099356607E+02  0.40659158335E+02  0.00000000000E+00 0. -1.
         11    1    3    3    0    0  0.12370582812E+02  0.15313181461E+02 -0.51187845327E+01  0.20340275340E+02  0.51100000000E-03 0. -1.
        -11    1    3    3    0    0 -0.73363393097E+01  0.94818321219E+01 -0.18274777184E+02  0.21856223284E+02  0.51100000000E-03 0.  1.
         12    1    3    3    0    0 -0.46274950248E+01  0.63790990247E+01 -0.27057948902E+01  0.83323430414E+01  0.00000000000E+00 0. -1.
</event>
<event>
 7    1  0.5748623E-013  0.5052886E+02  0.7816164E-02  0.1300439E+00
        -11   -1    0    0    0    0  0.00000000000E+00  0.00000000000E+00  0.45593999997E+02  0.45594000000E+02  0.51100000000E-03 0. -1.
         11   -1    0    0    0    0 -0.00000000000E+00 -0.00000000000E+00 -0.45593999997E+02  0.45594000000E+02  0.51100000000E-03 0.  1.
    9900012    2    1    2    0    0 -0.19497657253E+02 -0.35269923443E+02  0.53888220467E+01  0.50528861531E+02  0.30000005109E+02 0.  0.
         12    1    1    2    0    0  0.19497657253E+02  0.35269923443E+02 -0.53888220467E+01  0.40659138469E+02  0.00000000000E+00 0. -1.
         11    1    3    3    0    0 -0.96544534749E+01 -0.80377515307E+01  0.10928629780E+02  0.16650791894E+02  0.51100000000E-03 0. -1.
        -11    1    3    3    0    0 -0.79713938682E+01 -0.27110616475E+02 -0.24337918496E+00  0.28259297223E+02  0.51100000000E-03 0.  1.
         12    1    3    3    0    0 -0.18718099097E+01 -0.12155543668E+00 -0.52964285485E+01  0.56187724132E+01  0.00000000000E+00 0. -1.
</event>
<event>
 7    1  0.5748623E-013  0.5052887E+02  0.7816164E-02  0.1300439E+00
        -11   -1    0    0    0    0  0.00000000000E+00  0.00000000000E+00  0.45593999997E+02  0.45594000000E+02  0.51100000000E-03 0.  1.
         11   -1    0    0    0    0 -0.00000000000E+00 -0.00000000000E+00 -0.45593999997E+02  0.45594000000E+02  0.51100000000E-03 0. -1.
    9900012    2    1    2    0    0  0.30399857827E+02  0.26714752369E+02 -0.39160760480E+01  0.50528868164E+02  0.30000025270E+02 0.  0.
         12    1    1    2    0    0 -0.30399857827E+02 -0.26714752369E+02  0.39160760480E+01  0.40659131836E+02  0.00000000000E+00 0. -1.
         11    1    3    3    0    0  0.22878834218E+02  0.14668806777E+02  0.92577103828E+01  0.28710976111E+02  0.51100000000E-03 0. -1.
        -11    1    3    3    0    0  0.21875087027E+01  0.49367262128E+01  0.59239527928E+00  0.54320707334E+01  0.51100000000E-03 0.  1.
         12    1    3    3    0    0  0.53335149064E+01  0.71092193798E+01 -0.13766181710E+02  0.16385821320E+02  0.00000000000E+00 0. -1.
</event>
<event>
 7    1  0.5748623E-013  0.5052886E+02  0.7816164E-02  0.1300439E+00
        -11   -1    0    0    0    0  0.00000000000E+00  0.00000000000E+00  0.45593999997E+02  0.45594000000E+02  0.51100000000E-03 0.  1.
         11   -1    0    0    0    0 -0.00000000000E+00 -0.00000000000E+00 -0.45593999997E+02  0.45594000000E+02  0.51100000000E-03 0. -1.
    9900012    2    1    2    0    0  0.73592912121E+00 -0.19755520059E+02  0.35529473666E+02  0.50528860026E+02  0.30000000534E+02 0.  0.
         12    1    1    2    0    0 -0.73592912121E+00  0.19755520059E+02 -0.35529473666E+02  0.40659139974E+02  0.00000000000E+00 0. -1.
         11    1    3    3    0    0  0.56644062981E+00  0.31656136982E+01 -0.22543599357E+01  0.39273533141E+01  0.51100000000E-03 0. -1.
        -11    1    3    3    0    0 -0.49782911030E+01 -0.14210636167E+02  0.30871408036E+02  0.34347771354E+02  0.51100000000E-03 0.  1.
        -12    1    3    3    0    0  0.51477795944E+01 -0.87104975901E+01  0.69124255659E+01  0.12253735358E+02  0.00000000000E+00 0.  1.
</event>
<event>
 7    1  0.5748623E-013  0.5052886E+02  0.7816164E-02  0.1300439E+00
        -11   -1    0    0    0    0  0.00000000000E+00  0.00000000000E+00  0.45593999997E+02  0.45594000000E+02  0.51100000000E-03 0.  1.
         11   -1    0    0    0    0 -0.00000000000E+00 -0.00000000000E+00 -0.45593999997E+02  0.45594000000E+02  0.51100000000E-03 0. -1.
    9900012    2    1    2    0    0 -0.89895952820E+01  0.25577417661E+02  0.30300965848E+02  0.50528860206E+02  0.30000001081E+02 0.  0.
         12    1    1    2    0    0  0.89895952820E+01 -0.25577417661E+02 -0.30300965848E+02  0.40659139794E+02  0.00000000000E+00 0. -1.
         11    1    3    3    0    0 -0.23856957185E+01  0.55347609257E+01  0.48851436098E+01  0.77582053927E+01  0.51100000000E-03 0. -1.
        -11    1    3    3    0    0  0.10057372497E+02  0.12647258854E+02  0.11367105583E+02  0.19756391059E+02  0.51100000000E-03 0.  1.
        -12    1    3    3    0    0 -0.16661272061E+02  0.73953978808E+01  0.14048716655E+02  0.23014263754E+02  0.00000000000E+00 0.  1.
</event>
<event>
 7    1  0.5748623E-013  0.5052885E+02  0.7816164E-02  0.1300439E+00
        -11   -1    0    0    0    0  0.00000000000E+00  0.00000000000E+00  0.45593999997E+02  0.45594000000E+02  0.51100000000E-03 0.  1.
         11   -1    0    0    0    0 -0.00000000000E+00 -0.00000000000E+00 -0.45593999997E+02  0.45594000000E+02  0.51100000000E-03 0. -1.
    9900012    2    1    2    0    0  0.35117918442E+02 -0.55946268890E+01 -0.19712892879E+02  0.50528853533E+02  0.29999980799E+02 0.  0.
         12    1    1    2    0    0 -0.35117918442E+02  0.55946268890E+01  0.19712892879E+02  0.40659146467E+02  0.00000000000E+00 0. -1.
         11    1    3    3    0    0  0.88921522354E+01  0.47896111363E+01 -0.15090276420E+01  0.10212145264E+02  0.51100000000E-03 0. -1.
        -11    1    3    3    0    0  0.38709879663E+01 -0.37684190450E+01 -0.16014216813E+02  0.16900907382E+02  0.51100000000E-03 0.  1.
        -12    1    3    3    0    0  0.22354778241E+02 -0.66158189803E+01 -0.21896484246E+01  0.23415800887E+02  0.00000000000E+00 0.  1.
</event>
<event>
 7    1  0.5748623E-013  0.5052887E+02  0.7816164E-02  0.1300439E+00
        -11   -1    0    0    0    0  0.00000000000E+00  0.00000000000E+00  0.45593999997E+02  0.45594000000E+02  0.51100000000E-03 0.  1.
         11   -1    0    0    0    0 -0.00000000000E+00 -0.00000000000E+00 -0.45593999997E+02  0.45594000000E+02  0.51100000000E-03 0. -1.
    9900012    2    1    2    0    0 -0.26526965379E+02  0.41368698904E+01  0.30534758676E+02  0.50528867297E+02  0.30000022637E+02 0.  0.
         12    1    1    2    0    0  0.26526965379E+02 -0.41368698904E+01 -0.30534758676E+02  0.40659132703E+02  0.00000000000E+00 0. -1.
         11    1    3    3    0    0  0.60610762670E+00  0.49524173244E+01  0.66690296357E+01  0.83288510824E+01  0.51100000000E-03 0. -1.
        -11    1    3    3    0    0 -0.18140277843E+02  0.86034585487E+01  0.78479184722E+01  0.21556414447E+02  0.51100000000E-03 0.  1.
        -12    1    3    3    0    0 -0.89927951624E+01 -0.94190059827E+01  0.16017810569E+02  0.20643601768E+02  0.00000000000E+00 0.  1.
</event>
<event>
 7    1  0.5748623E-013  0.5052886E+02  0.7816164E-02  0.1300439E+00
        -11   -1    0    0    0    0  0.00000000000E+00  0.00000000000E+00  0.45593999997E+02  0.45594000000E+02  0.51100000000E-03 0. -1.
         11   -1    0    0    0    0 -0.00000000000E+00 -0.00000000000E+00 -0.45593999997E+02  0.45594000000E+02  0.51100000000E-03 0.  1.
    9900012    2    1    2    0    0  0.25749607508E+02  0.31267829346E+02 -0.35278980692E+01  0.50528861991E+02  0.30000006508E+02 0.  0.
         12    1    1    2    0    0 -0.25749607508E+02 -0.31267829346E+02  0.35278980692E+01  0.40659138009E+02  0.00000000000E+00 0. -1.
         11    1    3    3    0    0  0.22158764899E+02  0.17766698250E+02  0.10869644477E+01  0.28422665612E+02  0.51100000000E-03 0.  1.
        -11    1    3    3    0    0 -0.41708357816E+01 -0.16907348980E+01 -0.16339770164E+01  0.47879365873E+01  0.51100000000E-03 0. -1.
         12    1    3    3    0    0  0.77616783908E+01  0.15191865994E+02 -0.29808855005E+01  0.17318259791E+02  0.00000000000E+00 0. -1.
</event>
<event>
 7    1  0.5748623E-013  0.5052887E+02  0.7816164E-02  0.1300439E+00
        -11   -1    0    0    0    0  0.00000000000E+00  0.00000000000E+00  0.45593999997E+02  0.45594000000E+02  0.51100000000E-03 0.  1.
         11   -1    0    0    0    0 -0.00000000000E+00 -0.00000000000E+00 -0.45593999997E+02  0.45594000000E+02  0.51100000000E-03 0. -1.
    9900012    2    1    2    0    0 -0.34857314519E+02  0.57624737345E+01  0.20122775158E+02  0.50528873607E+02  0.30000041814E+02 0.  0.
         12    1    1    2    0    0  0.34857314519E+02 -0.57624737345E+01 -0.20122775158E+02  0.40659126393E+02  0.00000000000E+00 0. -1.
         11    1    3    3    0    0 -0.12591016364E+02  0.95644079783E+01  0.87488447587E+01  0.18070801807E+02  0.51100000000E-03 0.  1.
        -11    1    3    3    0    0 -0.10096229777E+02 -0.11895060638E+02  0.40957711993E+01  0.16130767659E+02  0.51100000000E-03 0. -1.
         12    1    3    3    0    0 -0.12170068378E+02  0.80931263946E+01  0.72781591999E+01  0.16327304141E+02  0.00000000000E+00 0. -1.
</event>
<event>
 7    1  0.5748623E-013  0.5052885E+02  0.7816164E-02  0.1300439E+00
        -11   -1    0    0    0    0  0.00000000000E+00  0.00000000000E+00  0.45593999997E+02  0.45594000000E+02  0.51100000000E-03 0.  1.
         11   -1    0    0    0    0 -0.00000000000E+00 -0.00000000000E+00 -0.45593999997E+02  0.45594000000E+02  0.51100000000E-03 0. -1.
    9900012    2    1    2    0    0 -0.34992398770E+02 -0.20596098419E+02  0.21210525560E+01  0.50528854587E+02  0.29999984001E+02 0.  0.
         12    1    1    2    0    0  0.34992398770E+02  0.20596098419E+02 -0.21210525560E+01  0.40659145413E+02  0.00000000000E+00 0. -1.
         11    1    3    3    0    0 -0.13139811481E+02 -0.35318294141E+01 -0.12851132574E+02  0.18715770715E+02  0.51100000000E-03 0. -1.
        -11    1    3    3    0    0 -0.20910578976E+02 -0.14966735662E+02  0.13167655673E+02  0.28890182514E+02  0.51100000000E-03 0.  1.
         12    1    3    3    0    0 -0.94200831297E+00 -0.20975333437E+01  0.18045294561E+01  0.29229013579E+01  0.00000000000E+00 0. -1.
</event>
<event>
 7    1  0.5748623E-013  0.5052886E+02  0.7816164E-02  0.1300439E+00
        -11   -1    0    0    0    0  0.00000000000E+00  0.00000000000E+00  0.45593999997E+02  0.45594000000E+02  0.51100000000E-03 0. -1.
         11   -1    0    0    0    0 -0.00000000000E+00 -0.00000000000E+00 -0.45593999997E+02  0.45594000000E+02  0.51100000000E-03 0.  1.
    9900012    2    1    2    0    0  0.25135851473E+02  0.31750736494E+02 -0.36394293024E+01  0.50528859049E+02  0.29999997566E+02 0.  0.
         12    1    1    2    0    0 -0.25135851473E+02 -0.31750736494E+02  0.36394293024E+01  0.40659140951E+02  0.00000000000E+00 0. -1.
         11    1    3    3    0    0 -0.14028207858E+00  0.33942771394E+00 -0.63565882275E+01  0.63671896775E+01  0.51100000000E-03 0. -1.
        -11    1    3    3    0    0  0.62588323476E+01  0.10035255464E+02  0.90083748825E+01  0.14867082864E+02  0.51100000000E-03 0.  1.
        -12    1    3    3    0    0  0.19017301204E+02  0.21376053316E+02 -0.62912159574E+01  0.29294586508E+02  0.00000000000E+00 0.  1.
</event>
<event>
 7    1  0.5748623E-013  0.5052885E+02  0.7816164E-02  0.1300439E+00
        -11   -1    0    0    0    0  0.00000000000E+00  0.00000000000E+00  0.45593999997E+02  0.45594000000E+02  0.51100000000E-03 0. -1.
         11   -1    0    0    0    0 -0.00000000000E+00 -0.00000000000E+00 -0.45593999997E+02  0.45594000000E+02  0.51100000000E-03 0.  1.
    9900012    2    1    2    0    0 -0.76786085164E+01 -0.31629134294E+02 -0.24368079697E+02  0.50528850070E+02  0.29999970273E+02 0.  0.
         12    1    1    2    0    0  0.76786085164E+01  0.31629134294E+02  0.24368079697E+02  0.40659149930E+02  0.00000000000E+00 0. -1.
         11    1    3    3    0    0 -0.78687475269E+01 -0.57120059495E+01  0.38938177033E+01  0.10474063976E+02  0.51100000000E-03 0. -1.
        -11    1    3    3    0    0  0.48506693857E+01 -0.92919584490E+01 -0.14923001309E+02  0.18236377207E+02  0.51100000000E-03 0.  1.
         12    1    3    3    0    0 -0.46605303752E+01 -0.16625169895E+02 -0.13338896090E+02  0.21818408887E+02  0.00000000000E+00 0. -1.
</event>
<event>
 7    1  0.5748623E-013  0.5052886E+02  0.7816164E-02  0.1300439E+00
        -11   -1    0    0    0    0  0.00000000000E+00  0.00000000000E+00  0.45593999997E+02  0.45594000000E+02  0.51100000000E-03 0.  1.
         11   -1    0    0    0    0 -0.00000000000E+00 -0.00000000000E+00 -0.45593999997E+02  0.45594000000E+02  0.51100000000E-03 0. -1.
    9900012    2    1    2    0    0  0.23432046145E+02  0.15779388407E+02  0.29242361771E+02  0.50528860720E+02  0.30000002644E+02 0.  0.
         12    1    1    2    0    0 -0.23432046145E+02 -0.15779388407E+02 -0.29242361771E+02  0.40659139280E+02  0.00000000000E+00 0. -1.
         11    1    3    3    0    0 -0.54466595961E+01  0.69361129849E+01  0.36712504242E+01  0.95526877911E+01  0.51100000000E-03 0. -1.
        -11    1    3    3    0    0  0.24374768712E+02  0.10256717974E+02  0.17778896956E+02  0.31865636517E+02  0.51100000000E-03 0.  1.
         12    1    3    3    0    0  0.45039370297E+01 -0.14134425523E+01  0.77922143903E+01  0.91105364123E+01  0.00000000000E+00 0. -1.
</event>
<event>
 7    1  0.5748623E-013  0.5052887E+02  0.7816164E-02  0.1300439E+00
        -11   -1    0    0    0    0  0.00000000000E+00  0.00000000000E+00  0.45593999997E+02  0.45594000000E+02  0.51100000000E-03 0.  1.
         11   -1    0    0    0    0 -0.00000000000E+00 -0.00000000000E+00 -0.45593999997E+02  0.45594000000E+02  0.51100000000E-03 0. -1.
    9900012    2    1    2    0    0  0.12572677325E+02  0.15408678242E+01  0.38635718622E+02  0.50528865205E+02  0.30000016278E+02 0.  0.
         12    1    1    2    0    0 -0.12572677325E+02 -0.15408678242E+01 -0.38635718622E+02  0.40659134795E+02  0.00000000000E+00 0. -1.
         11    1    3    3    0    0  0.10031127628E+02  0.11814207087E+02  0.90691553189E+01  0.17956853540E+02  0.51100000000E-03 0. -1.
        -11    1    3    3    0    0  0.19635058605E-01 -0.69409158200E+01  0.79432438794E+01  0.10548545945E+02  0.51100000000E-03 0.  1.
        -12    1    3    3    0    0  0.25219146386E+01 -0.33324234430E+01  0.21623319424E+02  0.22023465721E+02  0.00000000000E+00 0.  1.
</event>
<event>
 7    1  0.5748623E-013  0.5052889E+02  0.7816164E-02  0.1300439E+00
        -11   -1    0    0    0    0  0.00000000000E+00  0.00000000000E+00  0.45593999997E+02  0.45594000000E+02  0.51100000000E-03 0.  1.
         11   -1    0    0    0    0 -0.00000000000E+00 -0.00000000000E+00 -0.45593999997E+02  0.45594000000E+02  0.51100000000E-03 0. -1.
    9900012    2    1    2    0    0 -0.21885284264E+02 -0.21463242287E+01  0.34199285301E+02  0.50528886752E+02  0.30000081773E+02 0.  0.
         12    1    1    2    0    0  0.21885284264E+02  0.21463242287E+01 -0.34199285301E+02  0.40659113248E+02  0.00000000000E+00 0. -1.
         11    1    3    3    0    0 -0.15984076723E+02 -0.47535095060E+00  0.13329093403E+02  0.20817814449E+02  0.51100000000E-03 0. -1.
        -11    1    3    3    0    0  0.46954458655E+01 -0.51917653885E+01  0.16124062874E+02  0.17578027294E+02  0.51100000000E-03 0.  1.
        -12    1    3    3    0    0 -0.10596653406E+02  0.35207921104E+01  0.47461290233E+01  0.12133045009E+02  0.00000000000E+00 0.  1.
</event>
<event>
 7    1  0.5748623E-013  0.5052886E+02  0.7816164E-02  0.1300439E+00
        -11   -1    0    0    0    0  0.00000000000E+00  0.00000000000E+00  0.45593999997E+02  0.45594000000E+02  0.51100000000E-03 0.  1.
         11   -1    0    0    0    0 -0.00000000000E+00 -0.00000000000E+00 -0.45593999997E+02  0.45594000000E+02  0.51100000000E-03 0. -1.
    9900012    2    1    2    0    0 -0.13682220881E+02  0.85571207849E+01  0.37319412216E+02  0.50528855733E+02  0.29999987487E+02 0.  0.
         12    1    1    2    0    0  0.13682220881E+02 -0.85571207849E+01 -0.37319412216E+02  0.40659144267E+02  0.00000000000E+00 0. -1.
         11    1    3    3    0    0 -0.14211758542E+02 -0.82178369115E+00  0.22505451904E+02  0.26629772341E+02  0.51100000000E-03 0. -1.
        -11    1    3    3    0    0 -0.24606191735E+01  0.11324310739E+02  0.36052749063E+01  0.12136419070E+02  0.51100000000E-03 0.  1.
        -12    1    3    3    0    0  0.29901568344E+01 -0.19454062633E+01  0.11208685406E+02  0.11762664322E+02  0.00000000000E+00 0.  1.
</event>
<event>
 7    1  0.5748623E-013  0.5052886E+02  0.7816164E-02  0.1300439E+00
        -11   -1    0    0    0    0  0.00000000000E+00  0.00000000000E+00  0.45593999997E+02  0.45594000000E+02  0.51100000000E-03 0.  1.
         11   -1    0    0    0    0 -0.00000000000E+00 -0.00000000000E+00 -0.45593999997E+02  0.45594000000E+02  0.51100000000E-03 0. -1.
    9900012    2    1    2    0    0  0.28400276984E+01  0.56935503913E+01  0.40158228310E+02  0.50528861121E+02  0.30000003864E+02 0.  0.
         12    1    1    2    0    0 -0.28400276984E+01 -0.56935503913E+01 -0.40158228310E+02  0.40659138879E+02  0.00000000000E+00 0. -1.
         11    1    3    3    0    0  0.61028962520E+01 -0.42557252131E+01  0.17500095484E+01  0.76432371043E+01  0.51100000000E-03 0.  1.
        -11    1    3    3    0    0 -0.69396716716E+01  0.57706074213E+01  0.82818766904E+01  0.12249425893E+02  0.51100000000E-03 0. -1.
        -12    1    3    3    0    0  0.36768031180E+01  0.41786681831E+01  0.30126342071E+02  0.30636198124E+02  0.00000000000E+00 0.  1.
</event>
<event>
 7    1  0.5748623E-013  0.5052886E+02  0.7816164E-02  0.1300439E+00
        -11   -1    0    0    0    0  0.00000000000E+00  0.00000000000E+00  0.45593999997E+02  0.45594000000E+02  0.51100000000E-03 0. -1.
         11   -1    0    0    0    0 -0.00000000000E+00 -0.00000000000E+00 -0.45593999997E+02  0.45594000000E+02  0.51100000000E-03 0.  1.
    9900012    2    1    2    0    0 -0.20809829194E+02  0.27291362329E+02 -0.21801341362E+02  0.50528856699E+02  0.29999990421E+02 0.  0.
         12    1    1    2    0    0  0.20809829194E+02 -0.27291362329E+02  0.21801341362E+02  0.40659143301E+02  0.00000000000E+00 0. -1.
         11    1    3    3    0    0  0.12432626664E+01 -0.65553319250E+00  0.50182794612E+01  0.52113870357E+01  0.51100000000E-03 0. -1.
        -11    1    3    3    0    0 -0.17246259750E+02  0.15752031208E+02 -0.15879564629E+02  0.28243946885E+02  0.51100000000E-03 0.  1.
         12    1    3    3    0    0 -0.48068321102E+01  0.12194864313E+02 -0.10940056194E+02  0.17073522778E+02  0.00000000000E+00 0. -1.
</event>
<event>
 7    1  0.5748623E-013  0.5052886E+02  0.7816164E-02  0.1300439E+00
        -11   -1    0    0    0    0  0.00000000000E+00  0.00000000000E+00  0.45593999997E+02  0.45594000000E+02  0.51100000000E-03 0.  1.
         11   -1    0    0    0    0 -0.00000000000E+00 -0.00000000000E+00 -0.45593999997E+02  0.45594000000E+02  0.51100000000E-03 0. -1.
    9900012    2    1    2    0    0 -0.11657312984E+02  0.30797361438E+02  0.23849433654E+02  0.50528857078E+02  0.29999991573E+02 0.  0.
         12    1    1    2    0    0  0.11657312984E+02 -0.30797361438E+02 -0.23849433654E+02  0.40659142922E+02  0.00000000000E+00 0. -1.
         11    1    3    3    0    0  0.44892835869E+01  0.48269498295E+01  0.15706196486E+02  0.17033429487E+02  0.51100000000E-03 0. -1.
        -11    1    3    3    0    0 -0.11255276091E+02  0.22427981017E+02  0.24796844971E+01  0.25215955422E+02  0.51100000000E-03 0.  1.
         12    1    3    3    0    0 -0.48913204794E+01  0.35424305920E+01  0.56635526708E+01  0.82794721683E+01  0.00000000000E+00 0. -1.
</event>
<event>
 7    1  0.5748623E-013  0.5052886E+02  0.7816164E-02  0.1300439E+00
        -11   -1    0    0    0    0  0.00000000000E+00  0.00000000000E+00  0.45593999997E+02  0.45594000000E+02  0.51100000000E-03 0.  1.
         11   -1    0    0    0    0 -0.00000000000E+00 -0.00000000000E+00 -0.45593999997E+02  0.45594000000E+02  0.51100000000E-03 0. -1.
    9900012    2    1    2    0    0  0.29960830278E+02 -0.26993502640E+02  0.51831491717E+01  0.50528861162E+02  0.30000003987E+02 0.  0.
         12    1    1    2    0    0 -0.29960830278E+02  0.26993502640E+02 -0.51831491717E+01  0.40659138838E+02  0.00000000000E+00 0. -1.
         11    1    3    3    0    0  0.88474698995E+01 -0.16472366633E+02 -0.34408097078E+01  0.19011989844E+02  0.51100000000E-03 0. -1.
        -11    1    3    3    0    0  0.14282595011E+02  0.17927215698E+01  0.97569830904E+01  0.17389798451E+02  0.51100000000E-03 0.  1.
        -12    1    3    3    0    0  0.68307653676E+01 -0.12313857577E+02 -0.11330242109E+01  0.14127072868E+02  0.00000000000E+00 0.  1.
</event>
<event>
 7    1  0.5748623E-013  0.5052887E+02  0.7816164E-02  0.1300439E+00
        -11   -1    0    0    0    0  0.00000000000E+00  0.00000000000E+00  0.45593999997E+02  0.45594000000E+02  0.51100000000E-03 0.  1.
         11   -1    0    0    0    0 -0.00000000000E+00 -0.00000000000E+00 -0.45593999997E+02  0.45594000000E+02  0.51100000000E-03 0. -1.
    9900012    2    1    2    0    0  0.26522254584E+01  0.32590704591E+02  0.24165605524E+02  0.50528870447E+02  0.30000032211E+02 0.  0.
         12    1    1    2    0    0 -0.26522254584E+01 -0.32590704591E+02 -0.24165605524E+02  0.40659129553E+02  0.00000000000E+00 0. -1.
         11    1    3    3    0    0  0.87637976078E+01  0.74014925178E+01  0.15407851091E+02  0.19209063369E+02  0.51100000000E-03 0. -1.
        -11    1    3    3    0    0 -0.92654967469E+01  0.71186637714E+01  0.42207134348E+01  0.12423333933E+02  0.51100000000E-03 0.  1.
        -12    1    3    3    0    0  0.31539245975E+01  0.18070548302E+02  0.45370409982E+01  0.18896473145E+02  0.00000000000E+00 0.  1.
</event>
<event>
 7    1  0.5748623E-013  0.5052887E+02  0.7816164E-02  0.1300439E+00
        -11   -1    0    0    0    0  0.00000000000E+00  0.00000000000E+00  0.45593999997E+02  0.45594000000E+02  0.51100000000E-03 0.  1.
         11   -1    0    0    0    0 -0.00000000000E+00 -0.00000000000E+00 -0.45593999997E+02  0.45594000000E+02  0.51100000000E-03 0. -1.
    9900012    2    1    2    0    0  0.34520014753E+02 -0.16711095854E+02  0.13500851190E+02  0.50528866634E+02  0.30000020622E+02 0.  0.
         12    1    1    2    0    0 -0.34520014753E+02  0.16711095854E+02 -0.13500851190E+02  0.40659133366E+02  0.00000000000E+00 0. -1.
         11    1    3    3    0    0  0.57159389957E+01  0.62708230176E+01  0.97510083870E+01  0.12925840195E+02  0.51100000000E-03 0. -1.
        -11    1    3    3    0    0  0.39805015257E+01 -0.61232306060E+01 -0.37942054953E+00  0.73131597593E+01  0.51100000000E-03 0.  1.
         12    1    3    3    0    0  0.24823574232E+02 -0.16858688265E+02  0.41292633521E+01  0.30289866680E+02  0.00000000000E+00 0. -1.
</event>
<event>
 7    1  0.5748623E-013  0.5052887E+02  0.7816164E-02  0.1300439E+00
        -11   -1    0    0    0    0  0.00000000000E+00  0.00000000000E+00  0.45593999997E+02  0.45594000000E+02  0.51100000000E-03 0.  1.
         11   -1    0    0    0    0 -0.00000000000E+00 -0.00000000000E+00 -0.45593999997E+02  0.45594000000E+02  0.51100000000E-03 0. -1.
    9900012    2    1    2    0    0 -0.23036304084E+02  0.31352953185E+02  0.11810412308E+02  0.50528870420E+02  0.30000032130E+02 0.  0.
         12    1    1    2    0    0  0.23036304084E+02 -0.31352953185E+02 -0.11810412308E+02  0.40659129580E+02  0.00000000000E+00 0. -1.
         11    1    3    3    0    0 -0.16071776521E+02  0.13303753322E+01  0.99520077159E+01  0.18950312845E+02  0.51100000000E-03 0. -1.
        -11    1    3    3    0    0 -0.24881147124E+01  0.49670464552E+01 -0.18548445235E+01  0.58568518657E+01  0.51100000000E-03 0.  1.
         12    1    3    3    0    0 -0.44764128501E+01  0.25055531398E+02  0.37132491161E+01  0.25721705710E+02  0.00000000000E+00 0. -1.
</event>
<event>
 7    1  0.5748623E-013  0.5052886E+02  0.7816164E-02  0.1300439E+00
        -11   -1    0    0    0    0  0.00000000000E+00  0.00000000000E+00  0.45593999997E+02  0.45594000000E+02  0.51100000000E-03 0.  1.
         11   -1    0    0    0    0 -0.00000000000E+00 -0.00000000000E+00 -0.45593999997E+02  0.45594000000E+02  0.51100000000E-03 0. -1.
    9900012    2    1    2    0    0 -0.19008402011E+02 -0.28485461447E+02  0.21918598893E+02  0.50528857876E+02  0.29999994000E+02 0.  0.
         12    1    1    2    0    0  0.19008402011E+02  0.28485461447E+02 -0.21918598893E+02  0.40659142124E+02  0.00000000000E+00 0. -1.
         11    1    3    3    0    0 -0.16689477574E+02 -0.30603426742E+02  0.74295516347E+01  0.35641361194E+02  0.51100000000E-03 0. -1.
        -11    1    3    3    0    0 -0.16756661755E+01  0.73668701270E+00  0.64202422686E+01  0.66760823793E+01  0.51100000000E-03 0.  1.
         12    1    3    3    0    0 -0.64325826110E+00  0.13812782821E+01  0.80688049897E+01  0.82114143023E+01  0.00000000000E+00 0. -1.
</event>
<event>
 7    1  0.5748623E-013  0.5052884E+02  0.7816164E-02  0.1300439E+00
        -11   -1    0    0    0    0  0.00000000000E+00  0.00000000000E+00  0.45593999997E+02  0.45594000000E+02  0.51100000000E-03 0. -1.
         11   -1    0    0    0    0 -0.00000000000E+00 -0.00000000000E+00 -0.45593999997E+02  0.45594000000E+02  0.51100000000E-03 0.  1.
    9900012    2    1    2    0    0 -0.36461575906E+02  0.12374951509E+02 -0.13060676401E+02  0.50528841002E+02  0.29999942709E+02 0.  0.
         12    1    1    2    0    0  0.36461575906E+02 -0.12374951509E+02  0.13060676401E+02  0.40659158998E+02  0.00000000000E+00 0. -1.
         11    1    3    3    0    0 -0.36872266887E+01 -0.21494965192E+01 -0.27114877593E+01  0.50564950380E+01  0.51100000000E-03 0. -1.
        -11    1    3    3    0    0 -0.29600005710E+02  0.69471709692E+01  0.21883305632E+01  0.30482983998E+02  0.51100000000E-03 0.  1.
        -12    1    3    3    0    0 -0.31743435074E+01  0.75772770591E+01 -0.12537519205E+02  0.14989361966E+02  0.00000000000E+00 0.  1.
</event>
<event>
 7    1  0.5748623E-013  0.5052885E+02  0.7816164E-02  0.1300439E+00
        -11   -1    0    0    0    0  0.00000000000E+00  0.00000000000E+00  0.45593999997E+02  0.45594000000E+02  0.51100000000E-03 0.  1.
         11   -1    0    0    0    0 -0.00000000000E+00 -0.00000000000E+00 -0.45593999997E+02  0.45594000000E+02  0.51100000000E-03 0. -1.
    9900012    2    1    2    0    0 -0.50775453728E+01  0.34008392634E+02  0.21698249141E+02  0.50528852784E+02  0.29999978522E+02 0.  0.
         12    1    1    2    0    0  0.50775453728E+01 -0.34008392634E+02 -0.21698249141E+02  0.40659147216E+02  0.00000000000E+00 0. -1.
         11    1    3    3    0    0  0.64195848212E+01  0.33411496345E+01 -0.23312486102E+00  0.72407663696E+01  0.51100000000E-03 0. -1.
        -11    1    3    3    0    0 -0.52580851849E+01  0.17399331805E+02  0.22113914656E+02  0.28625328448E+02  0.51100000000E-03 0.  1.
        -12    1    3    3    0    0 -0.62390450091E+01  0.13267911194E+02 -0.18254065401E+00  0.14662757966E+02  0.00000000000E+00 0.  1.
</event>
<event>
 7    1  0.5748623E-013  0.5052886E+02  0.7816164E-02  0.1300439E+00
        -11   -1    0    0    0    0  0.00000000000E+00  0.00000000000E+00  0.45593999997E+02  0.45594000000E+02  0.51100000000E-03 0. -1.
         11   -1    0    0    0    0 -0.00000000000E+00 -0.00000000000E+00 -0.45593999997E+02  0.45594000000E+02  0.51100000000E-03 0.  1.
    9900012    2    1    2    0    0 -0.16280998988E+02  0.36937440526E+02  0.48703742451E+01  0.50528856060E+02  0.29999988479E+02 0.  0.
         12    1    1    2    0    0  0.16280998988E+02 -0.36937440526E+02 -0.48703742451E+01  0.40659143940E+02  0.00000000000E+00 0. -1.
         11    1    3    3    0    0  0.87546677330E+00  0.90633796961E+01  0.68686868988E+01  0.11405707061E+02  0.51100000000E-03 0. -1.
        -11    1    3    3    0    0 -0.59663949463E+01  0.78866260767E+01 -0.10745204499E+02  0.14603292763E+02  0.51100000000E-03 0.  1.
        -12    1    3    3    0    0 -0.11190070815E+02  0.19987434753E+02  0.87468918453E+01  0.24519856236E+02  0.00000000000E+00 0.  1.
</event>
<event>
 7    1  0.5748623E-013  0.5052894E+02  0.7816164E-02  0.1300439E+00
        -11   -1    0    0    0    0  0.00000000000E+00  0.00000000000E+00  0.45593999997E+02  0.45594000000E+02  0.51100000000E-03 0.  1.
         11   -1    0    0    0    0 -0.00000000000E+00 -0.00000000000E+00 -0.45593999997E+02  0.45594000000E+02  0.51100000000E-03 0. -1.
    9900012    2    1    2    0    0  0.23395393134E+02 -0.31290945446E+02 -0.11255739627E+02  0.50528937526E+02  0.30000236102E+02 0.  0.
         12    1    1    2    0    0 -0.23395393134E+02  0.31290945446E+02  0.11255739627E+02  0.40659062474E+02  0.00000000000E+00 0. -1.
         11    1    3    3    0    0 -0.58346922212E+01 -0.24023914083E+01  0.55102972416E-02  0.63099245970E+01  0.51100000000E-03 0. -1.
        -11    1    3    3    0    0  0.29203554790E+02 -0.26117812951E+02 -0.80857797878E+01  0.40004594745E+02  0.51100000000E-03 0.  1.
        -12    1    3    3    0    0  0.26530565166E-01 -0.27707410861E+01 -0.31754701362E+01  0.42144181832E+01  0.00000000000E+00 0.  1.
</event>
<event>
 7    1  0.5748623E-013  0.5052885E+02  0.7816164E-02  0.1300439E+00
        -11   -1    0    0    0    0  0.00000000000E+00  0.00000000000E+00  0.45593999997E+02  0.45594000000E+02  0.51100000000E-03 0.  1.
         11   -1    0    0    0    0 -0.00000000000E+00 -0.00000000000E+00 -0.45593999997E+02  0.45594000000E+02  0.51100000000E-03 0. -1.
    9900012    2    1    2    0    0  0.47339646498E+01  0.10101362707E+02  0.39098832962E+02  0.50528847416E+02  0.29999962206E+02 0.  0.
         12    1    1    2    0    0 -0.47339646498E+01 -0.10101362707E+02 -0.39098832962E+02  0.40659152584E+02  0.00000000000E+00 0. -1.
         11    1    3    3    0    0  0.73948257090E+01 -0.22601507311E+01  0.15117218456E+01  0.78788978794E+01  0.51100000000E-03 0. -1.
        -11    1    3    3    0    0 -0.22001056475E+01 -0.47147809175E+00  0.23425151470E+02  0.23532965774E+02  0.51100000000E-03 0.  1.
         12    1    3    3    0    0 -0.46075541175E+00  0.12832991530E+02  0.14161959647E+02  0.19116983763E+02  0.00000000000E+00 0. -1.
</event>
<event>
 7    1  0.5748623E-013  0.5052884E+02  0.7816164E-02  0.1300439E+00
        -11   -1    0    0    0    0  0.00000000000E+00  0.00000000000E+00  0.45593999997E+02  0.45594000000E+02  0.51100000000E-03 0.  1.
         11   -1    0    0    0    0 -0.00000000000E+00 -0.00000000000E+00 -0.45593999997E+02  0.45594000000E+02  0.51100000000E-03 0. -1.
    9900012    2    1    2    0    0 -0.17875403776E+02  0.34839154582E+02 -0.10948538781E+02  0.50528840471E+02  0.29999941096E+02 0.  0.
         12    1    1    2    0    0  0.17875403776E+02 -0.34839154582E+02  0.10948538781E+02  0.40659159529E+02  0.00000000000E+00 0. -1.
         11    1    3    3    0    0 -0.21259471987E+02  0.11597876926E+02 -0.73582267382E+01  0.25310460276E+02  0.51100000000E-03 0. -1.
        -11    1    3    3    0    0  0.57950472693E+01  0.14000758313E+02 -0.42862611515E+00  0.15158744235E+02  0.51100000000E-03 0.  1.
        -12    1    3    3    0    0 -0.24109790585E+01  0.92405193430E+01 -0.31616859271E+01  0.10059635960E+02  0.00000000000E+00 0.  1.
</event>
<event>
 7    1  0.5748623E-013  0.5052886E+02  0.7816164E-02  0.1300439E+00
        -11   -1    0    0    0    0  0.00000000000E+00  0.00000000000E+00  0.45593999997E+02  0.45594000000E+02  0.51100000000E-03 0.  1.
         11   -1    0    0    0    0 -0.00000000000E+00 -0.00000000000E+00 -0.45593999997E+02  0.45594000000E+02  0.51100000000E-03 0. -1.
    9900012    2    1    2    0    0  0.37988248579E+02  0.33938864500E+01 -0.14090423476E+02  0.50528861678E+02  0.30000005556E+02 0.  0.
         12    1    1    2    0    0 -0.37988248579E+02 -0.33938864500E+01  0.14090423476E+02  0.40659138322E+02  0.00000000000E+00 0. -1.
         11    1    3    3    0    0  0.32123353214E+00 -0.79172450516E+01 -0.17955791158E+01  0.81246578273E+01  0.51100000000E-03 0. -1.
        -11    1    3    3    0    0  0.15131958734E+02  0.20804307296E+01 -0.34558616470E+00  0.15278213155E+02  0.51100000000E-03 0.  1.
         12    1    3    3    0    0  0.22535056313E+02  0.92307007719E+01 -0.11949258196E+02  0.27125990695E+02  0.00000000000E+00 0. -1.
</event>
<event>
 7    1  0.5748623E-013  0.5052886E+02  0.7816164E-02  0.1300439E+00
        -11   -1    0    0    0    0  0.00000000000E+00  0.00000000000E+00  0.45593999997E+02  0.45594000000E+02  0.51100000000E-03 0.  1.
         11   -1    0    0    0    0 -0.00000000000E+00 -0.00000000000E+00 -0.45593999997E+02  0.45594000000E+02  0.51100000000E-03 0. -1.
    9900012    2    1    2    0    0 -0.40970590759E+01 -0.45885511937E+01  0.40191109016E+02  0.50528856636E+02  0.29999990231E+02 0.  0.
         12    1    1    2    0    0  0.40970590759E+01  0.45885511937E+01 -0.40191109016E+02  0.40659143364E+02  0.00000000000E+00 0. -1.
         11    1    3    3    0    0  0.78042798402E+01  0.51871360342E+00  0.42485454311E+01  0.89008980540E+01  0.51100000000E-03 0. -1.
        -11    1    3    3    0    0 -0.44589108237E+01 -0.65305331089E+01  0.32237815380E+02  0.33193470580E+02  0.51100000000E-03 0.  1.
        -12    1    3    3    0    0 -0.74424280923E+01  0.14232683118E+01  0.37047482056E+01  0.84344880025E+01  0.00000000000E+00 0.  1.
</event>
<event>
 7    1  0.5748623E-013  0.5052885E+02  0.7816164E-02  0.1300439E+00
        -11   -1    0    0    0    0  0.00000000000E+00  0.00000000000E+00  0.45593999997E+02  0.45594000000E+02  0.51100000000E-03 0. -1.
         11   -1    0    0    0    0 -0.00000000000E+00 -0.00000000000E+00 -0.45593999997E+02  0.45594000000E+02  0.51100000000E-03 0.  1.
    9900012    2    1    2    0    0 -0.37282413561E+02 -0.26288687848E+01  0.16008663173E+02  0.50528848403E+02  0.29999965205E+02 0.  0.
         12    1    1    2    0    0  0.37282413561E+02  0.26288687848E+01 -0.16008663173E+02  0.40659151597E+02  0.00000000000E+00 0. -1.
         11    1    3    3    0    0 -0.25554655082E+00 -0.79929853020E+01  0.66700290949E+01  0.10413568383E+02  0.51100000000E-03 0. -1.
        -11    1    3    3    0    0 -0.20326140501E+02 -0.84876858123E+00  0.91211694628E+01  0.22295024746E+02  0.51100000000E-03 0.  1.
         12    1    3    3    0    0 -0.16700726509E+02  0.62128850984E+01  0.21746461577E+00  0.17820255274E+02  0.00000000000E+00 0. -1.
</event>
<event>
 7    1  0.5748623E-013  0.5052886E+02  0.7816164E-02  0.1300439E+00
        -11   -1    0    0    0    0  0.00000000000E+00  0.00000000000E+00  0.45593999997E+02  0.45594000000E+02  0.51100000000E-03 0.  1.
         11   -1    0    0    0    0 -0.00000000000E+00 -0.00000000000E+00 -0.45593999997E+02  0.45594000000E+02  0.51100000000E-03 0. -1.
    9900012    2    1    2    0    0 -0.34547713679E+02 -0.21080414859E+02  0.39035025435E+01  0.50528859046E+02  0.29999997555E+02 0.  0.
         12    1    1    2    0    0  0.34547713679E+02  0.21080414859E+02 -0.39035025435E+01  0.40659140954E+02  0.00000000000E+00 0. -1.
         11    1    3    3    0    0 -0.50380069458E+01 -0.37913566606E+00 -0.78974425348E+01  0.93752256875E+01  0.51100000000E-03 0. -1.
        -11    1    3    3    0    0 -0.31101716879E+02 -0.19311003453E+02  0.90986021807E+01  0.37722887073E+02  0.51100000000E-03 0.  1.
         12    1    3    3    0    0  0.15920101464E+01 -0.13902757396E+01  0.27023428977E+01  0.34307462854E+01  0.00000000000E+00 0. -1.
</event>
<event>
 7    1  0.5748623E-013  0.5052883E+02  0.7816164E-02  0.1300439E+00
        -11   -1    0    0    0    0  0.00000000000E+00  0.00000000000E+00  0.45593999997E+02  0.45594000000E+02  0.51100000000E-03 0.  1.
         11   -1    0    0    0    0 -0.00000000000E+00 -0.00000000000E+00 -0.45593999997E+02  0.45594000000E+02  0.51100000000E-03 0. -1.
    9900012    2    1    2    0    0  0.32370959062E+02  0.22248151380E+02 -0.10502818071E+02  0.50528826154E+02  0.29999897577E+02 0.  0.
         12    1    1    2    0    0 -0.32370959062E+02 -0.22248151380E+02  0.10502818071E+02  0.40659173846E+02  0.00000000000E+00 0. -1.
         11    1    3    3    0    0  0.96070303228E+01 -0.41586013968E+01 -0.11852247921E+01  0.10535357387E+02  0.51100000000E-03 0. -1.
        -11    1    3    3    0    0  0.17776267059E+02  0.26825036678E+02 -0.35790198653E+01  0.32378814784E+02  0.51100000000E-03 0.  1.
        -12    1    3    3    0    0  0.49876616802E+01 -0.41828390135E+00 -0.57385734139E+01  0.76146539833E+01  0.00000000000E+00 0.  1.
</event>
<event>
 7    1  0.5748623E-013  0.5052886E+02  0.7816164E-02  0.1300439E+00
        -11   -1    0    0    0    0  0.00000000000E+00  0.00000000000E+00  0.45593999997E+02  0.45594000000E+02  0.51100000000E-03 0.  1.
         11   -1    0    0    0    0 -0.00000000000E+00 -0.00000000000E+00 -0.45593999997E+02  0.45594000000E+02  0.51100000000E-03 0. -1.
    9900012    2    1    2    0    0 -0.16222635927E+02  0.37713598718E+01  0.37091349863E+02  0.50528864417E+02  0.30000013880E+02 0.  0.
         12    1    1    2    0    0  0.16222635927E+02 -0.37713598718E+01 -0.37091349863E+02  0.40659135583E+02  0.00000000000E+00 0. -1.
         11    1    3    3    0    0 -0.10430648426E+02  0.12528903834E+02  0.13164166468E+02  0.20953928914E+02  0.51100000000E-03 0. -1.
        -11    1    3    3    0    0  0.42672512912E+01 -0.37588882258E+00  0.55775968965E+01  0.70328026696E+01  0.51100000000E-03 0.  1.
        -12    1    3    3    0    0 -0.10059238792E+02 -0.83816551400E+01  0.18349586499E+02  0.22542132833E+02  0.00000000000E+00 0.  1.
</event>
<event>
 7    1  0.5748623E-013  0.5052886E+02  0.7816164E-02  0.1300439E+00
        -11   -1    0    0    0    0  0.00000000000E+00  0.00000000000E+00  0.45593999997E+02  0.45594000000E+02  0.51100000000E-03 0. -1.
         11   -1    0    0    0    0 -0.00000000000E+00 -0.00000000000E+00 -0.45593999997E+02  0.45594000000E+02  0.51100000000E-03 0.  1.
    9900012    2    1    2    0    0  0.27624919030E+02  0.39596812407E+01 -0.29569414083E+02  0.50528862329E+02  0.30000007534E+02 0.  0.
         12    1    1    2    0    0 -0.27624919030E+02 -0.39596812407E+01  0.29569414083E+02  0.40659137671E+02  0.00000000000E+00 0. -1.
         11    1    3    3    0    0  0.24264229070E+01  0.20533505068E+01  0.29395928640E+01  0.43295476548E+01  0.51100000000E-03 0. -1.
        -11    1    3    3    0    0  0.27020764694E+02 -0.33237998177E+01 -0.28046036189E+02  0.39086436471E+02  0.51100000000E-03 0.  1.
        -12    1    3    3    0    0 -0.18222685707E+01  0.52301305515E+01 -0.44629707585E+01  0.71128782023E+01  0.00000000000E+00 0.  1.
</event>
<event>
 7    1  0.5748623E-013  0.5052886E+02  0.7816164E-02  0.1300439E+00
        -11   -1    0    0    0    0  0.00000000000E+00  0.00000000000E+00  0.45593999997E+02  0.45594000000E+02  0.51100000000E-03 0. -1.
         11   -1    0    0    0    0 -0.00000000000E+00 -0.00000000000E+00 -0.45593999997E+02  0.45594000000E+02  0.51100000000E-03 0.  1.
    9900012    2    1    2    0    0  0.34365046191E+02  0.11491689796E+02 -0.18443170440E+02  0.50528857486E+02  0.29999992816E+02 0.  0.
         12    1    1    2    0    0 -0.34365046191E+02 -0.11491689796E+02  0.18443170440E+02  0.40659142514E+02  0.00000000000E+00 0. -1.
         11    1    3    3    0    0  0.15528610690E+01 -0.66584565916E+01 -0.15299931270E+01  0.70062330044E+01  0.51100000000E-03 0. -1.
        -11    1    3    3    0    0  0.15936149605E+02  0.16370802960E+02 -0.71216558811E+01  0.23930775929E+02  0.51100000000E-03 0.  1.
         12    1    3    3    0    0  0.16876035516E+02  0.17793434275E+01 -0.97915214319E+01  0.19591848553E+02  0.00000000000E+00 0. -1.
</event>
<event>
 7    1  0.5748623E-013  0.5052886E+02  0.7816164E-02  0.1300439E+00
        -11   -1    0    0    0    0  0.00000000000E+00  0.00000000000E+00  0.45593999997E+02  0.45594000000E+02  0.51100000000E-03 0.  1.
         11   -1    0    0    0    0 -0.00000000000E+00 -0.00000000000E+00 -0.45593999997E+02  0.45594000000E+02  0.51100000000E-03 0. -1.
    9900012    2    1    2    0    0  0.13054813208E+02  0.37728332935E+02 -0.77013356223E+01  0.50528858048E+02  0.29999994522E+02 0.  0.
         12    1    1    2    0    0 -0.13054813208E+02 -0.37728332935E+02  0.77013356223E+01  0.40659141952E+02  0.00000000000E+00 0. -1.
         11    1    3    3    0    0  0.39836216444E+01  0.40972968075E+01 -0.67469417260E+01  0.88418496622E+01  0.51100000000E-03 0. -1.
        -11    1    3    3    0    0 -0.36829398080E+01  0.52693324517E+01  0.70851597611E+01  0.95670998331E+01  0.51100000000E-03 0.  1.
        -12    1    3    3    0    0  0.12754131371E+02  0.28361703675E+02 -0.80395536574E+01  0.32119908552E+02  0.00000000000E+00 0.  1.
</event>
<event>
 7    1  0.5748623E-013  0.5052888E+02  0.7816164E-02  0.1300439E+00
        -11   -1    0    0    0    0  0.00000000000E+00  0.00000000000E+00  0.45593999997E+02  0.45594000000E+02  0.51100000000E-03 0.  1.
         11   -1    0    0    0    0 -0.00000000000E+00 -0.00000000000E+00 -0.45593999997E+02  0.45594000000E+02  0.51100000000E-03 0. -1.
    9900012    2    1    2    0    0  0.39461801544E+02  0.87426558840E+01  0.44154477235E+01  0.50528880585E+02  0.30000063027E+02 0.  0.
         12    1    1    2    0    0 -0.39461801544E+02 -0.87426558840E+01 -0.44154477235E+01  0.40659119415E+02  0.00000000000E+00 0. -1.
         11    1    3    3    0    0  0.29394199701E+00  0.61318029117E+01 -0.50518892081E+01  0.79502826162E+01  0.51100000000E-03 0. -1.
        -11    1    3    3    0    0  0.37198569278E+02  0.18775810123E+01  0.49203504802E+01  0.37569518441E+02  0.51100000000E-03 0.  1.
         12    1    3    3    0    0  0.19692902686E+01  0.73327196003E+00  0.45469864514E+01  0.50090795281E+01  0.00000000000E+00 0. -1.
</event>
<event>
 7    1  0.5748623E-013  0.5052884E+02  0.7816164E-02  0.1300439E+00
        -11   -1    0    0    0    0  0.00000000000E+00  0.00000000000E+00  0.45593999997E+02  0.45594000000E+02  0.51100000000E-03 0.  1.
         11   -1    0    0    0    0 -0.00000000000E+00 -0.00000000000E+00 -0.45593999997E+02  0.45594000000E+02  0.51100000000E-03 0. -1.
    9900012    2    1    2    0    0 -0.25542473184E+02 -0.11778015429E+02  0.29360301571E+02  0.50528844916E+02  0.29999954606E+02 0.  0.
         12    1    1    2    0    0  0.25542473184E+02  0.11778015429E+02 -0.29360301571E+02  0.40659155084E+02  0.00000000000E+00 0. -1.
         11    1    3    3    0    0  0.71959901486E+00 -0.12850090271E+02  0.43832289176E+01  0.13596151615E+02  0.51100000000E-03 0. -1.
        -11    1    3    3    0    0 -0.14724277390E+02  0.20187546585E+01  0.18277468521E+02  0.23557282756E+02  0.51100000000E-03 0.  1.
         12    1    3    3    0    0 -0.11537794809E+02 -0.94667981601E+00  0.66996041324E+01  0.13375410546E+02  0.00000000000E+00 0. -1.
</event>
<event>
 7    1  0.5748623E-013  0.5052886E+02  0.7816164E-02  0.1300439E+00
        -11   -1    0    0    0    0  0.00000000000E+00  0.00000000000E+00  0.45593999997E+02  0.45594000000E+02  0.51100000000E-03 0. -1.
         11   -1    0    0    0    0 -0.00000000000E+00 -0.00000000000E+00 -0.45593999997E+02  0.45594000000E+02  0.51100000000E-03 0.  1.
    9900012    2    1    2    0    0  0.17589502575E+02 -0.24305961607E+01 -0.36576864526E+02  0.50528863055E+02  0.30000009741E+02 0.  0.
         12    1    1    2    0    0 -0.17589502575E+02  0.24305961607E+01  0.36576864526E+02  0.40659136945E+02  0.00000000000E+00 0. -1.
         11    1    3    3    0    0  0.61179074493E+01  0.68309824604E+00 -0.65675381607E+01  0.90015538950E+01  0.51100000000E-03 0. -1.
        -11    1    3    3    0    0  0.11465385962E+02  0.10114446707E+02 -0.13712301421E+02  0.20537388295E+02  0.51100000000E-03 0.  1.
        -12    1    3    3    0    0  0.62091639602E-02 -0.13228141113E+02 -0.16297024944E+02  0.20989920865E+02  0.00000000000E+00 0.  1.
</event>
<event>
 7    1  0.5748623E-013  0.5052886E+02  0.7816164E-02  0.1300439E+00
        -11   -1    0    0    0    0  0.00000000000E+00  0.00000000000E+00  0.45593999997E+02  0.45594000000E+02  0.51100000000E-03 0.  1.
         11   -1    0    0    0    0 -0.00000000000E+00 -0.00000000000E+00 -0.45593999997E+02  0.45594000000E+02  0.51100000000E-03 0. -1.
    9900012    2    1    2    0    0  0.28305369363E+02 -0.95228038874E+01  0.27591441596E+02  0.50528863536E+02  0.30000011204E+02 0.  0.
         12    1    1    2    0    0 -0.28305369363E+02  0.95228038874E+01 -0.27591441596E+02  0.40659136464E+02  0.00000000000E+00 0. -1.
         11    1    3    3    0    0  0.21532893313E+02 -0.47275860666E+01  0.25704163862E+02  0.33863248582E+02  0.51100000000E-03 0.  1.
        -11    1    3    3    0    0  0.69628711822E+01  0.29999529766E+01 -0.21559014696E+01  0.78822080897E+01  0.51100000000E-03 0. -1.
         12    1    3    3    0    0 -0.19039513167E+00 -0.77951707974E+01  0.40431792037E+01  0.87834068641E+01  0.00000000000E+00 0. -1.
</event>
<event>
 7    1  0.5748623E-013  0.5052886E+02  0.7816164E-02  0.1300439E+00
        -11   -1    0    0    0    0  0.00000000000E+00  0.00000000000E+00  0.45593999997E+02  0.45594000000E+02  0.51100000000E-03 0. -1.
         11   -1    0    0    0    0 -0.00000000000E+00 -0.00000000000E+00 -0.45593999997E+02  0.45594000000E+02  0.51100000000E-03 0.  1.
    9900012    2    1    2    0    0  0.79950088033E+01 -0.23281598348E+02 -0.32360664851E+02  0.50528860597E+02  0.30000002270E+02 0.  0.
         12    1    1    2    0    0 -0.79950088033E+01  0.23281598348E+02  0.32360664851E+02  0.40659139403E+02  0.00000000000E+00 0. -1.
         11    1    3    3    0    0  0.56920214318E+01  0.16605415924E+00 -0.22524198996E+01  0.61237306954E+01  0.51100000000E-03 0. -1.
        -11    1    3    3    0    0 -0.61678803899E+01 -0.21544734016E+02 -0.14958294379E+02  0.26943809740E+02  0.51100000000E-03 0.  1.
        -12    1    3    3    0    0  0.84708677614E+01 -0.19029184910E+01 -0.15149950573E+02  0.17461320161E+02  0.00000000000E+00 0.  1.
</event>
<event>
 7    1  0.5748623E-013  0.5052886E+02  0.7816164E-02  0.1300439E+00
        -11   -1    0    0    0    0  0.00000000000E+00  0.00000000000E+00  0.45593999997E+02  0.45594000000E+02  0.51100000000E-03 0.  1.
         11   -1    0    0    0    0 -0.00000000000E+00 -0.00000000000E+00 -0.45593999997E+02  0.45594000000E+02  0.51100000000E-03 0. -1.
    9900012    2    1    2    0    0  0.28273826496E+02  0.22895368715E+02 -0.18153754969E+02  0.50528855975E+02  0.29999988223E+02 0.  0.
         12    1    1    2    0    0 -0.28273826496E+02 -0.22895368715E+02  0.18153754969E+02  0.40659144025E+02  0.00000000000E+00 0. -1.
         11    1    3    3    0    0  0.34259026755E+01  0.12965682246E+02 -0.22274712782E+01  0.13594386849E+02  0.51100000000E-03 0.  1.
        -11    1    3    3    0    0  0.91781260925E+01 -0.59928820800E+01 -0.46014532750E+01  0.11888061520E+02  0.51100000000E-03 0. -1.
        -12    1    3    3    0    0  0.15669797728E+02  0.15922568549E+02 -0.11324830416E+02  0.25046407607E+02  0.00000000000E+00 0.  1.
</event>
<event>
 7    1  0.5748623E-013  0.5052886E+02  0.7816164E-02  0.1300439E+00
        -11   -1    0    0    0    0  0.00000000000E+00  0.00000000000E+00  0.45593999997E+02  0.45594000000E+02  0.51100000000E-03 0.  1.
         11   -1    0    0    0    0 -0.00000000000E+00 -0.00000000000E+00 -0.45593999997E+02  0.45594000000E+02  0.51100000000E-03 0. -1.
    9900012    2    1    2    0    0  0.21510551457E+02  0.24107316780E+02  0.24683991495E+02  0.50528856103E+02  0.29999988611E+02 0.  0.
         12    1    1    2    0    0 -0.21510551457E+02 -0.24107316780E+02 -0.24683991495E+02  0.40659143897E+02  0.00000000000E+00 0. -1.
         11    1    3    3    0    0  0.39867515899E+01  0.83837239684E+01 -0.19653173498E+01  0.94891247417E+01  0.51100000000E-03 0. -1.
        -11    1    3    3    0    0  0.15847913234E+02  0.20635136552E+02  0.22390103063E+02  0.34326111487E+02  0.51100000000E-03 0.  1.
        -12    1    3    3    0    0  0.16758866335E+01 -0.49115437408E+01  0.42592057817E+01  0.67136198743E+01  0.00000000000E+00 0.  1.
</event>
<event>
 7    1  0.5748623E-013  0.5052884E+02  0.7816164E-02  0.1300439E+00
        -11   -1    0    0    0    0  0.00000000000E+00  0.00000000000E+00  0.45593999997E+02  0.45594000000E+02  0.51100000000E-03 0.  1.
         11   -1    0    0    0    0 -0.00000000000E+00 -0.00000000000E+00 -0.45593999997E+02  0.45594000000E+02  0.51100000000E-03 0. -1.
    9900012    2    1    2    0    0 -0.17733291917E+02  0.26890109021E+02  0.24811686256E+02  0.50528838914E+02  0.29999936361E+02 0.  0.
         12    1    1    2    0    0  0.17733291917E+02 -0.26890109021E+02 -0.24811686256E+02  0.40659161086E+02  0.00000000000E+00 0. -1.
         11    1    3    3    0    0 -0.15308601976E+02  0.95049495063E+01  0.61125808003E+01  0.19027900669E+02  0.51100000000E-03 0. -1.
        -11    1    3    3    0    0 -0.33874892106E+00  0.21056067410E+02  0.16414153704E+02  0.26700134226E+02  0.51100000000E-03 0.  1.
        -12    1    3    3    0    0 -0.20859410199E+01 -0.36709078950E+01  0.22849517511E+01  0.48008040178E+01  0.00000000000E+00 0.  1.
</event>
<event>
 7    1  0.5748623E-013  0.5052887E+02  0.7816164E-02  0.1300439E+00
        -11   -1    0    0    0    0  0.00000000000E+00  0.00000000000E+00  0.45593999997E+02  0.45594000000E+02  0.51100000000E-03 0.  1.
         11   -1    0    0    0    0 -0.00000000000E+00 -0.00000000000E+00 -0.45593999997E+02  0.45594000000E+02  0.51100000000E-03 0. -1.
    9900012    2    1    2    0    0 -0.14285895115E+02 -0.17085682122E+02  0.34017013708E+02  0.50528873664E+02  0.30000041988E+02 0.  0.
         12    1    1    2    0    0  0.14285895115E+02  0.17085682122E+02 -0.34017013708E+02  0.40659126336E+02  0.00000000000E+00 0. -1.
         11    1    3    3    0    0  0.35170682055E+01 -0.72660189757E+00 -0.19127315262E+01  0.40689385879E+01  0.51100000000E-03 0. -1.
        -11    1    3    3    0    0 -0.52408065996E+00 -0.10994732478E+02  0.17185974016E+02  0.20408736020E+02  0.51100000000E-03 0.  1.
        -12    1    3    3    0    0 -0.17278882661E+02 -0.53643477471E+01  0.18743771218E+02  0.26051199056E+02  0.00000000000E+00 0.  1.
</event>
<event>
 7    1  0.5748623E-013  0.5052886E+02  0.7816164E-02  0.1300439E+00
        -11   -1    0    0    0    0  0.00000000000E+00  0.00000000000E+00  0.45593999997E+02  0.45594000000E+02  0.51100000000E-03 0.  1.
         11   -1    0    0    0    0 -0.00000000000E+00 -0.00000000000E+00 -0.45593999997E+02  0.45594000000E+02  0.51100000000E-03 0. -1.
    9900012    2    1    2    0    0  0.21733919555E+02 -0.19519345913E+02  0.28280690960E+02  0.50528860741E+02  0.30000002707E+02 0.  0.
         12    1    1    2    0    0 -0.21733919555E+02  0.19519345913E+02 -0.28280690960E+02  0.40659139259E+02  0.00000000000E+00 0. -1.
         11    1    3    3    0    0  0.18893581105E+02 -0.23336678550E+02  0.15757341984E+02  0.33909612197E+02  0.51100000000E-03 0. -1.
        -11    1    3    3    0    0  0.52825234369E+01  0.21262215091E+01  0.25982294005E+01  0.62591267798E+01  0.51100000000E-03 0.  1.
         12    1    3    3    0    0 -0.24421849865E+01  0.16911111278E+01  0.99251195761E+01  0.10360121764E+02  0.00000000000E+00 0. -1.
</event>
<event>
 7    1  0.5748623E-013  0.5052886E+02  0.7816164E-02  0.1300439E+00
        -11   -1    0    0    0    0  0.00000000000E+00  0.00000000000E+00  0.45593999997E+02  0.45594000000E+02  0.51100000000E-03 0.  1.
         11   -1    0    0    0    0 -0.00000000000E+00 -0.00000000000E+00 -0.45593999997E+02  0.45594000000E+02  0.51100000000E-03 0. -1.
    9900012    2    1    2    0    0 -0.21793313776E+01  0.37016140396E+02  0.16679966601E+02  0.50528863009E+02  0.30000009602E+02 0.  0.
         12    1    1    2    0    0  0.21793313776E+01 -0.37016140396E+02 -0.16679966601E+02  0.40659136991E+02  0.00000000000E+00 0. -1.
         11    1    3    3    0    0 -0.25608233150E+01  0.91882257042E+00  0.57886321540E+01  0.63961170597E+01  0.51100000000E-03 0. -1.
        -11    1    3    3    0    0  0.90328719483E+01  0.26287502998E+02  0.13330755823E+02  0.30827498124E+02  0.51100000000E-03 0.  1.
        -12    1    3    3    0    0 -0.86513800108E+01  0.98098148274E+01 -0.24394213764E+01  0.13305247825E+02  0.00000000000E+00 0.  1.
</event>
<event>
 7    1  0.5748623E-013  0.5052886E+02  0.7816164E-02  0.1300439E+00
        -11   -1    0    0    0    0  0.00000000000E+00  0.00000000000E+00  0.45593999997E+02  0.45594000000E+02  0.51100000000E-03 0.  1.
         11   -1    0    0    0    0 -0.00000000000E+00 -0.00000000000E+00 -0.45593999997E+02  0.45594000000E+02  0.51100000000E-03 0. -1.
    9900012    2    1    2    0    0  0.42926742153E+01 -0.23061104130E+02  0.33210305025E+02  0.50528856680E+02  0.29999990365E+02 0.  0.
         12    1    1    2    0    0 -0.42926742153E+01  0.23061104130E+02 -0.33210305025E+02  0.40659143320E+02  0.00000000000E+00 0. -1.
         11    1    3    3    0    0  0.67871606690E+00 -0.27002648538E+02  0.21955226259E+02  0.34808557050E+02  0.51100000000E-03 0. -1.
        -11    1    3    3    0    0  0.61904823176E+01  0.52532486519E+00  0.43045234589E+01  0.75582378904E+01  0.51100000000E-03 0.  1.
         12    1    3    3    0    0 -0.25765241693E+01  0.34162195426E+01  0.69505553077E+01  0.81620617398E+01  0.00000000000E+00 0. -1.
</event>
<event>
 7    1  0.5748623E-013  0.5052884E+02  0.7816164E-02  0.1300439E+00
        -11   -1    0    0    0    0  0.00000000000E+00  0.00000000000E+00  0.45593999997E+02  0.45594000000E+02  0.51100000000E-03 0.  1.
         11   -1    0    0    0    0 -0.00000000000E+00 -0.00000000000E+00 -0.45593999997E+02  0.45594000000E+02  0.51100000000E-03 0. -1.
    9900012    2    1    2    0    0  0.23770288191E+02  0.55981682673E+01  0.32508473868E+02  0.50528844059E+02  0.29999952002E+02 0.  0.
         12    1    1    2    0    0 -0.23770288191E+02 -0.55981682673E+01 -0.32508473868E+02  0.40659155941E+02  0.00000000000E+00 0. -1.
         11    1    3    3    0    0  0.21411163567E+01  0.50772469847E+01 -0.10520687676E+01  0.56097829860E+01  0.51100000000E-03 0. -1.
        -11    1    3    3    0    0  0.19990499326E+02  0.81397680454E+01  0.20851916869E+02  0.30011303279E+02  0.51100000000E-03 0.  1.
        -12    1    3    3    0    0  0.16386725084E+01 -0.76188467628E+01  0.12708625766E+02  0.14907757794E+02  0.00000000000E+00 0.  1.
</event>
<event>
 7    1  0.5748623E-013  0.5052885E+02  0.7816164E-02  0.1300439E+00
        -11   -1    0    0    0    0  0.00000000000E+00  0.00000000000E+00  0.45593999997E+02  0.45594000000E+02  0.51100000000E-03 0.  1.
         11   -1    0    0    0    0 -0.00000000000E+00 -0.00000000000E+00 -0.45593999997E+02  0.45594000000E+02  0.51100000000E-03 0. -1.
    9900012    2    1    2    0    0  0.13469858031E+02  0.38168728795E+02 -0.38571302986E+01  0.50528851124E+02  0.29999973477E+02 0.  0.
         12    1    1    2    0    0 -0.13469858031E+02 -0.38168728795E+02  0.38571302986E+01  0.40659148876E+02  0.00000000000E+00 0. -1.
         11    1    3    3    0    0  0.24666775135E+01  0.23235039129E+02  0.24686067156E+01  0.23495649824E+02  0.51100000000E-03 0. -1.
        -11    1    3    3    0    0  0.10141475102E+02  0.22893986855E+01  0.35287251978E+01  0.10979196936E+02  0.51100000000E-03 0.  1.
         12    1    3    3    0    0  0.86170541546E+00  0.12644290980E+02 -0.98544622121E+01  0.16054004364E+02  0.00000000000E+00 0. -1.
</event>
<event>
 7    1  0.5748623E-013  0.5052885E+02  0.7816164E-02  0.1300439E+00
        -11   -1    0    0    0    0  0.00000000000E+00  0.00000000000E+00  0.45593999997E+02  0.45594000000E+02  0.51100000000E-03 0.  1.
         11   -1    0    0    0    0 -0.00000000000E+00 -0.00000000000E+00 -0.45593999997E+02  0.45594000000E+02  0.51100000000E-03 0. -1.
    9900012    2    1    2    0    0 -0.39360444867E+02 -0.95820563539E+01  0.34793388853E+01  0.50528853142E+02  0.29999979612E+02 0.  0.
         12    1    1    2    0    0  0.39360444867E+02  0.95820563539E+01 -0.34793388853E+01  0.40659146858E+02  0.00000000000E+00 0. -1.
         11    1    3    3    0    0  0.65336026962E+00 -0.74869516909E+01 -0.22825293776E+01  0.78543787714E+01  0.51100000000E-03 0. -1.
        -11    1    3    3    0    0 -0.37607661133E+02 -0.51709245634E+01  0.34065655970E+01  0.38114030569E+02  0.51100000000E-03 0.  1.
         12    1    3    3    0    0 -0.24061440035E+01  0.30758199004E+01  0.23553026660E+01  0.45604438023E+01  0.00000000000E+00 0. -1.
</event>
<event>
 7    1  0.5748623E-013  0.5052888E+02  0.7816164E-02  0.1300439E+00
        -11   -1    0    0    0    0  0.00000000000E+00  0.00000000000E+00  0.45593999997E+02  0.45594000000E+02  0.51100000000E-03 0.  1.
         11   -1    0    0    0    0 -0.00000000000E+00 -0.00000000000E+00 -0.45593999997E+02  0.45594000000E+02  0.51100000000E-03 0. -1.
    9900012    2    1    2    0    0  0.56822974385E+01 -0.15000480175E+02  0.37361229692E+02  0.50528875640E+02  0.30000047994E+02 0.  0.
         12    1    1    2    0    0 -0.56822974385E+01  0.15000480175E+02 -0.37361229692E+02  0.40659124360E+02  0.00000000000E+00 0. -1.
         11    1    3    3    0    0  0.70894734973E+01 -0.80965003381E+01  0.35808139678E+01  0.11341789150E+02  0.51100000000E-03 0. -1.
        -11    1    3    3    0    0 -0.60814137812E+01 -0.94286927508E+01  0.31439823123E+02  0.33381826176E+02  0.51100000000E-03 0.  1.
        -12    1    3    3    0    0  0.46742377224E+01  0.25247129141E+01  0.23405926012E+01  0.58052603137E+01  0.00000000000E+00 0.  1.
</event>
<event>
 7    1  0.5748623E-013  0.5052882E+02  0.7816164E-02  0.1300439E+00
        -11   -1    0    0    0    0  0.00000000000E+00  0.00000000000E+00  0.45593999997E+02  0.45594000000E+02  0.51100000000E-03 0.  1.
         11   -1    0    0    0    0 -0.00000000000E+00 -0.00000000000E+00 -0.45593999997E+02  0.45594000000E+02  0.51100000000E-03 0. -1.
    9900012    2    1    2    0    0 -0.49327678633E+01  0.93016327369E+01  0.39272338551E+02  0.50528817204E+02  0.29999870372E+02 0.  0.
         12    1    1    2    0    0  0.49327678633E+01 -0.93016327369E+01 -0.39272338551E+02  0.40659182796E+02  0.00000000000E+00 0. -1.
         11    1    3    3    0    0 -0.57222696268E+01 -0.52737644842E+01  0.13609427013E+01  0.78999447349E+01  0.51100000000E-03 0. -1.
        -11    1    3    3    0    0  0.33217879193E+01  0.16126281091E+02  0.30855949153E+02  0.34974001990E+02  0.51100000000E-03 0.  1.
        -12    1    3    3    0    0 -0.25322861558E+01 -0.15508838700E+01  0.70554466974E+01  0.76548704791E+01  0.00000000000E+00 0.  1.
</event>
<event>
 7    1  0.5748623E-013  0.5052886E+02  0.7816164E-02  0.1300439E+00
        -11   -1    0    0    0    0  0.00000000000E+00  0.00000000000E+00  0.45593999997E+02  0.45594000000E+02  0.51100000000E-03 0.  1.
         11   -1    0    0    0    0 -0.00000000000E+00 -0.00000000000E+00 -0.45593999997E+02  0.45594000000E+02  0.51100000000E-03 0. -1.
    9900012    2    1    2    0    0  0.33100032622E+02 -0.20686733632E+02  0.11384751790E+02  0.50528859807E+02  0.29999999869E+02 0.  0.
         12    1    1    2    0    0 -0.33100032622E+02  0.20686733632E+02 -0.11384751790E+02  0.40659140193E+02  0.00000000000E+00 0. -1.
         11    1    3    3    0    0  0.21936426209E+02 -0.16768634115E+01  0.10316703359E+02  0.24299239374E+02  0.51100000000E-03 0.  1.
        -11    1    3    3    0    0  0.89126154538E+01 -0.10694004127E+02 -0.59289294356E+01  0.15131048973E+02  0.51100000000E-03 0. -1.
        -12    1    3    3    0    0  0.22509909593E+01 -0.83158660934E+01  0.69969778664E+01  0.11098571460E+02  0.00000000000E+00 0.  1.
</event>
<event>
 7    1  0.5748623E-013  0.5052886E+02  0.7816164E-02  0.1300439E+00
        -11   -1    0    0    0    0  0.00000000000E+00  0.00000000000E+00  0.45593999997E+02  0.45594000000E+02  0.51100000000E-03 0.  1.
         11   -1    0    0    0    0 -0.00000000000E+00 -0.00000000000E+00 -0.45593999997E+02  0.45594000000E+02  0.51100000000E-03 0. -1.
    9900012    2    1    2    0    0 -0.22697419205E+02  0.30854013967E+02  0.13639015870E+02  0.50528858711E+02  0.29999996539E+02 0.  0.
         12    1    1    2    0    0  0.22697419205E+02 -0.30854013967E+02 -0.13639015870E+02  0.40659141289E+02  0.00000000000E+00 0. -1.
         11    1    3    3    0    0  0.48750050352E-02  0.21351183006E+02  0.43045248125E+01  0.21780770731E+02  0.51100000000E-03 0. -1.
        -11    1    3    3    0    0 -0.10232173904E+02  0.10359046857E+02  0.64218025919E+01  0.15913729399E+02  0.51100000000E-03 0.  1.
         12    1    3    3    0    0 -0.12470120306E+02 -0.85621589554E+00  0.29126884654E+01  0.12834358582E+02  0.00000000000E+00 0. -1.
</event>
<event>
 7    1  0.5748623E-013  0.5052886E+02  0.7816164E-02  0.1300439E+00
        -11   -1    0    0    0    0  0.00000000000E+00  0.00000000000E+00  0.45593999997E+02  0.45594000000E+02  0.51100000000E-03 0. -1.
         11   -1    0    0    0    0 -0.00000000000E+00 -0.00000000000E+00 -0.45593999997E+02  0.45594000000E+02  0.51100000000E-03 0.  1.
    9900012    2    1    2    0    0 -0.28143898059E+02  0.14894069486E+02 -0.25283462208E+02  0.50528858776E+02  0.29999996737E+02 0.  0.
         12    1    1    2    0    0  0.28143898059E+02 -0.14894069486E+02  0.25283462208E+02  0.40659141224E+02  0.00000000000E+00 0. -1.
         11    1    3    3    0    0  0.25725790021E+01 -0.44885169670E+01 -0.51067118002E+00  0.51986279536E+01  0.51100000000E-03 0. -1.
        -11    1    3    3    0    0 -0.18410535065E+02  0.16022977276E+02 -0.11704102543E+02  0.27067870599E+02  0.51100000000E-03 0.  1.
         12    1    3    3    0    0 -0.12305941996E+02  0.33596091774E+01 -0.13068688485E+02  0.18262360224E+02  0.00000000000E+00 0. -1.
</event>
<event>
 7    1  0.5748623E-013  0.5052884E+02  0.7816164E-02  0.1300439E+00
        -11   -1    0    0    0    0  0.00000000000E+00  0.00000000000E+00  0.45593999997E+02  0.45594000000E+02  0.51100000000E-03 0.  1.
         11   -1    0    0    0    0 -0.00000000000E+00 -0.00000000000E+00 -0.45593999997E+02  0.45594000000E+02  0.51100000000E-03 0. -1.
    9900012    2    1    2    0    0 -0.20118163115E+02  0.27551395103E+02  0.22121195406E+02  0.50528841801E+02  0.29999945140E+02 0.  0.
         12    1    1    2    0    0  0.20118163115E+02 -0.27551395103E+02 -0.22121195406E+02  0.40659158199E+02  0.00000000000E+00 0. -1.
         11    1    3    3    0    0 -0.71520900387E+01  0.13794511425E+00  0.77961358630E+01  0.10580697304E+02  0.51100000000E-03 0. -1.
        -11    1    3    3    0    0 -0.72478350686E+01  0.29655878268E+02  0.14513563701E+02  0.33803043659E+02  0.51100000000E-03 0.  1.
        -12    1    3    3    0    0 -0.57182380076E+01 -0.22424282800E+01 -0.18850415783E+00  0.61451008389E+01  0.00000000000E+00 0.  1.
</event>
<event>
 7    1  0.5748623E-013  0.5052886E+02  0.7816164E-02  0.1300439E+00
        -11   -1    0    0    0    0  0.00000000000E+00  0.00000000000E+00  0.45593999997E+02  0.45594000000E+02  0.51100000000E-03 0.  1.
         11   -1    0    0    0    0 -0.00000000000E+00 -0.00000000000E+00 -0.45593999997E+02  0.45594000000E+02  0.51100000000E-03 0. -1.
    9900012    2    1    2    0    0 -0.21073816513E+02 -0.17297896865E+02  0.30163599859E+02  0.50528859148E+02  0.29999997866E+02 0.  0.
         12    1    1    2    0    0  0.21073816513E+02  0.17297896865E+02 -0.30163599859E+02  0.40659140852E+02  0.00000000000E+00 0. -1.
         11    1    3    3    0    0 -0.58832523619E+01 -0.15073712876E+02  0.11855859663E+02  0.20059683119E+02  0.51100000000E-03 0.  1.
        -11    1    3    3    0    0 -0.10330384162E+02  0.75029499537E+01  0.13496219709E+02  0.18578456385E+02  0.51100000000E-03 0. -1.
         12    1    3    3    0    0 -0.48601799894E+01 -0.97271339427E+01  0.48115204865E+01  0.11890719644E+02  0.00000000000E+00 0. -1.
</event>
<event>
 7    1  0.5748623E-013  0.5052880E+02  0.7816164E-02  0.1300439E+00
        -11   -1    0    0    0    0  0.00000000000E+00  0.00000000000E+00  0.45593999997E+02  0.45594000000E+02  0.51100000000E-03 0.  1.
         11   -1    0    0    0    0 -0.00000000000E+00 -0.00000000000E+00 -0.45593999997E+02  0.45594000000E+02  0.51100000000E-03 0. -1.
    9900012    2    1    2    0    0  0.71726370791E+01 -0.39575574431E+02  0.59580154751E+01  0.50528797319E+02  0.29999809932E+02 0.  0.
         12    1    1    2    0    0 -0.71726370791E+01  0.39575574431E+02 -0.59580154751E+01  0.40659202681E+02  0.00000000000E+00 0. -1.
         11    1    3    3    0    0  0.10550012112E+02 -0.48096596854E+01 -0.22875245399E+01  0.11818136513E+02  0.51100000000E-03 0. -1.
        -11    1    3    3    0    0 -0.59874127341E+01 -0.98596937959E+01  0.72981989743E+01  0.13650142180E+02  0.51100000000E-03 0.  1.
         12    1    3    3    0    0  0.26100377009E+01 -0.24906220950E+02  0.94734104067E+00  0.25060518627E+02  0.00000000000E+00 0. -1.
</event>
<event>
 7    1  0.5748623E-013  0.5052887E+02  0.7816164E-02  0.1300439E+00
        -11   -1    0    0    0    0  0.00000000000E+00  0.00000000000E+00  0.45593999997E+02  0.45594000000E+02  0.51100000000E-03 0.  1.
         11   -1    0    0    0    0 -0.00000000000E+00 -0.00000000000E+00 -0.45593999997E+02  0.45594000000E+02  0.51100000000E-03 0. -1.
    9900012    2    1    2    0    0  0.94991493651E+00  0.34714644368E+02  0.21146055629E+02  0.50528873833E+02  0.30000042503E+02 0.  0.
         12    1    1    2    0    0 -0.94991493651E+00 -0.34714644368E+02 -0.21146055629E+02  0.40659126167E+02  0.00000000000E+00 0. -1.
         11    1    3    3    0    0  0.14169312349E+01 -0.56068722344E-01 -0.47774872589E+01  0.49834950182E+01  0.51100000000E-03 0. -1.
        -11    1    3    3    0    0  0.27501763122E+01  0.24304535003E+02  0.24295926171E+02  0.34475584407E+02  0.51100000000E-03 0.  1.
         12    1    3    3    0    0 -0.32171926106E+01  0.10466178088E+02  0.16276167168E+01  0.11069794408E+02  0.00000000000E+00 0. -1.
</event>
<event>
 7    1  0.5748623E-013  0.5052886E+02  0.7816164E-02  0.1300439E+00
        -11   -1    0    0    0    0  0.00000000000E+00  0.00000000000E+00  0.45593999997E+02  0.45594000000E+02  0.51100000000E-03 0. -1.
         11   -1    0    0    0    0 -0.00000000000E+00 -0.00000000000E+00 -0.45593999997E+02  0.45594000000E+02  0.51100000000E-03 0.  1.
    9900012    2    1    2    0    0 -0.22122239667E+02  0.58376647971E+01 -0.33610919569E+02  0.50528859177E+02  0.29999997954E+02 0.  0.
         12    1    1    2    0    0  0.22122239667E+02 -0.58376647971E+01  0.33610919569E+02  0.40659140823E+02  0.00000000000E+00 0. -1.
         11    1    3    3    0    0 -0.76572272705E+01  0.46820824025E+01 -0.12587728116E+02  0.15459816444E+02  0.51100000000E-03 0. -1.
        -11    1    3    3    0    0 -0.15164034875E+02 -0.58804128008E+01 -0.41664923713E+01  0.16789486810E+02  0.51100000000E-03 0.  1.
        -12    1    3    3    0    0  0.69902247764E+00  0.70359951954E+01 -0.16856699082E+02  0.18279555924E+02  0.00000000000E+00 0.  1.
</event>
<event>
 7    1  0.5748623E-013  0.5052886E+02  0.7816164E-02  0.1300439E+00
        -11   -1    0    0    0    0  0.00000000000E+00  0.00000000000E+00  0.45593999997E+02  0.45594000000E+02  0.51100000000E-03 0.  1.
         11   -1    0    0    0    0 -0.00000000000E+00 -0.00000000000E+00 -0.45593999997E+02  0.45594000000E+02  0.51100000000E-03 0. -1.
    9900012    2    1    2    0    0  0.19572136825E+02 -0.15266719586E+02  0.32202863832E+02  0.50528859505E+02  0.29999998951E+02 0.  0.
         12    1    1    2    0    0 -0.19572136825E+02  0.15266719586E+02 -0.32202863832E+02  0.40659140495E+02  0.00000000000E+00 0. -1.
         11    1    3    3    0    0 -0.18116747487E+01  0.52175525207E+01  0.17097913105E+00  0.55257808340E+01  0.51100000000E-03 0. -1.
        -11    1    3    3    0    0  0.11531062812E+02 -0.16408379176E+02  0.15568825977E+02  0.25388750645E+02  0.51100000000E-03 0.  1.
         12    1    3    3    0    0  0.98527487620E+01 -0.40758929300E+01  0.16463058724E+02  0.19614328026E+02  0.00000000000E+00 0. -1.
</event>
<event>
 7    1  0.5748623E-013  0.5052886E+02  0.7816164E-02  0.1300439E+00
        -11   -1    0    0    0    0  0.00000000000E+00  0.00000000000E+00  0.45593999997E+02  0.45594000000E+02  0.51100000000E-03 0.  1.
         11   -1    0    0    0    0 -0.00000000000E+00 -0.00000000000E+00 -0.45593999997E+02  0.45594000000E+02  0.51100000000E-03 0. -1.
    9900012    2    1    2    0    0  0.14340501626E+02 -0.28334082926E+01  0.37940574542E+02  0.50528863437E+02  0.30000010903E+02 0.  0.
         12    1    1    2    0    0 -0.14340501626E+02  0.28334082926E+01 -0.37940574542E+02  0.40659136563E+02  0.00000000000E+00 0. -1.
         11    1    3    3    0    0  0.61818403989E+01 -0.17909376793E+01  0.75404936611E+01  0.99137103751E+01  0.51100000000E-03 0. -1.
        -11    1    3    3    0    0 -0.55787078657E+01 -0.63065960204E+01  0.20355444037E+01  0.86624809434E+01  0.51100000000E-03 0.  1.
        -12    1    3    3    0    0  0.13737369093E+02  0.52641254071E+01  0.28364536478E+02  0.31952672118E+02  0.00000000000E+00 0.  1.
</event>
<event>
 7    1  0.5748623E-013  0.5052885E+02  0.7816164E-02  0.1300439E+00
        -11   -1    0    0    0    0  0.00000000000E+00  0.00000000000E+00  0.45593999997E+02  0.45594000000E+02  0.51100000000E-03 0.  1.
         11   -1    0    0    0    0 -0.00000000000E+00 -0.00000000000E+00 -0.45593999997E+02  0.45594000000E+02  0.51100000000E-03 0. -1.
    9900012    2    1    2    0    0  0.34504329378E+02  0.13259391769E+02  0.16935345719E+02  0.50528854035E+02  0.29999982326E+02 0.  0.
         12    1    1    2    0    0 -0.34504329378E+02 -0.13259391769E+02 -0.16935345719E+02  0.40659145965E+02  0.00000000000E+00 0. -1.
         11    1    3    3    0    0 -0.21563359936E+00 -0.80194351407E+00 -0.31254925656E-01  0.83101647423E+00  0.51100000000E-03 0. -1.
        -11    1    3    3    0    0  0.23072276472E+02 -0.14644824719E+01 -0.11500155743E+01  0.23147293289E+02  0.51100000000E-03 0.  1.
        -12    1    3    3    0    0  0.11647686506E+02  0.15525817755E+02  0.18116616219E+02  0.26550544272E+02  0.00000000000E+00 0.  1.
</event>
<event>
 7    1  0.5748623E-013  0.5052885E+02  0.7816164E-02  0.1300439E+00
        -11   -1    0    0    0    0  0.00000000000E+00  0.00000000000E+00  0.45593999997E+02  0.45594000000E+02  0.51100000000E-03 0. -1.
         11   -1    0    0    0    0 -0.00000000000E+00 -0.00000000000E+00 -0.45593999997E+02  0.45594000000E+02  0.51100000000E-03 0.  1.
    9900012    2    1    2    0    0 -0.24945097508E+02  0.66160916429E+01 -0.31418714061E+02  0.50528854023E+02  0.29999982289E+02 0.  0.
         12    1    1    2    0    0  0.24945097508E+02 -0.66160916429E+01  0.31418714061E+02  0.40659145977E+02  0.00000000000E+00 0. -1.
         11    1    3    3    0    0 -0.76050623843E+01  0.42801187877E+01 -0.77545575869E+00  0.87611484750E+01  0.51100000000E-03 0. -1.
        -11    1    3    3    0    0  0.10642722356E+01  0.70860873442E+01 -0.16767265917E+02  0.18234212783E+02  0.51100000000E-03 0.  1.
        -12    1    3    3    0    0 -0.18404307359E+02 -0.47501144889E+01 -0.13875992386E+02  0.23533492765E+02  0.00000000000E+00 0.  1.
</event>
<event>
 7    1  0.5748623E-013  0.5052886E+02  0.7816164E-02  0.1300439E+00
        -11   -1    0    0    0    0  0.00000000000E+00  0.00000000000E+00  0.45593999997E+02  0.45594000000E+02  0.51100000000E-03 0. -1.
         11   -1    0    0    0    0 -0.00000000000E+00 -0.00000000000E+00 -0.45593999997E+02  0.45594000000E+02  0.51100000000E-03 0.  1.
    9900012    2    1    2    0    0 -0.30738061965E+02 -0.22600603604E+02 -0.14055259595E+02  0.50528855162E+02  0.29999985750E+02 0.  0.
         12    1    1    2    0    0  0.30738061965E+02  0.22600603604E+02  0.14055259595E+02  0.40659144838E+02  0.00000000000E+00 0. -1.
         11    1    3    3    0    0 -0.28659906207E+02 -0.12797511022E+02 -0.72532855003E+01  0.32214541173E+02  0.51100000000E-03 0. -1.
        -11    1    3    3    0    0 -0.30835638704E+01 -0.75209191432E+01 -0.10851614385E+02  0.13558396879E+02  0.51100000000E-03 0.  1.
         12    1    3    3    0    0  0.10054081122E+01 -0.22821734395E+01  0.40496402902E+01  0.47559171103E+01  0.00000000000E+00 0. -1.
</event>
<event>
 7    1  0.5748623E-013  0.5052884E+02  0.7816164E-02  0.1300439E+00
        -11   -1    0    0    0    0  0.00000000000E+00  0.00000000000E+00  0.45593999997E+02  0.45594000000E+02  0.51100000000E-03 0. -1.
         11   -1    0    0    0    0 -0.00000000000E+00 -0.00000000000E+00 -0.45593999997E+02  0.45594000000E+02  0.51100000000E-03 0.  1.
    9900012    2    1    2    0    0 -0.12901900330E+02  0.23163358184E+02 -0.30824778497E+02  0.50528841575E+02  0.29999944451E+02 0.  0.
         12    1    1    2    0    0  0.12901900330E+02 -0.23163358184E+02  0.30824778497E+02  0.40659158425E+02  0.00000000000E+00 0. -1.
         11    1    3    3    0    0 -0.15592967095E+02  0.11234610432E+02 -0.26213085558E+02  0.32503583635E+02  0.51100000000E-03 0.  1.
        -11    1    3    3    0    0  0.62157401892E+01  0.12382343588E+02 -0.33494295478E+01  0.14254000750E+02  0.51100000000E-03 0. -1.
        -12    1    3    3    0    0 -0.35246734234E+01 -0.45359583557E+00 -0.12622633908E+01  0.37712571898E+01  0.00000000000E+00 0.  1.
</event>
<event>
 7    1  0.5748623E-013  0.5052886E+02  0.7816164E-02  0.1300439E+00
        -11   -1    0    0    0    0  0.00000000000E+00  0.00000000000E+00  0.45593999997E+02  0.45594000000E+02  0.51100000000E-03 0. -1.
         11   -1    0    0    0    0 -0.00000000000E+00 -0.00000000000E+00 -0.45593999997E+02  0.45594000000E+02  0.51100000000E-03 0.  1.
    9900012    2    1    2    0    0 -0.34983121869E+02 -0.25587500327E+01 -0.20562083569E+02  0.50528864518E+02  0.30000014189E+02 0.  0.
         12    1    1    2    0    0  0.34983121869E+02  0.25587500327E+01  0.20562083569E+02  0.40659135482E+02  0.00000000000E+00 0. -1.
         11    1    3    3    0    0  0.10480994188E+01  0.12599823690E+01  0.33019037411E+01  0.36862767854E+01  0.51100000000E-03 0. -1.
        -11    1    3    3    0    0 -0.25541096753E+02  0.11432730703E+01 -0.24241220972E+02  0.35231966893E+02  0.51100000000E-03 0.  1.
        -12    1    3    3    0    0 -0.10490124535E+02 -0.49620054720E+01  0.37723366147E+00  0.11610620840E+02  0.00000000000E+00 0.  1.
</event>
<event>
 7    1  0.5748623E-013  0.5052885E+02  0.7816164E-02  0.1300439E+00
        -11   -1    0    0    0    0  0.00000000000E+00  0.00000000000E+00  0.45593999997E+02  0.45594000000E+02  0.51100000000E-03 0.  1.
         11   -1    0    0    0    0 -0.00000000000E+00 -0.00000000000E+00 -0.45593999997E+02  0.45594000000E+02  0.51100000000E-03 0. -1.
    9900012    2    1    2    0    0 -0.16437547099E+02  0.16476871978E+02  0.33338955993E+02  0.50528852794E+02  0.29999978552E+02 0.  0.
         12    1    1    2    0    0  0.16437547099E+02 -0.16476871978E+02 -0.33338955993E+02  0.40659147206E+02  0.00000000000E+00 0. -1.
         11    1    3    3    0    0 -0.14353455021E+02  0.20592325648E+02  0.31818093564E+02  0.40527233127E+02  0.51100000000E-03 0. -1.
        -11    1    3    3    0    0 -0.54663626477E+01 -0.24760047371E+01  0.17048757017E+01  0.62384550550E+01  0.51100000000E-03 0.  1.
         12    1    3    3    0    0  0.33822705697E+01 -0.16394489334E+01 -0.18401327203E+00  0.37631646119E+01  0.00000000000E+00 0. -1.
</event>
<event>
 7    1  0.5748623E-013  0.5052885E+02  0.7816164E-02  0.1300439E+00
        -11   -1    0    0    0    0  0.00000000000E+00  0.00000000000E+00  0.45593999997E+02  0.45594000000E+02  0.51100000000E-03 0.  1.
         11   -1    0    0    0    0 -0.00000000000E+00 -0.00000000000E+00 -0.45593999997E+02  0.45594000000E+02  0.51100000000E-03 0. -1.
    9900012    2    1    2    0    0  0.23585384910E+01  0.35521331710E+02  0.19642770601E+02  0.50528854077E+02  0.29999982454E+02 0.  0.
         12    1    1    2    0    0 -0.23585384910E+01 -0.35521331710E+02 -0.19642770601E+02  0.40659145923E+02  0.00000000000E+00 0. -1.
         11    1    3    3    0    0 -0.66251741356E+01  0.17300908848E+01  0.28021771001E+01  0.73985365822E+01  0.51100000000E-03 0. -1.
        -11    1    3    3    0    0  0.40337937982E+00  0.27509700650E+02  0.17276846490E+02  0.32487470964E+02  0.51100000000E-03 0.  1.
        -12    1    3    3    0    0  0.85803332468E+01  0.62815401759E+01 -0.43625298952E+00  0.10642846531E+02  0.00000000000E+00 0.  1.
</event>
<event>
 7    1  0.5748623E-013  0.5052886E+02  0.7816164E-02  0.1300439E+00
        -11   -1    0    0    0    0  0.00000000000E+00  0.00000000000E+00  0.45593999997E+02  0.45594000000E+02  0.51100000000E-03 0.  1.
         11   -1    0    0    0    0 -0.00000000000E+00 -0.00000000000E+00 -0.45593999997E+02  0.45594000000E+02  0.51100000000E-03 0. -1.
    9900012    2    1    2    0    0  0.15018148657E+02 -0.27388070578E+02  0.26029109707E+02  0.50528858947E+02  0.29999997254E+02 0.  0.
         12    1    1    2    0    0 -0.15018148657E+02  0.27388070578E+02 -0.26029109707E+02  0.40659141053E+02  0.00000000000E+00 0. -1.
         11    1    3    3    0    0  0.14407259203E+01  0.17543259785E+01 -0.35852368272E+01  0.42434978713E+01  0.51100000000E-03 0. -1.
        -11    1    3    3    0    0  0.26086157496E+01 -0.19809874950E+02  0.22911418561E+02  0.30400150039E+02  0.51100000000E-03 0.  1.
         12    1    3    3    0    0  0.10968806987E+02 -0.93325216063E+01  0.67029279736E+01  0.15885211036E+02  0.00000000000E+00 0. -1.
</event>
<event>
 7    1  0.5748623E-013  0.5052886E+02  0.7816164E-02  0.1300439E+00
        -11   -1    0    0    0    0  0.00000000000E+00  0.00000000000E+00  0.45593999997E+02  0.45594000000E+02  0.51100000000E-03 0. -1.
         11   -1    0    0    0    0 -0.00000000000E+00 -0.00000000000E+00 -0.45593999997E+02  0.45594000000E+02  0.51100000000E-03 0.  1.
    9900012    2    1    2    0    0  0.16838586887E+02 -0.10321146031E+02 -0.35540140682E+02  0.50528860026E+02  0.30000000536E+02 0.  0.
         12    1    1    2    0    0 -0.16838586887E+02  0.10321146031E+02  0.35540140682E+02  0.40659139974E+02  0.00000000000E+00 0. -1.
         11    1    3    3    0    0  0.32733144921E+01  0.87917867679E+01 -0.84891981825E+01  0.12652137700E+02  0.51100000000E-03 0. -1.
        -11    1    3    3    0    0  0.97881264832E+01 -0.81637305969E+01 -0.21589909506E+02  0.25071460070E+02  0.51100000000E-03 0.  1.
         12    1    3    3    0    0  0.37771459113E+01 -0.10949202202E+02 -0.54610329932E+01  0.12805262256E+02  0.00000000000E+00 0. -1.
</event>
<event>
 7    1  0.5748623E-013  0.5052886E+02  0.7816164E-02  0.1300439E+00
        -11   -1    0    0    0    0  0.00000000000E+00  0.00000000000E+00  0.45593999997E+02  0.45594000000E+02  0.51100000000E-03 0. -1.
         11   -1    0    0    0    0 -0.00000000000E+00 -0.00000000000E+00 -0.45593999997E+02  0.45594000000E+02  0.51100000000E-03 0.  1.
    9900012    2    1    2    0    0  0.64574809180E+01  0.20615218124E+02 -0.34445311193E+02  0.50528859069E+02  0.29999997625E+02 0.  0.
         12    1    1    2    0    0 -0.64574809180E+01 -0.20615218124E+02  0.34445311193E+02  0.40659140931E+02  0.00000000000E+00 0. -1.
         11    1    3    3    0    0 -0.37793605377E-01  0.36255103247E+01  0.37400818744E+01  0.52090273717E+01  0.51100000000E-03 0. -1.
        -11    1    3    3    0    0  0.18499686496E+01  0.17576869487E+02 -0.20701661295E+02  0.27219983571E+02  0.51100000000E-03 0.  1.
        -12    1    3    3    0    0  0.46453058737E+01 -0.58716168710E+00 -0.17483731772E+02  0.18099848126E+02  0.00000000000E+00 0.  1.
</event>
<event>
 7    1  0.5748623E-013  0.5052887E+02  0.7816164E-02  0.1300439E+00
        -11   -1    0    0    0    0  0.00000000000E+00  0.00000000000E+00  0.45593999997E+02  0.45594000000E+02  0.51100000000E-03 0.  1.
         11   -1    0    0    0    0 -0.00000000000E+00 -0.00000000000E+00 -0.45593999997E+02  0.45594000000E+02  0.51100000000E-03 0. -1.
    9900012    2    1    2    0    0 -0.52389829342E+01 -0.24719118323E+02  0.31854093855E+02  0.50528867592E+02  0.30000023533E+02 0.  0.
         12    1    1    2    0    0  0.52389829342E+01  0.24719118323E+02 -0.31854093855E+02  0.40659132408E+02  0.00000000000E+00 0. -1.
         11    1    3    3    0    0 -0.31335695575E+01 -0.48232247442E+00  0.20419657596E+01  0.37711427400E+01  0.51100000000E-03 0. -1.
        -11    1    3    3    0    0 -0.90072861261E+01 -0.81168284625E+01 -0.53114410778E-01  0.12125053775E+02  0.51100000000E-03 0.  1.
        -12    1    3    3    0    0  0.69018727494E+01 -0.16119967386E+02  0.29865242506E+02  0.34632671077E+02  0.00000000000E+00 0.  1.
</event>
<event>
 7    1  0.5748623E-013  0.5052886E+02  0.7816164E-02  0.1300439E+00
        -11   -1    0    0    0    0  0.00000000000E+00  0.00000000000E+00  0.45593999997E+02  0.45594000000E+02  0.51100000000E-03 0. -1.
         11   -1    0    0    0    0 -0.00000000000E+00 -0.00000000000E+00 -0.45593999997E+02  0.45594000000E+02  0.51100000000E-03 0.  1.
    9900012    2    1    2    0    0 -0.28235320937E+02 -0.19936359197E+02 -0.21412004782E+02  0.50528859389E+02  0.29999998598E+02 0.  0.
         12    1    1    2    0    0  0.28235320937E+02  0.19936359197E+02  0.21412004782E+02  0.40659140611E+02  0.00000000000E+00 0. -1.
         11    1    3    3    0    0  0.36603754569E+01 -0.75086582812E+00 -0.71747249024E+00  0.38048541382E+01  0.51100000000E-03 0. -1.
        -11    1    3    3    0    0 -0.23250258263E+02 -0.80931461711E+01 -0.21432834808E+02  0.32641077378E+02  0.51100000000E-03 0.  1.
        -12    1    3    3    0    0 -0.86454381316E+01 -0.11092347198E+02  0.73830251672E+00  0.14082927872E+02  0.00000000000E+00 0.  1.
</event>
<event>
 7    1  0.5748623E-013  0.5052884E+02  0.7816164E-02  0.1300439E+00
        -11   -1    0    0    0    0  0.00000000000E+00  0.00000000000E+00  0.45593999997E+02  0.45594000000E+02  0.51100000000E-03 0.  1.
         11   -1    0    0    0    0 -0.00000000000E+00 -0.00000000000E+00 -0.45593999997E+02  0.45594000000E+02  0.51100000000E-03 0. -1.
    9900012    2    1    2    0    0  0.23283146337E+02 -0.30705530965E+02  0.12970472563E+02  0.50528835059E+02  0.29999924647E+02 0.  0.
         12    1    1    2    0    0 -0.23283146337E+02  0.30705530965E+02 -0.12970472563E+02  0.40659164941E+02  0.00000000000E+00 0. -1.
         11    1    3    3    0    0 -0.41512956365E+01 -0.70001628593E+01  0.65843872744E+01  0.10468509519E+02  0.51100000000E-03 0. -1.
        -11    1    3    3    0    0  0.20486596513E+02 -0.74897425210E+01  0.21574720174E+01  0.21919205403E+02  0.51100000000E-03 0.  1.
        -12    1    3    3    0    0  0.69478454597E+01 -0.16215625584E+02  0.42286132708E+01  0.18141120137E+02  0.00000000000E+00 0.  1.
</event>
<event>
 7    1  0.5748623E-013  0.5052884E+02  0.7816164E-02  0.1300439E+00
        -11   -1    0    0    0    0  0.00000000000E+00  0.00000000000E+00  0.45593999997E+02  0.45594000000E+02  0.51100000000E-03 0.  1.
         11   -1    0    0    0    0 -0.00000000000E+00 -0.00000000000E+00 -0.45593999997E+02  0.45594000000E+02  0.51100000000E-03 0. -1.
    9900012    2    1    2    0    0  0.21953240825E+02 -0.22064917216E+02 -0.26160317650E+02  0.50528836531E+02  0.29999929119E+02 0.  0.
         12    1    1    2    0    0 -0.21953240825E+02  0.22064917216E+02  0.26160317650E+02  0.40659163469E+02  0.00000000000E+00 0. -1.
         11    1    3    3    0    0 -0.46922134420E+01 -0.23173002118E+01 -0.76953612657E+01  0.93061986078E+01  0.51100000000E-03 0. -1.
        -11    1    3    3    0    0  0.25038154966E+02 -0.20435896658E+02 -0.20703711308E+02  0.38382010611E+02  0.51100000000E-03 0.  1.
        -12    1    3    3    0    0  0.16072993003E+01  0.68827965378E+00  0.22387549231E+01  0.28406273125E+01  0.00000000000E+00 0.  1.
</event>
<event>
 7    1  0.5748623E-013  0.5052883E+02  0.7816164E-02  0.1300439E+00
        -11   -1    0    0    0    0  0.00000000000E+00  0.00000000000E+00  0.45593999997E+02  0.45594000000E+02  0.51100000000E-03 0. -1.
         11   -1    0    0    0    0 -0.00000000000E+00 -0.00000000000E+00 -0.45593999997E+02  0.45594000000E+02  0.51100000000E-03 0.  1.
    9900012    2    1    2    0    0 -0.33216774594E+02 -0.23309000606E+02  0.25503219528E+01  0.50528834173E+02  0.29999921952E+02 0.  0.
         12    1    1    2    0    0  0.33216774594E+02  0.23309000606E+02 -0.25503219528E+01  0.40659165827E+02  0.00000000000E+00 0. -1.
         11    1    3    3    0    0 -0.81840797936E+01 -0.27272401286E+01  0.74328179201E+01  0.11387000627E+02  0.51100000000E-03 0. -1.
        -11    1    3    3    0    0 -0.12847831178E+02 -0.42524087643E+00 -0.83586315907E+01  0.15333437909E+02  0.51100000000E-03 0.  1.
        -12    1    3    3    0    0 -0.12184863622E+02 -0.20156519601E+02  0.34761356234E+01  0.23808395637E+02  0.00000000000E+00 0.  1.
</event>
<event>
 7    1  0.5748623E-013  0.5052885E+02  0.7816164E-02  0.1300439E+00
        -11   -1    0    0    0    0  0.00000000000E+00  0.00000000000E+00  0.45593999997E+02  0.45594000000E+02  0.51100000000E-03 0. -1.
         11   -1    0    0    0    0 -0.00000000000E+00 -0.00000000000E+00 -0.45593999997E+02  0.45594000000E+02  0.51100000000E-03 0.  1.
    9900012    2    1    2    0    0 -0.19804151951E+01 -0.39183014148E+02 -0.10674061813E+02  0.50528852965E+02  0.29999979072E+02 0.  0.
         12    1    1    2    0    0  0.19804151951E+01  0.39183014148E+02  0.10674061813E+02  0.40659147035E+02  0.00000000000E+00 0. -1.
         11    1    3    3    0    0 -0.33599710472E+00 -0.36736038700E+01 -0.95288436624E+01  0.10217980292E+02  0.51100000000E-03 0. -1.
        -11    1    3    3    0    0 -0.14198514245E+01 -0.37842503747E+02 -0.47140154750E+00  0.37872064739E+02  0.51100000000E-03 0.  1.
        -12    1    3    3    0    0 -0.22456666586E+00  0.23330934693E+01 -0.67381660273E+00  0.24388079338E+01  0.00000000000E+00 0.  1.
</event>
<event>
 7    1  0.5748623E-013  0.5052884E+02  0.7816164E-02  0.1300439E+00
        -11   -1    0    0    0    0  0.00000000000E+00  0.00000000000E+00  0.45593999997E+02  0.45594000000E+02  0.51100000000E-03 0.  1.
         11   -1    0    0    0    0 -0.00000000000E+00 -0.00000000000E+00 -0.45593999997E+02  0.45594000000E+02  0.51100000000E-03 0. -1.
    9900012    2    1    2    0    0 -0.18169282333E+02 -0.30304656752E+02  0.20116472260E+02  0.50528837471E+02  0.29999931978E+02 0.  0.
         12    1    1    2    0    0  0.18169282333E+02  0.30304656752E+02 -0.20116472260E+02  0.40659162529E+02  0.00000000000E+00 0. -1.
         11    1    3    3    0    0 -0.10643614545E+02 -0.11835126833E+02 -0.36441126640E+01  0.16329002269E+02  0.51100000000E-03 0.  1.
        -11    1    3    3    0    0 -0.34074677202E+01 -0.29604700425E+00  0.11242538570E+02  0.11751304347E+02  0.51100000000E-03 0. -1.
        -12    1    3    3    0    0 -0.41182000675E+01 -0.18173482915E+02  0.12518046354E+02  0.22448530855E+02  0.00000000000E+00 0.  1.
</event>
<event>
 7    1  0.5748623E-013  0.5052886E+02  0.7816164E-02  0.1300439E+00
        -11   -1    0    0    0    0  0.00000000000E+00  0.00000000000E+00  0.45593999997E+02  0.45594000000E+02  0.51100000000E-03 0.  1.
         11   -1    0    0    0    0 -0.00000000000E+00 -0.00000000000E+00 -0.45593999997E+02  0.45594000000E+02  0.51100000000E-03 0. -1.
    9900012    2    1    2    0    0 -0.21758309807E+02  0.36878144225E+01  0.34148810555E+02  0.50528864702E+02  0.30000014747E+02 0.  0.
         12    1    1    2    0    0  0.21758309807E+02 -0.36878144225E+01 -0.34148810555E+02  0.40659135298E+02  0.00000000000E+00 0. -1.
         11    1    3    3    0    0  0.57338942115E+01  0.17457731568E+01  0.62199739930E+01  0.86379015669E+01  0.51100000000E-03 0. -1.
        -11    1    3    3    0    0 -0.18782075157E+02 -0.41955965273E+01  0.11845967870E+02  0.22598591382E+02  0.51100000000E-03 0.  1.
        -12    1    3    3    0    0 -0.87101288616E+01  0.61376377930E+01  0.16082868692E+02  0.19292371753E+02  0.00000000000E+00 0.  1.
</event>
<event>
 7    1  0.5748623E-013  0.5052886E+02  0.7816164E-02  0.1300439E+00
        -11   -1    0    0    0    0  0.00000000000E+00  0.00000000000E+00  0.45593999997E+02  0.45594000000E+02  0.51100000000E-03 0. -1.
         11   -1    0    0    0    0 -0.00000000000E+00 -0.00000000000E+00 -0.45593999997E+02  0.45594000000E+02  0.51100000000E-03 0.  1.
    9900012    2    1    2    0    0 -0.49454552947E+01  0.39120555295E+02 -0.99141435868E+01  0.50528860588E+02  0.30000002243E+02 0.  0.
         12    1    1    2    0    0  0.49454552947E+01 -0.39120555295E+02  0.99141435868E+01  0.40659139412E+02  0.00000000000E+00 0. -1.
         11    1    3    3    0    0 -0.75830170999E+01  0.16926427940E+01 -0.55714718675E+01  0.95607785769E+01  0.51100000000E-03 0. -1.
        -11    1    3    3    0    0  0.69280024543E+01  0.33277605447E+02 -0.74674459242E+00  0.33999321611E+02  0.51100000000E-03 0.  1.
        -12    1    3    3    0    0 -0.42904406492E+01  0.41503070542E+01 -0.35959271269E+01  0.69687603998E+01  0.00000000000E+00 0.  1.
</event>
<event>
 7    1  0.5748623E-013  0.5052886E+02  0.7816164E-02  0.1300439E+00
        -11   -1    0    0    0    0  0.00000000000E+00  0.00000000000E+00  0.45593999997E+02  0.45594000000E+02  0.51100000000E-03 0.  1.
         11   -1    0    0    0    0 -0.00000000000E+00 -0.00000000000E+00 -0.45593999997E+02  0.45594000000E+02  0.51100000000E-03 0. -1.
    9900012    2    1    2    0    0  0.40645624911E+02 -0.40237078420E+00  0.96801242735E+00  0.50528858658E+02  0.29999996376E+02 0.  0.
         12    1    1    2    0    0 -0.40645624911E+02  0.40237078420E+00 -0.96801242735E+00  0.40659141342E+02  0.00000000000E+00 0. -1.
         11    1    3    3    0    0  0.16046164403E+02 -0.13408585955E+02 -0.13615650415E+01  0.20955272105E+02  0.51100000000E-03 0. -1.
        -11    1    3    3    0    0  0.19324786998E+02  0.10563605827E+02 -0.22988122713E+01  0.22143208862E+02  0.51100000000E-03 0.  1.
         12    1    3    3    0    0  0.52746735098E+01  0.24426093437E+01  0.46283897401E+01  0.74303776908E+01  0.00000000000E+00 0. -1.
</event>
<event>
 7    1  0.5748623E-013  0.5052886E+02  0.7816164E-02  0.1300439E+00
        -11   -1    0    0    0    0  0.00000000000E+00  0.00000000000E+00  0.45593999997E+02  0.45594000000E+02  0.51100000000E-03 0.  1.
         11   -1    0    0    0    0 -0.00000000000E+00 -0.00000000000E+00 -0.45593999997E+02  0.45594000000E+02  0.51100000000E-03 0. -1.
    9900012    2    1    2    0    0 -0.38562221694E+02  0.12269433194E+02 -0.39474085567E+01  0.50528856291E+02  0.29999989181E+02 0.  0.
         12    1    1    2    0    0  0.38562221694E+02 -0.12269433194E+02  0.39474085567E+01  0.40659143709E+02  0.00000000000E+00 0. -1.
         11    1    3    3    0    0 -0.19933688552E+02  0.73193346539E+01  0.56960070203E+01  0.21985656581E+02  0.51100000000E-03 0.  1.
        -11    1    3    3    0    0  0.38810375705E+01  0.43591674964E+00 -0.12917210352E+01  0.41135166865E+01  0.51100000000E-03 0. -1.
        -12    1    3    3    0    0 -0.22509570713E+02  0.45141817904E+01 -0.83516945417E+01  0.24429683023E+02  0.00000000000E+00 0.  1.
</event>
<event>
 7    1  0.5748623E-013  0.5052886E+02  0.7816164E-02  0.1300439E+00
        -11   -1    0    0    0    0  0.00000000000E+00  0.00000000000E+00  0.45593999997E+02  0.45594000000E+02  0.51100000000E-03 0. -1.
         11   -1    0    0    0    0 -0.00000000000E+00 -0.00000000000E+00 -0.45593999997E+02  0.45594000000E+02  0.51100000000E-03 0.  1.
    9900012    2    1    2    0    0  0.34739826220E+02  0.14461683391E+02 -0.15400322152E+02  0.50528859149E+02  0.29999997870E+02 0.  0.
         12    1    1    2    0    0 -0.34739826220E+02 -0.14461683391E+02  0.15400322152E+02  0.40659140851E+02  0.00000000000E+00 0. -1.
         11    1    3    3    0    0 -0.33256227120E+01 -0.22129572741E+01 -0.20490537249E+01  0.44894952666E+01  0.51100000000E-03 0. -1.
        -11    1    3    3    0    0  0.36908929082E+02  0.13230083420E+02 -0.15088989830E+02  0.42011686084E+02  0.51100000000E-03 0.  1.
        -12    1    3    3    0    0  0.11565198501E+01  0.34445572447E+01  0.17377214024E+01  0.40276777985E+01  0.00000000000E+00 0.  1.
</event>
<event>
 7    1  0.5748623E-013  0.5052886E+02  0.7816164E-02  0.1300439E+00
        -11   -1    0    0    0    0  0.00000000000E+00  0.00000000000E+00  0.45593999997E+02  0.45594000000E+02  0.51100000000E-03 0.  1.
         11   -1    0    0    0    0 -0.00000000000E+00 -0.00000000000E+00 -0.45593999997E+02  0.45594000000E+02  0.51100000000E-03 0. -1.
    9900012    2    1    2    0    0 -0.25803271806E+02  0.12293734830E+02  0.28917486511E+02  0.50528858616E+02  0.29999996249E+02 0.  0.
         12    1    1    2    0    0  0.25803271806E+02 -0.12293734830E+02 -0.28917486511E+02  0.40659141384E+02  0.00000000000E+00 0. -1.
         11    1    3    3    0    0 -0.77717429708E+01 -0.96162881187E+01  0.86676470753E+01  0.15099705032E+02  0.51100000000E-03 0. -1.
        -11    1    3    3    0    0 -0.10096266190E+02  0.10498485851E+02  0.13952103404E+02  0.20169630284E+02  0.51100000000E-03 0.  1.
         12    1    3    3    0    0 -0.79352626458E+01  0.11411537098E+02  0.62977360313E+01  0.15259523299E+02  0.00000000000E+00 0. -1.
</event>
<event>
 7    1  0.5748623E-013  0.5052884E+02  0.7816164E-02  0.1300439E+00
        -11   -1    0    0    0    0  0.00000000000E+00  0.00000000000E+00  0.45593999997E+02  0.45594000000E+02  0.51100000000E-03 0.  1.
         11   -1    0    0    0    0 -0.00000000000E+00 -0.00000000000E+00 -0.45593999997E+02  0.45594000000E+02  0.51100000000E-03 0. -1.
    9900012    2    1    2    0    0  0.29966081914E+02  0.46384659830E+01  0.27086636189E+02  0.50528839999E+02  0.29999939662E+02 0.  0.
         12    1    1    2    0    0 -0.29966081914E+02 -0.46384659830E+01 -0.27086636189E+02  0.40659160001E+02  0.00000000000E+00 0. -1.
         11    1    3    3    0    0  0.17195894812E+01 -0.70441913944E+01  0.11661944149E+02  0.13732390978E+02  0.51100000000E-03 0. -1.
        -11    1    3    3    0    0  0.25223415984E+02  0.14052514212E+02  0.15839241779E+02  0.32932893131E+02  0.51100000000E-03 0.  1.
         12    1    3    3    0    0  0.30230764483E+01 -0.23698568346E+01 -0.41454973925E+00  0.38635558900E+01  0.00000000000E+00 0. -1.
</event>
<event>
 7    1  0.5748623E-013  0.5052886E+02  0.7816164E-02  0.1300439E+00
        -11   -1    0    0    0    0  0.00000000000E+00  0.00000000000E+00  0.45593999997E+02  0.45594000000E+02  0.51100000000E-03 0. -1.
         11   -1    0    0    0    0 -0.00000000000E+00 -0.00000000000E+00 -0.45593999997E+02  0.45594000000E+02  0.51100000000E-03 0.  1.
    9900012    2    1    2    0    0  0.14492784263E+02  0.30632103733E+02 -0.22467732246E+02  0.50528861211E+02  0.30000004137E+02 0.  0.
         12    1    1    2    0    0 -0.14492784263E+02 -0.30632103733E+02  0.22467732246E+02  0.40659138789E+02  0.00000000000E+00 0. -1.
         11    1    3    3    0    0  0.18175544692E+02  0.72062051583E+01 -0.13785036975E+02  0.23922940084E+02  0.51100000000E-03 0. -1.
        -11    1    3    3    0    0  0.21781391850E+01  0.12769313718E+02 -0.51646636882E+01  0.13945372509E+02  0.51100000000E-03 0.  1.
         12    1    3    3    0    0 -0.58608996139E+01  0.10656584857E+02 -0.35180315826E+01  0.12660548618E+02  0.00000000000E+00 0. -1.
</event>
<event>
 7    1  0.5748623E-013  0.5052878E+02  0.7816164E-02  0.1300439E+00
        -11   -1    0    0    0    0  0.00000000000E+00  0.00000000000E+00  0.45593999997E+02  0.45594000000E+02  0.51100000000E-03 0.  1.
         11   -1    0    0    0    0 -0.00000000000E+00 -0.00000000000E+00 -0.45593999997E+02  0.45594000000E+02  0.51100000000E-03 0. -1.
    9900012    2    1    2    0    0 -0.88295915951E+00 -0.21662955144E+02  0.34396355036E+02  0.50528776173E+02  0.29999745653E+02 0.  0.
         12    1    1    2    0    0  0.88295915951E+00  0.21662955144E+02 -0.34396355036E+02  0.40659223827E+02  0.00000000000E+00 0. -1.
         11    1    3    3    0    0 -0.14547554277E+01  0.54015733128E+01  0.13363766025E+02  0.14487358290E+02  0.51100000000E-03 0. -1.
        -11    1    3    3    0    0 -0.11914042246E+01 -0.15748502028E+02  0.54594000767E+01  0.16710470059E+02  0.51100000000E-03 0.  1.
         12    1    3    3    0    0  0.17632004928E+01 -0.11316026430E+02  0.15573188935E+02  0.19330947823E+02  0.00000000000E+00 0. -1.
</event>
<event>
 7    1  0.5748623E-013  0.5052887E+02  0.7816164E-02  0.1300439E+00
        -11   -1    0    0    0    0  0.00000000000E+00  0.00000000000E+00  0.45593999997E+02  0.45594000000E+02  0.51100000000E-03 0.  1.
         11   -1    0    0    0    0 -0.00000000000E+00 -0.00000000000E+00 -0.45593999997E+02  0.45594000000E+02  0.51100000000E-03 0. -1.
    9900012    2    1    2    0    0  0.39024827600E+02  0.48711748468E+01  0.10319858794E+02  0.50528868195E+02  0.30000025367E+02 0.  0.
         12    1    1    2    0    0 -0.39024827600E+02 -0.48711748468E+01 -0.10319858794E+02  0.40659131805E+02  0.00000000000E+00 0. -1.
         11    1    3    3    0    0  0.13777923501E+02  0.15777971962E+02  0.74434345076E+01  0.22230166278E+02  0.51100000000E-03 0. -1.
        -11    1    3    3    0    0  0.15406574856E+02 -0.35102916401E+01  0.86303626475E+00  0.15824965341E+02  0.51100000000E-03 0.  1.
         12    1    3    3    0    0  0.98403292425E+01 -0.73965054748E+01  0.20133880213E+01  0.12473736576E+02  0.00000000000E+00 0. -1.
</event>
<event>
 7    1  0.5748623E-013  0.5052887E+02  0.7816164E-02  0.1300439E+00
        -11   -1    0    0    0    0  0.00000000000E+00  0.00000000000E+00  0.45593999997E+02  0.45594000000E+02  0.51100000000E-03 0. -1.
         11   -1    0    0    0    0 -0.00000000000E+00 -0.00000000000E+00 -0.45593999997E+02  0.45594000000E+02  0.51100000000E-03 0.  1.
    9900012    2    1    2    0    0  0.38026535049E+02  0.12396838747E+02 -0.73120156164E+01  0.50528873705E+02  0.30000042113E+02 0.  0.
         12    1    1    2    0    0 -0.38026535049E+02 -0.12396838747E+02  0.73120156164E+01  0.40659126295E+02  0.00000000000E+00 0. -1.
         11    1    3    3    0    0 -0.17152230963E+00 -0.16050783257E+01 -0.45882860561E+00  0.16781597912E+01  0.51100000000E-03 0. -1.
        -11    1    3    3    0    0  0.10696207856E+02  0.14442268758E+02 -0.10945426959E+02  0.21042584465E+02  0.51100000000E-03 0.  1.
        -12    1    3    3    0    0  0.27501849502E+02 -0.44035168598E+00  0.40922399481E+01  0.27808129449E+02  0.00000000000E+00 0.  1.
</event>
<event>
 7    1  0.5748623E-013  0.5052886E+02  0.7816164E-02  0.1300439E+00
        -11   -1    0    0    0    0  0.00000000000E+00  0.00000000000E+00  0.45593999997E+02  0.45594000000E+02  0.51100000000E-03 0.  1.
         11   -1    0    0    0    0 -0.00000000000E+00 -0.00000000000E+00 -0.45593999997E+02  0.45594000000E+02  0.51100000000E-03 0. -1.
    9900012    2    1    2    0    0  0.39672321372E+00 -0.32959611119E+02  0.23804879086E+02  0.50528860527E+02  0.30000002058E+02 0.  0.
         12    1    1    2    0    0 -0.39672321372E+00  0.32959611119E+02 -0.23804879086E+02  0.40659139473E+02  0.00000000000E+00 0. -1.
         11    1    3    3    0    0 -0.18646309937E+01  0.13376728447E+01  0.10616447828E+00  0.22972785072E+01  0.51100000000E-03 0. -1.
        -11    1    3    3    0    0  0.75099725304E+01 -0.28422529405E+02  0.26785429330E+02  0.39770580708E+02  0.51100000000E-03 0.  1.
        -12    1    3    3    0    0 -0.52486183230E+01 -0.58747545584E+01 -0.30867147227E+01  0.84610013120E+01  0.00000000000E+00 0.  1.
</event>
<event>
 7    1  0.5748623E-013  0.5052885E+02  0.7816164E-02  0.1300439E+00
        -11   -1    0    0    0    0  0.00000000000E+00  0.00000000000E+00  0.45593999997E+02  0.45594000000E+02  0.51100000000E-03 0.  1.
         11   -1    0    0    0    0 -0.00000000000E+00 -0.00000000000E+00 -0.45593999997E+02  0.45594000000E+02  0.51100000000E-03 0. -1.
    9900012    2    1    2    0    0 -0.71968090657E+01 -0.17762208409E+02  0.35859113714E+02  0.50528854109E+02  0.29999982549E+02 0.  0.
         12    1    1    2    0    0  0.71968090657E+01  0.17762208409E+02 -0.35859113714E+02  0.40659145891E+02  0.00000000000E+00 0. -1.
         11    1    3    3    0    0  0.11566568299E+01  0.67021638341E+01  0.13455744216E+02  0.15076932969E+02  0.51100000000E-03 0. -1.
        -11    1    3    3    0    0 -0.85279524357E+01 -0.22118895097E+02  0.15921038852E+02  0.28556102175E+02  0.51100000000E-03 0.  1.
        -12    1    3    3    0    0  0.17448654005E+00 -0.23454771463E+01  0.64823306458E+01  0.68958189650E+01  0.00000000000E+00 0.  1.
</event>
<event>
 7    1  0.5748623E-013  0.5052886E+02  0.7816164E-02  0.1300439E+00
        -11   -1    0    0    0    0  0.00000000000E+00  0.00000000000E+00  0.45593999997E+02  0.45594000000E+02  0.51100000000E-03 0.  1.
         11   -1    0    0    0    0 -0.00000000000E+00 -0.00000000000E+00 -0.45593999997E+02  0.45594000000E+02  0.51100000000E-03 0. -1.
    9900012    2    1    2    0    0 -0.39592817089E+02  0.80875588458E+01  0.44906482498E+01  0.50528859639E+02  0.29999999360E+02 0.  0.
         12    1    1    2    0    0  0.39592817089E+02 -0.80875588458E+01 -0.44906482498E+01  0.40659140361E+02  0.00000000000E+00 0. -1.
         11    1    3    3    0    0 -0.37400671407E+02  0.11126549159E+02  0.13516817005E+01  0.39044043868E+02  0.51100000000E-03 0.  1.
        -11    1    3    3    0    0 -0.60775198192E+01 -0.36736704662E+01  0.17954306325E+01  0.73250032945E+01  0.51100000000E-03 0. -1.
         12    1    3    3    0    0  0.38853741371E+01  0.63468015343E+00  0.13435359168E+01  0.41598124768E+01  0.00000000000E+00 0. -1.
</event>
<event>
 7    1  0.5748623E-013  0.5052886E+02  0.7816164E-02  0.1300439E+00
        -11   -1    0    0    0    0  0.00000000000E+00  0.00000000000E+00  0.45593999997E+02  0.45594000000E+02  0.51100000000E-03 0.  1.
         11   -1    0    0    0    0 -0.00000000000E+00 -0.00000000000E+00 -0.45593999997E+02  0.45594000000E+02  0.51100000000E-03 0. -1.
    9900012    2    1    2    0    0  0.12276870354E+02  0.15607619000E+01  0.38729935138E+02  0.50528863275E+02  0.30000010411E+02 0.  0.
         12    1    1    2    0    0 -0.12276870354E+02 -0.15607619000E+01 -0.38729935138E+02  0.40659136725E+02  0.00000000000E+00 0. -1.
         11    1    3    3    0    0 -0.22172846369E+01 -0.27877277336E+01  0.48644634128E+01  0.60291609394E+01  0.51100000000E-03 0. -1.
        -11    1    3    3    0    0  0.20841277536E+02  0.63526314967E+01  0.28913405991E+02  0.36203588531E+02  0.51100000000E-03 0.  1.
        -12    1    3    3    0    0 -0.63471225456E+01 -0.20041418632E+01  0.49520657348E+01  0.82961138046E+01  0.00000000000E+00 0.  1.
</event>
<event>
 7    1  0.5748623E-013  0.5052885E+02  0.7816164E-02  0.1300439E+00
        -11   -1    0    0    0    0  0.00000000000E+00  0.00000000000E+00  0.45593999997E+02  0.45594000000E+02  0.51100000000E-03 0.  1.
         11   -1    0    0    0    0 -0.00000000000E+00 -0.00000000000E+00 -0.45593999997E+02  0.45594000000E+02  0.51100000000E-03 0. -1.
    9900012    2    1    2    0    0 -0.25276923294E+02 -0.12537064495E+02  0.29275687532E+02  0.50528847059E+02  0.29999961122E+02 0.  0.
         12    1    1    2    0    0  0.25276923294E+02  0.12537064495E+02 -0.29275687532E+02  0.40659152941E+02  0.00000000000E+00 0. -1.
         11    1    3    3    0    0 -0.81801050920E+01 -0.30730061199E+01  0.34899215132E+01  0.94094122218E+01  0.51100000000E-03 0. -1.
        -11    1    3    3    0    0  0.44318295126E+01 -0.19813514157E+01  0.15261457465E+02  0.16014960208E+02  0.51100000000E-03 0.  1.
        -12    1    3    3    0    0 -0.21528647715E+02 -0.74827069599E+01  0.10524308554E+02  0.25104474629E+02  0.00000000000E+00 0.  1.
</event>
<event>
 7    1  0.5748623E-013  0.5052886E+02  0.7816164E-02  0.1300439E+00
        -11   -1    0    0    0    0  0.00000000000E+00  0.00000000000E+00  0.45593999997E+02  0.45594000000E+02  0.51100000000E-03 0. -1.
         11   -1    0    0    0    0 -0.00000000000E+00 -0.00000000000E+00 -0.45593999997E+02  0.45594000000E+02  0.51100000000E-03 0.  1.
    9900012    2    1    2    0    0  0.33385087764E+02 -0.11134586831E+02 -0.20362273534E+02  0.50528864588E+02  0.30000014403E+02 0.  0.
         12    1    1    2    0    0 -0.33385087764E+02  0.11134586831E+02  0.20362273534E+02  0.40659135412E+02  0.00000000000E+00 0. -1.
         11    1    3    3    0    0  0.22797855155E+02 -0.15615390900E+02 -0.31182378607E+01  0.27808380756E+02  0.51100000000E-03 0. -1.
        -11    1    3    3    0    0  0.10662965621E+01  0.64064074743E+00 -0.10187029807E+02  0.10262698743E+02  0.51100000000E-03 0.  1.
         12    1    3    3    0    0  0.95209360469E+01  0.38401633215E+01 -0.70570058663E+01  0.12457785090E+02  0.00000000000E+00 0. -1.
</event>
<event>
 7    1  0.5748623E-013  0.5052887E+02  0.7816164E-02  0.1300439E+00
        -11   -1    0    0    0    0  0.00000000000E+00  0.00000000000E+00  0.45593999997E+02  0.45594000000E+02  0.51100000000E-03 0.  1.
         11   -1    0    0    0    0 -0.00000000000E+00 -0.00000000000E+00 -0.45593999997E+02  0.45594000000E+02  0.51100000000E-03 0. -1.
    9900012    2    1    2    0    0  0.56667525584E+01  0.19759752496E+02  0.35079984978E+02  0.50528865119E+02  0.30000016015E+02 0.  0.
         12    1    1    2    0    0 -0.56667525584E+01 -0.19759752496E+02 -0.35079984978E+02  0.40659134881E+02  0.00000000000E+00 0. -1.
         11    1    3    3    0    0  0.10942768679E+02 -0.24778845971E+01  0.11271953930E+02  0.15904120350E+02  0.51100000000E-03 0. -1.
        -11    1    3    3    0    0  0.12269360801E+01  0.13975802860E+02  0.17242479897E+02  0.22229069953E+02  0.51100000000E-03 0.  1.
         12    1    3    3    0    0 -0.65029522007E+01  0.82618342335E+01  0.65655511501E+01  0.12395674815E+02  0.00000000000E+00 0. -1.
</event>
<event>
 7    1  0.5748623E-013  0.5052884E+02  0.7816164E-02  0.1300439E+00
        -11   -1    0    0    0    0  0.00000000000E+00  0.00000000000E+00  0.45593999997E+02  0.45594000000E+02  0.51100000000E-03 0. -1.
         11   -1    0    0    0    0 -0.00000000000E+00 -0.00000000000E+00 -0.45593999997E+02  0.45594000000E+02  0.51100000000E-03 0.  1.
    9900012    2    1    2    0    0 -0.25949105902E+02  0.29390008330E+02 -0.10772127292E+02  0.50528838509E+02  0.29999935132E+02 0.  0.
         12    1    1    2    0    0  0.25949105902E+02 -0.29390008330E+02  0.10772127292E+02  0.40659161491E+02  0.00000000000E+00 0. -1.
         11    1    3    3    0    0 -0.81630231160E+01  0.19885542721E+02  0.64911935023E+01  0.22454517342E+02  0.51100000000E-03 0. -1.
        -11    1    3    3    0    0 -0.17385332404E+02  0.88579092403E+01 -0.18325270901E+02  0.26768038642E+02  0.51100000000E-03 0.  1.
        -12    1    3    3    0    0 -0.40075038197E+00  0.64655636870E+00  0.10619501065E+01  0.13062825250E+01  0.00000000000E+00 0.  1.
</event>
<event>
 7    1  0.5748623E-013  0.5052887E+02  0.7816164E-02  0.1300439E+00
        -11   -1    0    0    0    0  0.00000000000E+00  0.00000000000E+00  0.45593999997E+02  0.45594000000E+02  0.51100000000E-03 0. -1.
         11   -1    0    0    0    0 -0.00000000000E+00 -0.00000000000E+00 -0.45593999997E+02  0.45594000000E+02  0.51100000000E-03 0.  1.
    9900012    2    1    2    0    0 -0.41700790713E+01 -0.40443651843E+02 -0.29416476576E+00  0.50528867363E+02  0.30000022837E+02 0.  0.
         12    1    1    2    0    0  0.41700790713E+01  0.40443651843E+02  0.29416476576E+00  0.40659132637E+02  0.00000000000E+00 0. -1.
         11    1    3    3    0    0 -0.53233885188E+01 -0.15328555431E+02  0.14058386372E+02  0.21469543651E+02  0.51100000000E-03 0. -1.
        -11    1    3    3    0    0  0.19471380424E+01 -0.19421146369E+02 -0.11076789576E+02  0.22442538635E+02  0.51100000000E-03 0.  1.
         12    1    3    3    0    0 -0.79382859496E+00 -0.56939500437E+01 -0.32757615625E+01  0.66167850768E+01  0.00000000000E+00 0. -1.
</event>
<event>
 7    1  0.5748623E-013  0.5052885E+02  0.7816164E-02  0.1300439E+00
        -11   -1    0    0    0    0  0.00000000000E+00  0.00000000000E+00  0.45593999997E+02  0.45594000000E+02  0.51100000000E-03 0.  1.
         11   -1    0    0    0    0 -0.00000000000E+00 -0.00000000000E+00 -0.45593999997E+02  0.45594000000E+02  0.51100000000E-03 0. -1.
    9900012    2    1    2    0    0  0.24004871515E+02 -0.78276028488E+01  0.31869441862E+02  0.50528849155E+02  0.29999967492E+02 0.  0.
         12    1    1    2    0    0 -0.24004871515E+02  0.78276028488E+01 -0.31869441862E+02  0.40659150845E+02  0.00000000000E+00 0. -1.
         11    1    3    3    0    0  0.13186753908E+02 -0.15458712172E+02  0.68918130219E+01  0.21455986289E+02  0.51100000000E-03 0. -1.
        -11    1    3    3    0    0  0.74894175849E+01  0.52349499088E+01  0.22491355419E+02  0.24276679039E+02  0.51100000000E-03 0.  1.
         12    1    3    3    0    0  0.33287000223E+01  0.23961594145E+01  0.24862734205E+01  0.47961838267E+01  0.00000000000E+00 0. -1.
</event>
<event>
 7    1  0.5748623E-013  0.5052893E+02  0.7816164E-02  0.1300439E+00
        -11   -1    0    0    0    0  0.00000000000E+00  0.00000000000E+00  0.45593999997E+02  0.45594000000E+02  0.51100000000E-03 0.  1.
         11   -1    0    0    0    0 -0.00000000000E+00 -0.00000000000E+00 -0.45593999997E+02  0.45594000000E+02  0.51100000000E-03 0. -1.
    9900012    2    1    2    0    0  0.34225610912E+01  0.88742685172E+01  0.39530912686E+02  0.50528934296E+02  0.30000226286E+02 0.  0.
         12    1    1    2    0    0 -0.34225610912E+01 -0.88742685172E+01 -0.39530912686E+02  0.40659065704E+02  0.00000000000E+00 0. -1.
         11    1    3    3    0    0 -0.15838045220E+01 -0.81579989230E+01  0.63326461074E+01  0.10448147691E+02  0.51100000000E-03 0. -1.
        -11    1    3    3    0    0  0.79388741176E+01  0.93441542550E+01  0.11248303861E+02  0.16639209146E+02  0.51100000000E-03 0.  1.
         12    1    3    3    0    0 -0.29325085044E+01  0.76881131852E+01  0.21949962717E+02  0.23441577459E+02  0.00000000000E+00 0. -1.
</event>
<event>
 7    1  0.5748623E-013  0.5052886E+02  0.7816164E-02  0.1300439E+00
        -11   -1    0    0    0    0  0.00000000000E+00  0.00000000000E+00  0.45593999997E+02  0.45594000000E+02  0.51100000000E-03 0.  1.
         11   -1    0    0    0    0 -0.00000000000E+00 -0.00000000000E+00 -0.45593999997E+02  0.45594000000E+02  0.51100000000E-03 0. -1.
    9900012    2    1    2    0    0 -0.94395653646E+01 -0.20764851780E+02  0.33658300778E+02  0.50528859884E+02  0.30000000102E+02 0.  0.
         12    1    1    2    0    0  0.94395653646E+01  0.20764851780E+02 -0.33658300778E+02  0.40659140116E+02  0.00000000000E+00 0. -1.
         11    1    3    3    0    0  0.19769157144E+01  0.50454698376E+01  0.10803249484E+01  0.55255826733E+01  0.51100000000E-03 0. -1.
        -11    1    3    3    0    0 -0.21459504801E+01 -0.64651431641E+01  0.17509903550E+02  0.18788291625E+02  0.51100000000E-03 0.  1.
         12    1    3    3    0    0 -0.92705305989E+01 -0.19345178454E+02  0.15068072279E+02  0.26214985585E+02  0.00000000000E+00 0. -1.
</event>
<event>
 7    1  0.5748623E-013  0.5052886E+02  0.7816164E-02  0.1300439E+00
        -11   -1    0    0    0    0  0.00000000000E+00  0.00000000000E+00  0.45593999997E+02  0.45594000000E+02  0.51100000000E-03 0. -1.
         11   -1    0    0    0    0 -0.00000000000E+00 -0.00000000000E+00 -0.45593999997E+02  0.45594000000E+02  0.51100000000E-03 0.  1.
    9900012    2    1    2    0    0 -0.60139290718E+01  0.25552542510E+02 -0.31049416641E+02  0.50528855330E+02  0.29999986260E+02 0.  0.
         12    1    1    2    0    0  0.60139290718E+01 -0.25552542510E+02  0.31049416641E+02  0.40659144670E+02  0.00000000000E+00 0. -1.
         11    1    3    3    0    0 -0.37448549183E+01  0.15030561410E+02 -0.93431630663E+00  0.15518204209E+02  0.51100000000E-03 0. -1.
        -11    1    3    3    0    0 -0.37119708338E+01 -0.16909947006E+01 -0.14893132285E+02  0.15441618440E+02  0.51100000000E-03 0.  1.
         12    1    3    3    0    0  0.14428966803E+01  0.12212975800E+02 -0.15221968049E+02  0.19569032680E+02  0.00000000000E+00 0. -1.
</event>
<event>
 7    1  0.5748623E-013  0.5052883E+02  0.7816164E-02  0.1300439E+00
        -11   -1    0    0    0    0  0.00000000000E+00  0.00000000000E+00  0.45593999997E+02  0.45594000000E+02  0.51100000000E-03 0. -1.
         11   -1    0    0    0    0 -0.00000000000E+00 -0.00000000000E+00 -0.45593999997E+02  0.45594000000E+02  0.51100000000E-03 0.  1.
    9900012    2    1    2    0    0  0.19757285396E+02 -0.35420020987E+02 -0.28705484929E+01  0.50528828075E+02  0.29999903418E+02 0.  0.
         12    1    1    2    0    0 -0.19757285396E+02  0.35420020987E+02  0.28705484929E+01  0.40659171925E+02  0.00000000000E+00 0. -1.
         11    1    3    3    0    0 -0.26021406366E+01 -0.12153212901E+02 -0.67734416842E+01  0.14154548111E+02  0.51100000000E-03 0. -1.
        -11    1    3    3    0    0  0.24412407035E+02 -0.18363417612E+02  0.16256904550E+01  0.30591233930E+02  0.51100000000E-03 0.  1.
        -12    1    3    3    0    0 -0.20529810024E+01 -0.49033904738E+01  0.22772027362E+01  0.57830460345E+01  0.00000000000E+00 0.  1.
</event>
<event>
 7    1  0.5748623E-013  0.5052886E+02  0.7816164E-02  0.1300439E+00
        -11   -1    0    0    0    0  0.00000000000E+00  0.00000000000E+00  0.45593999997E+02  0.45594000000E+02  0.51100000000E-03 0.  1.
         11   -1    0    0    0    0 -0.00000000000E+00 -0.00000000000E+00 -0.45593999997E+02  0.45594000000E+02  0.51100000000E-03 0. -1.
    9900012    2    1    2    0    0  0.37230753455E+02  0.16076061543E+02  0.29320951993E+01  0.50528856628E+02  0.29999990205E+02 0.  0.
         12    1    1    2    0    0 -0.37230753455E+02 -0.16076061543E+02 -0.29320951993E+01  0.40659143372E+02  0.00000000000E+00 0. -1.
         11    1    3    3    0    0  0.23448307668E+02 -0.12833258669E+01  0.74063155028E+01  0.24623638386E+02  0.51100000000E-03 0. -1.
        -11    1    3    3    0    0  0.15024113198E+02  0.11161946248E+02 -0.54861477631E+01  0.19504123640E+02  0.51100000000E-03 0.  1.
         12    1    3    3    0    0 -0.12416674114E+01  0.61974411616E+01  0.10119274596E+01  0.64010946014E+01  0.00000000000E+00 0. -1.
</event>
<event>
 7    1  0.5748623E-013  0.5052884E+02  0.7816164E-02  0.1300439E+00
        -11   -1    0    0    0    0  0.00000000000E+00  0.00000000000E+00  0.45593999997E+02  0.45594000000E+02  0.51100000000E-03 0.  1.
         11   -1    0    0    0    0 -0.00000000000E+00 -0.00000000000E+00 -0.45593999997E+02  0.45594000000E+02  0.51100000000E-03 0. -1.
    9900012    2    1    2    0    0  0.43177742034E+01  0.27799158188E+01  0.40333558970E+02  0.50528842542E+02  0.29999947390E+02 0.  0.
         12    1    1    2    0    0 -0.43177742034E+01 -0.27799158188E+01 -0.40333558970E+02  0.40659157458E+02  0.00000000000E+00 0. -1.
         11    1    3    3    0    0  0.11188824857E+02 -0.43996212072E+01  0.38080328787E+02  0.39933168034E+02  0.51100000000E-03 0.  1.
        -11    1    3    3    0    0 -0.34176987676E+01  0.49347765502E+01  0.23089036169E+00  0.60071619827E+01  0.51100000000E-03 0. -1.
        -12    1    3    3    0    0 -0.34533518857E+01  0.22447604758E+01  0.20223398213E+01  0.45885125251E+01  0.00000000000E+00 0.  1.
</event>
<event>
 7    1  0.5748623E-013  0.5052886E+02  0.7816164E-02  0.1300439E+00
        -11   -1    0    0    0    0  0.00000000000E+00  0.00000000000E+00  0.45593999997E+02  0.45594000000E+02  0.51100000000E-03 0.  1.
         11   -1    0    0    0    0 -0.00000000000E+00 -0.00000000000E+00 -0.45593999997E+02  0.45594000000E+02  0.51100000000E-03 0. -1.
    9900012    2    1    2    0    0 -0.25130985082E+02 -0.79025198236E+01  0.30970137894E+02  0.50528859922E+02  0.30000000218E+02 0.  0.
         12    1    1    2    0    0  0.25130985082E+02  0.79025198236E+01 -0.30970137894E+02  0.40659140078E+02  0.00000000000E+00 0. -1.
         11    1    3    3    0    0  0.14734539789E+01  0.31808391733E+01 -0.35904444599E+01  0.50179772972E+01  0.51100000000E-03 0. -1.
        -11    1    3    3    0    0 -0.15710977768E+02 -0.28862221022E+01  0.18275015227E+02  0.24272232741E+02  0.51100000000E-03 0.  1.
         12    1    3    3    0    0 -0.10893461293E+02 -0.81971368948E+01  0.16285567127E+02  0.21238649883E+02  0.00000000000E+00 0. -1.
</event>
<event>
 7    1  0.5985190E-013  0.5052885E+02  0.7816164E-02  0.1300439E+00
        -11   -1    0    0    0    0  0.00000000000E+00  0.00000000000E+00  0.45593999997E+02  0.45594000000E+02  0.51100000000E-03 0.  1.
         11   -1    0    0    0    0 -0.00000000000E+00 -0.00000000000E+00 -0.45593999997E+02  0.45594000000E+02  0.51100000000E-03 0. -1.
    9900012    2    1    2    0    0  0.33937573204E+02  0.72073572730E+01  0.21200509483E+02  0.50528850032E+02  0.29999970157E+02 0.  0.
         12    1    1    2    0    0 -0.33937573204E+02 -0.72073572730E+01 -0.21200509483E+02  0.40659149968E+02  0.00000000000E+00 0. -1.
         11    1    3    3    0    0  0.62470769053E+00  0.54236672186E+00 -0.44415758724E+01  0.45179661188E+01  0.51100000000E-03 0. -1.
        -11    1    3    3    0    0  0.32370131455E+02  0.10231830849E+01  0.20575123719E+02  0.38369363174E+02  0.51100000000E-03 0.  1.
        -12    1    3    3    0    0  0.94273405801E+00  0.56418074662E+01  0.50669616360E+01  0.76415207394E+01  0.00000000000E+00 0.  1.
</event>
<event>
 7    1  0.5748623E-013  0.5052885E+02  0.7816164E-02  0.1300439E+00
        -11   -1    0    0    0    0  0.00000000000E+00  0.00000000000E+00  0.45593999997E+02  0.45594000000E+02  0.51100000000E-03 0.  1.
         11   -1    0    0    0    0 -0.00000000000E+00 -0.00000000000E+00 -0.45593999997E+02  0.45594000000E+02  0.51100000000E-03 0. -1.
    9900012    2    1    2    0    0  0.69043120100E+01 -0.12943821026E+02  0.37920373537E+02  0.50528846587E+02  0.29999959684E+02 0.  0.
         12    1    1    2    0    0 -0.69043120100E+01  0.12943821026E+02 -0.37920373537E+02  0.40659153413E+02  0.00000000000E+00 0. -1.
         11    1    3    3    0    0  0.10913829214E+02 -0.32284899213E+01  0.59178283085E+01  0.12827919061E+02  0.51100000000E-03 0. -1.
        -11    1    3    3    0    0 -0.31033820684E+01  0.18514718683E+01  0.22257926482E+02  0.22549372938E+02  0.51100000000E-03 0.  1.
         12    1    3    3    0    0 -0.90613513575E+00 -0.11566802973E+02  0.97446187467E+01  0.15151554588E+02  0.00000000000E+00 0. -1.
</event>
<event>
 7    1  0.5748623E-013  0.5052887E+02  0.7816164E-02  0.1300439E+00
        -11   -1    0    0    0    0  0.00000000000E+00  0.00000000000E+00  0.45593999997E+02  0.45594000000E+02  0.51100000000E-03 0. -1.
         11   -1    0    0    0    0 -0.00000000000E+00 -0.00000000000E+00 -0.45593999997E+02  0.45594000000E+02  0.51100000000E-03 0.  1.
    9900012    2    1    2    0    0  0.11384815843E+01  0.38454004013E+02 -0.13158966034E+02  0.50528868774E+02  0.30000027126E+02 0.  0.
         12    1    1    2    0    0 -0.11384815843E+01 -0.38454004013E+02  0.13158966034E+02  0.40659131226E+02  0.00000000000E+00 0. -1.
         11    1    3    3    0    0 -0.42830023538E+01  0.20721525109E+01 -0.13256240763E+01  0.49391501945E+01  0.51100000000E-03 0. -1.
        -11    1    3    3    0    0  0.14594159028E+02  0.24912172966E+02 -0.46629820690E+01  0.29246354331E+02  0.51100000000E-03 0.  1.
        -12    1    3    3    0    0 -0.91726750903E+01  0.11469678536E+02 -0.71703598887E+01  0.16343364249E+02  0.00000000000E+00 0.  1.
</event>
<event>
 7    1  0.5748623E-013  0.5052887E+02  0.7816164E-02  0.1300439E+00
        -11   -1    0    0    0    0  0.00000000000E+00  0.00000000000E+00  0.45593999997E+02  0.45594000000E+02  0.51100000000E-03 0.  1.
         11   -1    0    0    0    0 -0.00000000000E+00 -0.00000000000E+00 -0.45593999997E+02  0.45594000000E+02  0.51100000000E-03 0. -1.
    9900012    2    1    2    0    0 -0.35286168337E+02  0.12049405447E+02  0.16213050370E+02  0.50528870031E+02  0.30000030947E+02 0.  0.
         12    1    1    2    0    0  0.35286168337E+02 -0.12049405447E+02 -0.16213050370E+02  0.40659129969E+02  0.00000000000E+00 0. -1.
         11    1    3    3    0    0  0.40403049606E+01 -0.17852908748E+01 -0.96957024104E+00  0.45223217926E+01  0.51100000000E-03 0. -1.
        -11    1    3    3    0    0 -0.38503148475E+02  0.14617020916E+02  0.15559502662E+02  0.44025536525E+02  0.51100000000E-03 0.  1.
        -12    1    3    3    0    0 -0.82332482216E+00 -0.78232459463E+00  0.16231179489E+01  0.19810117138E+01  0.00000000000E+00 0.  1.
</event>
<event>
 7    1  0.5748623E-013  0.5052886E+02  0.7816164E-02  0.1300439E+00
        -11   -1    0    0    0    0  0.00000000000E+00  0.00000000000E+00  0.45593999997E+02  0.45594000000E+02  0.51100000000E-03 0.  1.
         11   -1    0    0    0    0 -0.00000000000E+00 -0.00000000000E+00 -0.45593999997E+02  0.45594000000E+02  0.51100000000E-03 0. -1.
    9900012    2    1    2    0    0 -0.15754861233E+02 -0.18085460929E+02  0.32830867920E+02  0.50528862800E+02  0.30000008966E+02 0.  0.
         12    1    1    2    0    0  0.15754861233E+02  0.18085460929E+02 -0.32830867920E+02  0.40659137200E+02  0.00000000000E+00 0. -1.
         11    1    3    3    0    0 -0.13131623873E+02 -0.16671562716E+02  0.53126936716E+01  0.21877048779E+02  0.51100000000E-03 0. -1.
        -11    1    3    3    0    0  0.17566230733E+01 -0.15980322479E+01  0.18196552241E+02  0.18350856803E+02  0.51100000000E-03 0.  1.
         12    1    3    3    0    0 -0.43798604331E+01  0.18413403499E+00  0.93216220073E+01  0.10300957218E+02  0.00000000000E+00 0. -1.
</event>
<event>
 7    1  0.5748623E-013  0.5052886E+02  0.7816164E-02  0.1300439E+00
        -11   -1    0    0    0    0  0.00000000000E+00  0.00000000000E+00  0.45593999997E+02  0.45594000000E+02  0.51100000000E-03 0.  1.
         11   -1    0    0    0    0 -0.00000000000E+00 -0.00000000000E+00 -0.45593999997E+02  0.45594000000E+02  0.51100000000E-03 0. -1.
    9900012    2    1    2    0    0  0.23934818705E+02 -0.32149899619E+02  0.68318309325E+01  0.50528861964E+02  0.30000006426E+02 0.  0.
         12    1    1    2    0    0 -0.23934818705E+02  0.32149899619E+02 -0.68318309325E+01  0.40659138036E+02  0.00000000000E+00 0. -1.
         11    1    3    3    0    0  0.90325086312E+01 -0.21657329000E+02  0.27082589111E+01  0.23621193411E+02  0.51100000000E-03 0. -1.
        -11    1    3    3    0    0  0.48992261963E+01  0.19742130663E+01  0.87914530901E+01  0.10256197261E+02  0.51100000000E-03 0.  1.
         12    1    3    3    0    0  0.10003083877E+02 -0.12466783685E+02 -0.46678810686E+01  0.16651471292E+02  0.00000000000E+00 0. -1.
</event>
<event>
 7    1  0.5748623E-013  0.5052887E+02  0.7816164E-02  0.1300439E+00
        -11   -1    0    0    0    0  0.00000000000E+00  0.00000000000E+00  0.45593999997E+02  0.45594000000E+02  0.51100000000E-03 0.  1.
         11   -1    0    0    0    0 -0.00000000000E+00 -0.00000000000E+00 -0.45593999997E+02  0.45594000000E+02  0.51100000000E-03 0. -1.
    9900012    2    1    2    0    0 -0.12892251251E+02  0.38223458870E+02  0.50913180182E+01  0.50528874708E+02  0.30000045163E+02 0.  0.
         12    1    1    2    0    0  0.12892251251E+02 -0.38223458870E+02 -0.50913180182E+01  0.40659125292E+02  0.00000000000E+00 0. -1.
         11    1    3    3    0    0 -0.52057268049E+01  0.13000133052E+02 -0.99624755095E+01  0.17185865398E+02  0.51100000000E-03 0. -1.
        -11    1    3    3    0    0  0.11152791759E+00  0.20459329221E+02  0.11940678331E+02  0.23689161866E+02  0.51100000000E-03 0.  1.
        -12    1    3    3    0    0 -0.77980523640E+01  0.47639965970E+01  0.31131151964E+01  0.96538474441E+01  0.00000000000E+00 0.  1.
</event>
<event>
 7    1  0.5748623E-013  0.5052887E+02  0.7816164E-02  0.1300439E+00
        -11   -1    0    0    0    0  0.00000000000E+00  0.00000000000E+00  0.45593999997E+02  0.45594000000E+02  0.51100000000E-03 0.  1.
         11   -1    0    0    0    0 -0.00000000000E+00 -0.00000000000E+00 -0.45593999997E+02  0.45594000000E+02  0.51100000000E-03 0. -1.
    9900012    2    1    2    0    0  0.20239244870E+01 -0.32369635692E+02  0.24520913818E+02  0.50528870648E+02  0.30000032822E+02 0.  0.
         12    1    1    2    0    0 -0.20239244870E+01  0.32369635692E+02 -0.24520913818E+02  0.40659129352E+02  0.00000000000E+00 0. -1.
         11    1    3    3    0    0 -0.19678269442E+01  0.35030636336E+01 -0.20991185842E+01  0.45332214588E+01  0.51100000000E-03 0. -1.
        -11    1    3    3    0    0  0.24416555187E+01 -0.29760074682E+02  0.26115883227E+02  0.39669422529E+02  0.51100000000E-03 0.  1.
         12    1    3    3    0    0  0.15500959125E+01 -0.61126246437E+01  0.50414917515E+00  0.63262266607E+01  0.00000000000E+00 0. -1.
</event>
<event>
 7    1  0.5748623E-013  0.5052886E+02  0.7816164E-02  0.1300439E+00
        -11   -1    0    0    0    0  0.00000000000E+00  0.00000000000E+00  0.45593999997E+02  0.45594000000E+02  0.51100000000E-03 0.  1.
         11   -1    0    0    0    0 -0.00000000000E+00 -0.00000000000E+00 -0.45593999997E+02  0.45594000000E+02  0.51100000000E-03 0. -1.
    9900012    2    1    2    0    0  0.71593038471E+01 -0.51582773903E+01  0.39690079049E+02  0.50528857951E+02  0.29999994229E+02 0.  0.
         12    1    1    2    0    0 -0.71593038471E+01  0.51582773903E+01 -0.39690079049E+02  0.40659142049E+02  0.00000000000E+00 0. -1.
         11    1    3    3    0    0  0.15114143649E+02 -0.11805346150E+02  0.28578612814E+02  0.34417156283E+02  0.51100000000E-03 0. -1.
        -11    1    3    3    0    0 -0.44781529763E+00  0.30783147370E+01  0.45986881147E+01  0.55519809796E+01  0.51100000000E-03 0.  1.
         12    1    3    3    0    0 -0.75070245043E+01  0.35687540225E+01  0.65127781205E+01  0.10559720689E+02  0.00000000000E+00 0. -1.
</event>
<event>
 7    1  0.5748623E-013  0.5052879E+02  0.7816164E-02  0.1300439E+00
        -11   -1    0    0    0    0  0.00000000000E+00  0.00000000000E+00  0.45593999997E+02  0.45594000000E+02  0.51100000000E-03 0.  1.
         11   -1    0    0    0    0 -0.00000000000E+00 -0.00000000000E+00 -0.45593999997E+02  0.45594000000E+02  0.51100000000E-03 0. -1.
    9900012    2    1    2    0    0 -0.31729112556E+02 -0.25137780066E+02  0.38114279211E+01  0.50528787599E+02  0.29999780385E+02 0.  0.
         12    1    1    2    0    0  0.31729112556E+02  0.25137780066E+02 -0.38114279211E+01  0.40659212401E+02  0.00000000000E+00 0. -1.
         11    1    3    3    0    0 -0.65679895853E+00  0.39130800715E+01  0.11004582969E+01  0.41175950800E+01  0.51100000000E-03 0. -1.
        -11    1    3    3    0    0 -0.11224105122E+02 -0.22945402794E+02  0.22126259861E+01  0.25639184059E+02  0.51100000000E-03 0.  1.
        -12    1    3    3    0    0 -0.19848208476E+02 -0.61054573434E+01  0.49834363803E+00  0.20772008460E+02  0.00000000000E+00 0.  1.
</event>
<event>
 7    1  0.5748623E-013  0.5052886E+02  0.7816164E-02  0.1300439E+00
        -11   -1    0    0    0    0  0.00000000000E+00  0.00000000000E+00  0.45593999997E+02  0.45594000000E+02  0.51100000000E-03 0.  1.
         11   -1    0    0    0    0 -0.00000000000E+00 -0.00000000000E+00 -0.45593999997E+02  0.45594000000E+02  0.51100000000E-03 0. -1.
    9900012    2    1    2    0    0 -0.39937109789E+02 -0.39726884546E+00  0.76180682727E+01  0.50528861728E+02  0.30000005708E+02 0.  0.
         12    1    1    2    0    0  0.39937109789E+02  0.39726884546E+00 -0.76180682727E+01  0.40659138272E+02  0.00000000000E+00 0. -1.
         11    1    3    3    0    0 -0.94802610952E+00 -0.25976263912E+01 -0.11653012062E+00  0.27676697604E+01  0.51100000000E-03 0. -1.
        -11    1    3    3    0    0 -0.31121270338E+02 -0.62656517875E+01  0.13907520894E+02  0.34658490986E+02  0.51100000000E-03 0.  1.
        -12    1    3    3    0    0 -0.78678133412E+01  0.84660093333E+01 -0.61729225007E+01  0.13102700981E+02  0.00000000000E+00 0.  1.
</event>
<event>
 7    1  0.5748623E-013  0.5052886E+02  0.7816164E-02  0.1300439E+00
        -11   -1    0    0    0    0  0.00000000000E+00  0.00000000000E+00  0.45593999997E+02  0.45594000000E+02  0.51100000000E-03 0. -1.
         11   -1    0    0    0    0 -0.00000000000E+00 -0.00000000000E+00 -0.45593999997E+02  0.45594000000E+02  0.51100000000E-03 0.  1.
    9900012    2    1    2    0    0  0.33897049012E+02  0.15248505275E+02 -0.16481470072E+02  0.50528859568E+02  0.29999999144E+02 0.  0.
         12    1    1    2    0    0 -0.33897049012E+02 -0.15248505275E+02  0.16481470072E+02  0.40659140432E+02  0.00000000000E+00 0. -1.
         11    1    3    3    0    0  0.32645000112E+02  0.10295123413E+02 -0.64176558949E+01  0.34826310541E+02  0.51100000000E-03 0.  1.
        -11    1    3    3    0    0 -0.40855219808E+01  0.38231321748E+01 -0.82196757528E+01  0.99433846966E+01  0.51100000000E-03 0. -1.
         12    1    3    3    0    0  0.53375708810E+01  0.11302496872E+01 -0.18441384247E+01  0.57591643312E+01  0.00000000000E+00 0. -1.
</event>
<event>
 7    1  0.6343099E-013  0.5052886E+02  0.7816164E-02  0.1300439E+00
        -11   -1    0    0    0    0  0.00000000000E+00  0.00000000000E+00  0.45593999997E+02  0.45594000000E+02  0.51100000000E-03 0. -1.
         11   -1    0    0    0    0 -0.00000000000E+00 -0.00000000000E+00 -0.45593999997E+02  0.45594000000E+02  0.51100000000E-03 0.  1.
    9900012    2    1    2    0    0  0.20128405282E+02 -0.11512517085E+02 -0.33398727537E+02  0.50528858962E+02  0.29999997301E+02 0.  0.
         12    1    1    2    0    0 -0.20128405282E+02  0.11512517085E+02  0.33398727537E+02  0.40659141038E+02  0.00000000000E+00 0. -1.
         11    1    3    3    0    0 -0.28431057625E+01 -0.21878990724E+01  0.61839733731E+00  0.36404077046E+01  0.51100000000E-03 0. -1.
        -11    1    3    3    0    0  0.22065618711E+02 -0.12652714512E+02 -0.19730142904E+02  0.32191011989E+02  0.51100000000E-03 0.  1.
        -12    1    3    3    0    0  0.90589233375E+00  0.33280964991E+01 -0.14286981971E+02  0.14697439269E+02  0.00000000000E+00 0.  1.
</event>
<event>
 7    1  0.5748623E-013  0.5052887E+02  0.7816164E-02  0.1300439E+00
        -11   -1    0    0    0    0  0.00000000000E+00  0.00000000000E+00  0.45593999997E+02  0.45594000000E+02  0.51100000000E-03 0. -1.
         11   -1    0    0    0    0 -0.00000000000E+00 -0.00000000000E+00 -0.45593999997E+02  0.45594000000E+02  0.51100000000E-03 0.  1.
    9900012    2    1    2    0    0  0.32840673969E+02  0.12230999118E+02 -0.20616917534E+02  0.50528874398E+02  0.30000044219E+02 0.  0.
         12    1    1    2    0    0 -0.32840673969E+02 -0.12230999118E+02  0.20616917534E+02  0.40659125602E+02  0.00000000000E+00 0. -1.
         11    1    3    3    0    0  0.12205010142E+02 -0.56357809893E+01 -0.71610456127E+00  0.13462433136E+02  0.51100000000E-03 0. -1.
        -11    1    3    3    0    0  0.20241429644E+02  0.19148412451E+02 -0.14322203934E+02  0.31328943475E+02  0.51100000000E-03 0.  1.
        -12    1    3    3    0    0  0.39423418241E+00 -0.12816323439E+01 -0.55786090380E+01  0.57374977869E+01  0.00000000000E+00 0.  1.
</event>
<event>
 7    1  0.5748623E-013  0.5052885E+02  0.7816164E-02  0.1300439E+00
        -11   -1    0    0    0    0  0.00000000000E+00  0.00000000000E+00  0.45593999997E+02  0.45594000000E+02  0.51100000000E-03 0. -1.
         11   -1    0    0    0    0 -0.00000000000E+00 -0.00000000000E+00 -0.45593999997E+02  0.45594000000E+02  0.51100000000E-03 0.  1.
    9900012    2    1    2    0    0 -0.24606911572E+02 -0.26303608687E+02 -0.18862307710E+02  0.50528848765E+02  0.29999966306E+02 0.  0.
         12    1    1    2    0    0  0.24606911572E+02  0.26303608687E+02  0.18862307710E+02  0.40659151235E+02  0.00000000000E+00 0. -1.
         11    1    3    3    0    0 -0.64843771189E+01  0.51232638617E+01 -0.72953780241E+00  0.82962162992E+01  0.51100000000E-03 0. -1.
        -11    1    3    3    0    0 -0.83072508262E+01 -0.10884862916E+02 -0.98009965419E+00  0.13727754827E+02  0.51100000000E-03 0.  1.
         12    1    3    3    0    0 -0.98152836266E+01 -0.20542009632E+02 -0.17152670253E+02  0.28504877639E+02  0.00000000000E+00 0. -1.
</event>
<event>
 7    1  0.5748623E-013  0.5052886E+02  0.7816164E-02  0.1300439E+00
        -11   -1    0    0    0    0  0.00000000000E+00  0.00000000000E+00  0.45593999997E+02  0.45594000000E+02  0.51100000000E-03 0. -1.
         11   -1    0    0    0    0 -0.00000000000E+00 -0.00000000000E+00 -0.45593999997E+02  0.45594000000E+02  0.51100000000E-03 0.  1.
    9900012    2    1    2    0    0 -0.37850051776E+02 -0.14524997507E+02 -0.30925318834E+01  0.50528859263E+02  0.29999998217E+02 0.  0.
         12    1    1    2    0    0  0.37850051776E+02  0.14524997507E+02  0.30925318834E+01  0.40659140737E+02  0.00000000000E+00 0. -1.
         11    1    3    3    0    0 -0.60617996982E+01  0.41410863250E+01  0.39691160191E+01  0.83455313651E+01  0.51100000000E-03 0. -1.
        -11    1    3    3    0    0 -0.18520499698E+02 -0.20996091054E+02 -0.32600750716E+01  0.28186394561E+02  0.51100000000E-03 0.  1.
        -12    1    3    3    0    0 -0.13267752379E+02  0.23300072226E+01 -0.38015728308E+01  0.13996933337E+02  0.00000000000E+00 0.  1.
</event>
<event>
 7    1  0.5748623E-013  0.5052888E+02  0.7816164E-02  0.1300439E+00
        -11   -1    0    0    0    0  0.00000000000E+00  0.00000000000E+00  0.45593999997E+02  0.45594000000E+02  0.51100000000E-03 0.  1.
         11   -1    0    0    0    0 -0.00000000000E+00 -0.00000000000E+00 -0.45593999997E+02  0.45594000000E+02  0.51100000000E-03 0. -1.
    9900012    2    1    2    0    0  0.37084453054E+02  0.12554725201E+02  0.10967495015E+02  0.50528883801E+02  0.30000072802E+02 0.  0.
         12    1    1    2    0    0 -0.37084453054E+02 -0.12554725201E+02 -0.10967495015E+02  0.40659116199E+02  0.00000000000E+00 0. -1.
         11    1    3    3    0    0  0.34768169900E+02  0.57438437672E+01  0.12762027388E+02  0.37479150507E+02  0.51100000000E-03 0. -1.
        -11    1    3    3    0    0  0.43265399916E+01  0.85955983640E+01 -0.30333662629E+01  0.10089825107E+02  0.51100000000E-03 0.  1.
         12    1    3    3    0    0 -0.20102568377E+01 -0.17847169304E+01  0.12388338896E+01  0.29599081880E+01  0.00000000000E+00 0. -1.
</event>
<event>
 7    1  0.5748623E-013  0.5052886E+02  0.7816164E-02  0.1300439E+00
        -11   -1    0    0    0    0  0.00000000000E+00  0.00000000000E+00  0.45593999997E+02  0.45594000000E+02  0.51100000000E-03 0. -1.
         11   -1    0    0    0    0 -0.00000000000E+00 -0.00000000000E+00 -0.45593999997E+02  0.45594000000E+02  0.51100000000E-03 0.  1.
    9900012    2    1    2    0    0  0.29441147077E+02 -0.33217160399E+01 -0.27845114471E+02  0.50528864020E+02  0.30000012676E+02 0.  0.
         12    1    1    2    0    0 -0.29441147077E+02  0.33217160399E+01  0.27845114471E+02  0.40659135980E+02  0.00000000000E+00 0. -1.
         11    1    3    3    0    0  0.11303287313E+02 -0.13581752757E+02 -0.73403816135E+01  0.19133988463E+02  0.51100000000E-03 0. -1.
        -11    1    3    3    0    0  0.70964483829E+01  0.61298227533E+01 -0.16437772800E+02  0.18924446663E+02  0.51100000000E-03 0.  1.
         12    1    3    3    0    0  0.11041411382E+02  0.41302139634E+01 -0.40669600584E+01  0.12470428894E+02  0.00000000000E+00 0. -1.
</event>
<event>
 7    1  0.5748623E-013  0.5052885E+02  0.7816164E-02  0.1300439E+00
        -11   -1    0    0    0    0  0.00000000000E+00  0.00000000000E+00  0.45593999997E+02  0.45594000000E+02  0.51100000000E-03 0.  1.
         11   -1    0    0    0    0 -0.00000000000E+00 -0.00000000000E+00 -0.45593999997E+02  0.45594000000E+02  0.51100000000E-03 0. -1.
    9900012    2    1    2    0    0 -0.52812031504E+01 -0.26763478730E+02  0.30149484088E+02  0.50528852306E+02  0.29999977069E+02 0.  0.
         12    1    1    2    0    0  0.52812031504E+01  0.26763478730E+02 -0.30149484088E+02  0.40659147694E+02  0.00000000000E+00 0. -1.
         11    1    3    3    0    0 -0.11540462263E+02 -0.78870825391E+01  0.39085502305E+01  0.14514306921E+02  0.51100000000E-03 0. -1.
        -11    1    3    3    0    0 -0.20098084830E+01 -0.97828162548E+01  0.19710518010E+02  0.22096319704E+02  0.51100000000E-03 0.  1.
         12    1    3    3    0    0  0.82690675959E+01 -0.90935799357E+01  0.65304158480E+01  0.13918225681E+02  0.00000000000E+00 0. -1.
</event>
<event>
 7    1  0.5748623E-013  0.5052885E+02  0.7816164E-02  0.1300439E+00
        -11   -1    0    0    0    0  0.00000000000E+00  0.00000000000E+00  0.45593999997E+02  0.45594000000E+02  0.51100000000E-03 0. -1.
         11   -1    0    0    0    0 -0.00000000000E+00 -0.00000000000E+00 -0.45593999997E+02  0.45594000000E+02  0.51100000000E-03 0.  1.
    9900012    2    1    2    0    0 -0.14073260910E+02 -0.11731693867E+02 -0.36297065361E+02  0.50528852598E+02  0.29999977957E+02 0.  0.
         12    1    1    2    0    0  0.14073260910E+02  0.11731693867E+02  0.36297065361E+02  0.40659147402E+02  0.00000000000E+00 0. -1.
         11    1    3    3    0    0 -0.30859227349E+01  0.51256161690E+01  0.13837745767E+01  0.61408218162E+01  0.51100000000E-03 0. -1.
        -11    1    3    3    0    0 -0.94251090901E+01 -0.15412374048E+02 -0.38147847393E+02  0.42209385403E+02  0.51100000000E-03 0.  1.
        -12    1    3    3    0    0 -0.15622290849E+01 -0.14449359878E+01  0.46700745509E+00  0.21786453786E+01  0.00000000000E+00 0.  1.
</event>
<event>
 7    1  0.5748623E-013  0.5052886E+02  0.7816164E-02  0.1300439E+00
        -11   -1    0    0    0    0  0.00000000000E+00  0.00000000000E+00  0.45593999997E+02  0.45594000000E+02  0.51100000000E-03 0. -1.
         11   -1    0    0    0    0 -0.00000000000E+00 -0.00000000000E+00 -0.45593999997E+02  0.45594000000E+02  0.51100000000E-03 0.  1.
    9900012    2    1    2    0    0 -0.64318819098E+01 -0.43951145612E+01 -0.39905883409E+02  0.50528859975E+02  0.30000000381E+02 0.  0.
         12    1    1    2    0    0  0.64318819098E+01  0.43951145612E+01  0.39905883409E+02  0.40659140025E+02  0.00000000000E+00 0. -1.
         11    1    3    3    0    0  0.70044130015E+01 -0.11515744669E+02 -0.10592353503E+02  0.17142699022E+02  0.51100000000E-03 0. -1.
        -11    1    3    3    0    0 -0.10571438681E+02  0.46806913862E+01 -0.17386105110E+02  0.20879196316E+02  0.51100000000E-03 0.  1.
         12    1    3    3    0    0 -0.28648562300E+01  0.24399387213E+01 -0.11927424796E+02  0.12506964638E+02  0.00000000000E+00 0. -1.
</event>
<event>
 7    1  0.5748623E-013  0.5052887E+02  0.7816164E-02  0.1300439E+00
        -11   -1    0    0    0    0  0.00000000000E+00  0.00000000000E+00  0.45593999997E+02  0.45594000000E+02  0.51100000000E-03 0.  1.
         11   -1    0    0    0    0 -0.00000000000E+00 -0.00000000000E+00 -0.45593999997E+02  0.45594000000E+02  0.51100000000E-03 0. -1.
    9900012    2    1    2    0    0  0.18192278656E+02  0.18925635540E+01  0.36312865209E+02  0.50528868440E+02  0.30000026110E+02 0.  0.
         12    1    1    2    0    0 -0.18192278656E+02 -0.18925635540E+01 -0.36312865209E+02  0.40659131560E+02  0.00000000000E+00 0. -1.
         11    1    3    3    0    0 -0.58845108952E+01 -0.26127651004E+00  0.18589798799E+01  0.61766933181E+01  0.51100000000E-03 0. -1.
        -11    1    3    3    0    0  0.10569913943E+02  0.70527538487E+01  0.10799676675E+02  0.16676253601E+02  0.51100000000E-03 0.  1.
         12    1    3    3    0    0  0.13506875608E+02 -0.48989137846E+01  0.23654208655E+02  0.27675921521E+02  0.00000000000E+00 0. -1.
</event>
<event>
 7    1  0.5748623E-013  0.5052885E+02  0.7816164E-02  0.1300439E+00
        -11   -1    0    0    0    0  0.00000000000E+00  0.00000000000E+00  0.45593999997E+02  0.45594000000E+02  0.51100000000E-03 0.  1.
         11   -1    0    0    0    0 -0.00000000000E+00 -0.00000000000E+00 -0.45593999997E+02  0.45594000000E+02  0.51100000000E-03 0. -1.
    9900012    2    1    2    0    0 -0.13239868012E+01  0.29841988237E+02  0.27583865320E+02  0.50528845693E+02  0.29999956968E+02 0.  0.
         12    1    1    2    0    0  0.13239868012E+01 -0.29841988237E+02 -0.27583865320E+02  0.40659154307E+02  0.00000000000E+00 0. -1.
         11    1    3    3    0    0  0.12540064308E+01  0.10761797116E+02 -0.37657232962E+01  0.11470374079E+02  0.51100000000E-03 0. -1.
        -11    1    3    3    0    0  0.52000405362E+01  0.10438350674E+02  0.16235975620E+02  0.19990159854E+02  0.51100000000E-03 0.  1.
         12    1    3    3    0    0 -0.77780337682E+01  0.86418404471E+01  0.15113612996E+02  0.19068311760E+02  0.00000000000E+00 0. -1.
</event>
<event>
 7    1  0.5748623E-013  0.5052886E+02  0.7816164E-02  0.1300439E+00
        -11   -1    0    0    0    0  0.00000000000E+00  0.00000000000E+00  0.45593999997E+02  0.45594000000E+02  0.51100000000E-03 0. -1.
         11   -1    0    0    0    0 -0.00000000000E+00 -0.00000000000E+00 -0.45593999997E+02  0.45594000000E+02  0.51100000000E-03 0.  1.
    9900012    2    1    2    0    0 -0.23097941020E+02 -0.30384049078E+02 -0.14016424751E+02  0.50528862275E+02  0.30000007372E+02 0.  0.
         12    1    1    2    0    0  0.23097941020E+02  0.30384049078E+02  0.14016424751E+02  0.40659137725E+02  0.00000000000E+00 0. -1.
         11    1    3    3    0    0 -0.49425724557E+01 -0.92693486457E+01  0.74100770969E+01  0.12855313673E+02  0.51100000000E-03 0. -1.
        -11    1    3    3    0    0 -0.10481545389E+02 -0.15088125035E+02 -0.58265148190E+01  0.19273364678E+02  0.51100000000E-03 0.  1.
         12    1    3    3    0    0 -0.76738231746E+01 -0.60265753972E+01 -0.15599987028E+02  0.18400183924E+02  0.00000000000E+00 0. -1.
</event>
<event>
 7    1  0.5748623E-013  0.5052880E+02  0.7816164E-02  0.1300439E+00
        -11   -1    0    0    0    0  0.00000000000E+00  0.00000000000E+00  0.45593999997E+02  0.45594000000E+02  0.51100000000E-03 0. -1.
         11   -1    0    0    0    0 -0.00000000000E+00 -0.00000000000E+00 -0.45593999997E+02  0.45594000000E+02  0.51100000000E-03 0.  1.
    9900012    2    1    2    0    0  0.23126656843E+02 -0.32972966370E+02  0.55778180263E+01  0.50528796590E+02  0.29999807715E+02 0.  0.
         12    1    1    2    0    0 -0.23126656843E+02  0.32972966370E+02 -0.55778180263E+01  0.40659203410E+02  0.00000000000E+00 0. -1.
         11    1    3    3    0    0  0.10692756952E+02 -0.18576626138E+02 -0.58897559732E+01  0.22228704767E+02  0.51100000000E-03 0.  1.
        -11    1    3    3    0    0  0.43798501343E+01 -0.48695117448E+01  0.14103055377E+02  0.15549643181E+02  0.51100000000E-03 0. -1.
         12    1    3    3    0    0  0.80540497564E+01 -0.95268284874E+01 -0.26354813770E+01  0.12750448643E+02  0.00000000000E+00 0. -1.
</event>
<event>
 7    1  0.5748623E-013  0.5052884E+02  0.7816164E-02  0.1300439E+00
        -11   -1    0    0    0    0  0.00000000000E+00  0.00000000000E+00  0.45593999997E+02  0.45594000000E+02  0.51100000000E-03 0.  1.
         11   -1    0    0    0    0 -0.00000000000E+00 -0.00000000000E+00 -0.45593999997E+02  0.45594000000E+02  0.51100000000E-03 0. -1.
    9900012    2    1    2    0    0 -0.29168718081E+02  0.27489729533E+02  0.68314087453E+01  0.50528837568E+02  0.29999932270E+02 0.  0.
         12    1    1    2    0    0  0.29168718081E+02 -0.27489729533E+02 -0.68314087453E+01  0.40659162432E+02  0.00000000000E+00 0. -1.
         11    1    3    3    0    0  0.30002048703E+01  0.60413078847E+01 -0.13523754392E+01  0.68795021485E+01  0.51100000000E-03 0. -1.
        -11    1    3    3    0    0 -0.69659394892E+01 -0.31608721509E+01  0.13683333679E+01  0.77709563239E+01  0.51100000000E-03 0.  1.
         12    1    3    3    0    0 -0.25202983462E+02  0.24609293799E+02  0.68154508165E+01  0.35878379095E+02  0.00000000000E+00 0. -1.
</event>
<event>
 7    1  0.5748623E-013  0.5052885E+02  0.7816164E-02  0.1300439E+00
        -11   -1    0    0    0    0  0.00000000000E+00  0.00000000000E+00  0.45593999997E+02  0.45594000000E+02  0.51100000000E-03 0. -1.
         11   -1    0    0    0    0 -0.00000000000E+00 -0.00000000000E+00 -0.45593999997E+02  0.45594000000E+02  0.51100000000E-03 0.  1.
    9900012    2    1    2    0    0  0.36350591118E+02  0.11230516885E+01 -0.18180758696E+02  0.50528847199E+02  0.29999961546E+02 0.  0.
         12    1    1    2    0    0 -0.36350591118E+02 -0.11230516885E+01  0.18180758696E+02  0.40659152801E+02  0.00000000000E+00 0. -1.
         11    1    3    3    0    0  0.23977585822E+02 -0.11867589189E+02 -0.84485724116E+01  0.28056063000E+02  0.51100000000E-03 0. -1.
        -11    1    3    3    0    0  0.62530537592E+01  0.88189464680E+01 -0.10444543824E+02  0.15032065529E+02  0.51100000000E-03 0.  1.
        -12    1    3    3    0    0  0.61199515363E+01  0.41716944093E+01  0.71235753981E+00  0.74407186693E+01  0.00000000000E+00 0.  1.
</event>
<event>
 7    1  0.5748623E-013  0.5052888E+02  0.7816164E-02  0.1300439E+00
        -11   -1    0    0    0    0  0.00000000000E+00  0.00000000000E+00  0.45593999997E+02  0.45594000000E+02  0.51100000000E-03 0.  1.
         11   -1    0    0    0    0 -0.00000000000E+00 -0.00000000000E+00 -0.45593999997E+02  0.45594000000E+02  0.51100000000E-03 0. -1.
    9900012    2    1    2    0    0 -0.67355111828E+01 -0.34520701629E+02  0.20398977468E+02  0.50528877609E+02  0.30000053981E+02 0.  0.
         12    1    1    2    0    0  0.67355111828E+01  0.34520701629E+02 -0.20398977468E+02  0.40659122391E+02  0.00000000000E+00 0. -1.
         11    1    3    3    0    0 -0.54046394174E+01 -0.18879633323E+02 -0.86566941333E+00  0.19657061465E+02  0.51100000000E-03 0. -1.
        -11    1    3    3    0    0  0.29896762901E+01 -0.69575637525E+01  0.19624800199E+02  0.21035176273E+02  0.51100000000E-03 0.  1.
        -12    1    3    3    0    0 -0.43205480555E+01 -0.86835045532E+01  0.16398466819E+01  0.98366398717E+01  0.00000000000E+00 0.  1.
</event>
<event>
 7    1  0.5748623E-013  0.5052885E+02  0.7816164E-02  0.1300439E+00
        -11   -1    0    0    0    0  0.00000000000E+00  0.00000000000E+00  0.45593999997E+02  0.45594000000E+02  0.51100000000E-03 0.  1.
         11   -1    0    0    0    0 -0.00000000000E+00 -0.00000000000E+00 -0.45593999997E+02  0.45594000000E+02  0.51100000000E-03 0. -1.
    9900012    2    1    2    0    0  0.25914915374E+02  0.29691915402E+02  0.99986878026E+01  0.50528850515E+02  0.29999971625E+02 0.  0.
         12    1    1    2    0    0 -0.25914915374E+02 -0.29691915402E+02 -0.99986878026E+01  0.40659149485E+02  0.00000000000E+00 0. -1.
         11    1    3    3    0    0 -0.31461039327E+01  0.16804740894E+01  0.79773970148E+01  0.87384682018E+01  0.51100000000E-03 0. -1.
        -11    1    3    3    0    0  0.15219594219E+02  0.20351394644E+02 -0.19257791764E+01  0.25485759511E+02  0.51100000000E-03 0.  1.
         12    1    3    3    0    0  0.13841425087E+02  0.76600466690E+01  0.39470699642E+01  0.16304622802E+02  0.00000000000E+00 0. -1.
</event>
<event>
 7    1  0.5748623E-013  0.5052886E+02  0.7816164E-02  0.1300439E+00
        -11   -1    0    0    0    0  0.00000000000E+00  0.00000000000E+00  0.45593999997E+02  0.45594000000E+02  0.51100000000E-03 0.  1.
         11   -1    0    0    0    0 -0.00000000000E+00 -0.00000000000E+00 -0.45593999997E+02  0.45594000000E+02  0.51100000000E-03 0. -1.
    9900012    2    1    2    0    0  0.30362960714E+00 -0.28490745438E+02  0.29006051264E+02  0.50528858636E+02  0.29999996309E+02 0.  0.
         12    1    1    2    0    0 -0.30362960714E+00  0.28490745438E+02 -0.29006051264E+02  0.40659141364E+02  0.00000000000E+00 0. -1.
         11    1    3    3    0    0  0.67121621798E+01 -0.49600353417E+01  0.19547229535E+02  0.21254393769E+02  0.51100000000E-03 0. -1.
        -11    1    3    3    0    0 -0.66626709340E+01 -0.13273602067E+02  0.11536290273E+02  0.18806001418E+02  0.51100000000E-03 0.  1.
         12    1    3    3    0    0  0.25413836129E+00 -0.10257108029E+02 -0.20774685437E+01  0.10468463449E+02  0.00000000000E+00 0. -1.
</event>
<event>
 7    1  0.5748623E-013  0.5052886E+02  0.7816164E-02  0.1300439E+00
        -11   -1    0    0    0    0  0.00000000000E+00  0.00000000000E+00  0.45593999997E+02  0.45594000000E+02  0.51100000000E-03 0. -1.
         11   -1    0    0    0    0 -0.00000000000E+00 -0.00000000000E+00 -0.45593999997E+02  0.45594000000E+02  0.51100000000E-03 0.  1.
    9900012    2    1    2    0    0  0.13811203461E+02  0.38042699477E+02 -0.38947934017E+01  0.50528859082E+02  0.29999997665E+02 0.  0.
         12    1    1    2    0    0 -0.13811203461E+02 -0.38042699477E+02  0.38947934017E+01  0.40659140918E+02  0.00000000000E+00 0. -1.
         11    1    3    3    0    0  0.31392909957E+00 -0.62826100817E+00  0.48541044297E+01  0.49046501862E+01  0.51100000000E-03 0. -1.
        -11    1    3    3    0    0  0.16051636518E+02  0.21424923934E+02 -0.17189580204E+01  0.26826054824E+02  0.51100000000E-03 0.  1.
        -12    1    3    3    0    0 -0.25543621563E+01  0.17246036551E+02 -0.70299398110E+01  0.18798154072E+02  0.00000000000E+00 0.  1.
</event>
<event>
 7    1  0.5748623E-013  0.5052886E+02  0.7816164E-02  0.1300439E+00
        -11   -1    0    0    0    0  0.00000000000E+00  0.00000000000E+00  0.45593999997E+02  0.45594000000E+02  0.51100000000E-03 0.  1.
         11   -1    0    0    0    0 -0.00000000000E+00 -0.00000000000E+00 -0.45593999997E+02  0.45594000000E+02  0.51100000000E-03 0. -1.
    9900012    2    1    2    0    0  0.40384074786E+01 -0.16461078233E+02  0.36957941743E+02  0.50528864625E+02  0.30000014514E+02 0.  0.
         12    1    1    2    0    0 -0.40384074786E+01  0.16461078233E+02 -0.36957941743E+02  0.40659135375E+02  0.00000000000E+00 0. -1.
         11    1    3    3    0    0  0.12073090938E+02 -0.53983358316E+01  0.17916013725E+02  0.22268477779E+02  0.51100000000E-03 0. -1.
        -11    1    3    3    0    0 -0.62277684154E+01 -0.83676147198E+01  0.16405223838E+01  0.10559043020E+02  0.51100000000E-03 0.  1.
        -12    1    3    3    0    0 -0.18069150441E+01 -0.26951276814E+01  0.17401405634E+02  0.17701343826E+02  0.00000000000E+00 0.  1.
</event>
<event>
 7    1  0.5748623E-013  0.5052886E+02  0.7816164E-02  0.1300439E+00
        -11   -1    0    0    0    0  0.00000000000E+00  0.00000000000E+00  0.45593999997E+02  0.45594000000E+02  0.51100000000E-03 0.  1.
         11   -1    0    0    0    0 -0.00000000000E+00 -0.00000000000E+00 -0.45593999997E+02  0.45594000000E+02  0.51100000000E-03 0. -1.
    9900012    2    1    2    0    0 -0.30653130850E+02  0.15064158754E+02  0.22059519543E+02  0.50528859424E+02  0.29999998706E+02 0.  0.
         12    1    1    2    0    0  0.30653130850E+02 -0.15064158754E+02 -0.22059519543E+02  0.40659140576E+02  0.00000000000E+00 0. -1.
         11    1    3    3    0    0 -0.18506750860E+02  0.81936387971E+01  0.28668526995E+01  0.20441486952E+02  0.51100000000E-03 0. -1.
        -11    1    3    3    0    0  0.17775866076E+00  0.32391175287E+01  0.16684355175E+02  0.16996799357E+02  0.51100000000E-03 0.  1.
        -12    1    3    3    0    0 -0.12324138651E+02  0.36314024279E+01  0.25083116689E+01  0.13090573116E+02  0.00000000000E+00 0.  1.
</event>
<event>
 7    1  0.5748623E-013  0.5052886E+02  0.7816164E-02  0.1300439E+00
        -11   -1    0    0    0    0  0.00000000000E+00  0.00000000000E+00  0.45593999997E+02  0.45594000000E+02  0.51100000000E-03 0.  1.
         11   -1    0    0    0    0 -0.00000000000E+00 -0.00000000000E+00 -0.45593999997E+02  0.45594000000E+02  0.51100000000E-03 0. -1.
    9900012    2    1    2    0    0 -0.17879034881E+02  0.35981165126E+02 -0.62338934293E+01  0.50528861305E+02  0.30000004424E+02 0.  0.
         12    1    1    2    0    0  0.17879034881E+02 -0.35981165126E+02  0.62338934293E+01  0.40659138695E+02  0.00000000000E+00 0. -1.
         11    1    3    3    0    0 -0.93635682463E+01  0.18305004092E+02 -0.16951560781E+02  0.26647795373E+02  0.51100000000E-03 0. -1.
        -11    1    3    3    0    0 -0.52472088247E+01  0.11042349986E+02  0.18993764999E+01  0.12372320923E+02  0.51100000000E-03 0.  1.
         12    1    3    3    0    0 -0.32682578099E+01  0.66338110485E+01  0.88182908517E+01  0.11508745009E+02  0.00000000000E+00 0. -1.
</event>
<event>
 7    1  0.5748623E-013  0.5052892E+02  0.7816164E-02  0.1300439E+00
        -11   -1    0    0    0    0  0.00000000000E+00  0.00000000000E+00  0.45593999997E+02  0.45594000000E+02  0.51100000000E-03 0. -1.
         11   -1    0    0    0    0 -0.00000000000E+00 -0.00000000000E+00 -0.45593999997E+02  0.45594000000E+02  0.51100000000E-03 0.  1.
    9900012    2    1    2    0    0  0.14965769719E+02  0.22059587244E+02 -0.30701157742E+02  0.50528920579E+02  0.30000184591E+02 0.  0.
         12    1    1    2    0    0 -0.14965769719E+02 -0.22059587244E+02  0.30701157742E+02  0.40659079421E+02  0.00000000000E+00 0. -1.
         11    1    3    3    0    0  0.25240242157E+01 -0.14138378721E+01 -0.18819680810E+02  0.19040746357E+02  0.51100000000E-03 0. -1.
        -11    1    3    3    0    0  0.10309546322E+02  0.14083035883E+02 -0.17985484207E+01  0.17545752242E+02  0.51100000000E-03 0.  1.
         12    1    3    3    0    0  0.21321991808E+01  0.93903892335E+01 -0.10082928511E+02  0.13942421980E+02  0.00000000000E+00 0. -1.
</event>
<event>
 7    1  0.5748623E-013  0.5052886E+02  0.7816164E-02  0.1300439E+00
        -11   -1    0    0    0    0  0.00000000000E+00  0.00000000000E+00  0.45593999997E+02  0.45594000000E+02  0.51100000000E-03 0.  1.
         11   -1    0    0    0    0 -0.00000000000E+00 -0.00000000000E+00 -0.45593999997E+02  0.45594000000E+02  0.51100000000E-03 0. -1.
    9900012    2    1    2    0    0  0.27798847452E+02 -0.24897783477E+02  0.16139700234E+02  0.50528862462E+02  0.30000007938E+02 0.  0.
         12    1    1    2    0    0 -0.27798847452E+02  0.24897783477E+02 -0.16139700234E+02  0.40659137538E+02  0.00000000000E+00 0. -1.
         11    1    3    3    0    0  0.17122419003E+02 -0.43940834015E+00  0.11727433388E+02  0.20758203350E+02  0.51100000000E-03 0. -1.
        -11    1    3    3    0    0  0.12248261034E+02 -0.17758448556E+02  0.65826605811E+01  0.22554684969E+02  0.51100000000E-03 0.  1.
        -12    1    3    3    0    0 -0.15718325844E+01 -0.66999265807E+01 -0.21703937347E+01  0.72159741425E+01  0.00000000000E+00 0.  1.
</event>
<event>
 7    1  0.5748623E-013  0.5052886E+02  0.7816164E-02  0.1300439E+00
        -11   -1    0    0    0    0  0.00000000000E+00  0.00000000000E+00  0.45593999997E+02  0.45594000000E+02  0.51100000000E-03 0.  1.
         11   -1    0    0    0    0 -0.00000000000E+00 -0.00000000000E+00 -0.45593999997E+02  0.45594000000E+02  0.51100000000E-03 0. -1.
    9900012    2    1    2    0    0 -0.10836153055E+02 -0.33598606067E+02  0.20171189825E+02  0.50528862753E+02  0.30000008824E+02 0.  0.
         12    1    1    2    0    0  0.10836153055E+02  0.33598606067E+02 -0.20171189825E+02  0.40659137247E+02  0.00000000000E+00 0. -1.
         11    1    3    3    0    0 -0.15369312327E+02 -0.82673728226E+01  0.19469916504E+01  0.17560068096E+02  0.51100000000E-03 0. -1.
        -11    1    3    3    0    0  0.26880114576E+01 -0.10423625766E+02  0.13407355021E+02  0.17194026540E+02  0.51100000000E-03 0.  1.
         12    1    3    3    0    0  0.18451478146E+01 -0.14907607479E+02  0.48168431536E+01  0.15774768118E+02  0.00000000000E+00 0. -1.
</event>
<event>
 7    1  0.5748623E-013  0.5052885E+02  0.7816164E-02  0.1300439E+00
        -11   -1    0    0    0    0  0.00000000000E+00  0.00000000000E+00  0.45593999997E+02  0.45594000000E+02  0.51100000000E-03 0.  1.
         11   -1    0    0    0    0 -0.00000000000E+00 -0.00000000000E+00 -0.45593999997E+02  0.45594000000E+02  0.51100000000E-03 0. -1.
    9900012    2    1    2    0    0 -0.29586257007E+02  0.25942523274E+02  0.10237444356E+02  0.50528851159E+02  0.29999973584E+02 0.  0.
         12    1    1    2    0    0  0.29586257007E+02 -0.25942523274E+02 -0.10237444356E+02  0.40659148841E+02  0.00000000000E+00 0. -1.
         11    1    3    3    0    0 -0.19876036797E+02 -0.19647069607E+00  0.82224802766E+01  0.21510569998E+02  0.51100000000E-03 0.  1.
        -11    1    3    3    0    0 -0.52604377257E+01  0.16799573787E+02 -0.24066839844E+01  0.17767667617E+02  0.51100000000E-03 0. -1.
         12    1    3    3    0    0 -0.44497824844E+01  0.93394201833E+01  0.44216480641E+01  0.11250613544E+02  0.00000000000E+00 0. -1.
</event>
<event>
 7    1  0.5748623E-013  0.5052885E+02  0.7816164E-02  0.1300439E+00
        -11   -1    0    0    0    0  0.00000000000E+00  0.00000000000E+00  0.45593999997E+02  0.45594000000E+02  0.51100000000E-03 0.  1.
         11   -1    0    0    0    0 -0.00000000000E+00 -0.00000000000E+00 -0.45593999997E+02  0.45594000000E+02  0.51100000000E-03 0. -1.
    9900012    2    1    2    0    0 -0.39441777791E+02 -0.11634945982E+01 -0.98060458752E+01  0.50528854772E+02  0.29999984565E+02 0.  0.
         12    1    1    2    0    0  0.39441777791E+02  0.11634945982E+01  0.98060458752E+01  0.40659145228E+02  0.00000000000E+00 0. -1.
         11    1    3    3    0    0 -0.15276646839E+02  0.85167514777E+01  0.49196985064E+01  0.18169051379E+02  0.51100000000E-03 0. -1.
        -11    1    3    3    0    0 -0.18513650279E+02 -0.94617234578E+01 -0.54465997979E+01  0.21492903645E+02  0.51100000000E-03 0.  1.
         12    1    3    3    0    0 -0.56514806725E+01 -0.21852261814E+00 -0.92791445837E+01  0.10866899748E+02  0.00000000000E+00 0. -1.
</event>
<event>
 7    1  0.5748623E-013  0.5052886E+02  0.7816164E-02  0.1300439E+00
        -11   -1    0    0    0    0  0.00000000000E+00  0.00000000000E+00  0.45593999997E+02  0.45594000000E+02  0.51100000000E-03 0.  1.
         11   -1    0    0    0    0 -0.00000000000E+00 -0.00000000000E+00 -0.45593999997E+02  0.45594000000E+02  0.51100000000E-03 0. -1.
    9900012    2    1    2    0    0  0.26276788179E+02  0.46240586903E+01  0.30680836989E+02  0.50528864813E+02  0.30000015085E+02 0.  0.
         12    1    1    2    0    0 -0.26276788179E+02 -0.46240586903E+01 -0.30680836989E+02  0.40659135187E+02  0.00000000000E+00 0. -1.
         11    1    3    3    0    0 -0.52951074615E+00  0.32008365399E+01 -0.22967084472E+01  0.39749976274E+01  0.51100000000E-03 0. -1.
        -11    1    3    3    0    0  0.27310850169E+02  0.29234756799E+01  0.34673272538E+02  0.44234207078E+02  0.51100000000E-03 0.  1.
        -12    1    3    3    0    0 -0.50455124373E+00 -0.15002535295E+01 -0.16957271020E+01  0.23196601076E+01  0.00000000000E+00 0.  1.
</event>
<event>
 7    1  0.5748623E-013  0.5052886E+02  0.7816164E-02  0.1300439E+00
        -11   -1    0    0    0    0  0.00000000000E+00  0.00000000000E+00  0.45593999997E+02  0.45594000000E+02  0.51100000000E-03 0. -1.
         11   -1    0    0    0    0 -0.00000000000E+00 -0.00000000000E+00 -0.45593999997E+02  0.45594000000E+02  0.51100000000E-03 0.  1.
    9900012    2    1    2    0    0 -0.15544205699E+02  0.33957859906E+02  0.16075054462E+02  0.50528856426E+02  0.29999989593E+02 0.  0.
         12    1    1    2    0    0  0.15544205699E+02 -0.33957859906E+02 -0.16075054462E+02  0.40659143574E+02  0.00000000000E+00 0. -1.
         11    1    3    3    0    0 -0.29851540046E+00 -0.22016824804E+01  0.72170935203E+01  0.75513546024E+01  0.51100000000E-03 0. -1.
        -11    1    3    3    0    0 -0.11603761354E+02  0.25756963290E+02  0.13135829562E+02  0.31154750104E+02  0.51100000000E-03 0.  1.
         12    1    3    3    0    0 -0.36419289450E+01  0.10402579096E+02 -0.42778686206E+01  0.11822751720E+02  0.00000000000E+00 0. -1.
</event>
<event>
 7    1  0.5748623E-013  0.5052886E+02  0.7816164E-02  0.1300439E+00
        -11   -1    0    0    0    0  0.00000000000E+00  0.00000000000E+00  0.45593999997E+02  0.45594000000E+02  0.51100000000E-03 0.  1.
         11   -1    0    0    0    0 -0.00000000000E+00 -0.00000000000E+00 -0.45593999997E+02  0.45594000000E+02  0.51100000000E-03 0. -1.
    9900012    2    1    2    0    0  0.38083264210E+02  0.52937665977E+00  0.14232021948E+02  0.50528859560E+02  0.29999999120E+02 0.  0.
         12    1    1    2    0    0 -0.38083264210E+02 -0.52937665977E+00 -0.14232021948E+02  0.40659140440E+02  0.00000000000E+00 0. -1.
         11    1    3    3    0    0  0.78422428775E+01 -0.64631494087E+01 -0.55566866240E+01  0.11582307202E+02  0.51100000000E-03 0. -1.
        -11    1    3    3    0    0  0.10819517886E+02  0.37473073000E+01  0.14654809000E+02  0.18597518823E+02  0.51100000000E-03 0.  1.
        -12    1    3    3    0    0  0.19421503447E+02  0.32452187685E+01  0.51338995722E+01  0.20349033535E+02  0.00000000000E+00 0.  1.
</event>
<event>
 7    1  0.5748623E-013  0.5052887E+02  0.7816164E-02  0.1300439E+00
        -11   -1    0    0    0    0  0.00000000000E+00  0.00000000000E+00  0.45593999997E+02  0.45594000000E+02  0.51100000000E-03 0.  1.
         11   -1    0    0    0    0 -0.00000000000E+00 -0.00000000000E+00 -0.45593999997E+02  0.45594000000E+02  0.51100000000E-03 0. -1.
    9900012    2    1    2    0    0  0.44256330996E+01 -0.34166184752E+02  0.21592841239E+02  0.50528865705E+02  0.30000017796E+02 0.  0.
         12    1    1    2    0    0 -0.44256330996E+01  0.34166184752E+02 -0.21592841239E+02  0.40659134295E+02  0.00000000000E+00 0. -1.
         11    1    3    3    0    0  0.99520901594E+00  0.22804256049E+00  0.47439855256E+01  0.48526120103E+01  0.51100000000E-03 0. -1.
        -11    1    3    3    0    0 -0.18810486032E+01 -0.34832325738E+02  0.19237376803E+02  0.39835987834E+02  0.51100000000E-03 0.  1.
        -12    1    3    3    0    0  0.53114726868E+01  0.43809842539E+00 -0.23885210891E+01  0.58402658609E+01  0.00000000000E+00 0.  1.
</event>
<event>
 7    1  0.5748623E-013  0.5052889E+02  0.7816164E-02  0.1300439E+00
        -11   -1    0    0    0    0  0.00000000000E+00  0.00000000000E+00  0.45593999997E+02  0.45594000000E+02  0.51100000000E-03 0. -1.
         11   -1    0    0    0    0 -0.00000000000E+00 -0.00000000000E+00 -0.45593999997E+02  0.45594000000E+02  0.51100000000E-03 0.  1.
    9900012    2    1    2    0    0 -0.39688432834E+02 -0.68428193728E+01  0.55827877737E+01  0.50528887896E+02  0.30000085248E+02 0.  0.
         12    1    1    2    0    0  0.39688432834E+02  0.68428193728E+01 -0.55827877737E+01  0.40659112104E+02  0.00000000000E+00 0. -1.
         11    1    3    3    0    0 -0.75045099430E+01 -0.22814714767E+01  0.11788716437E+02  0.14159682803E+02  0.51100000000E-03 0. -1.
        -11    1    3    3    0    0 -0.21025378416E+02  0.62189281635E+00  0.26626644754E+01  0.21202430770E+02  0.51100000000E-03 0.  1.
         12    1    3    3    0    0 -0.11158544475E+02 -0.51832407124E+01 -0.88685931388E+01  0.15166774323E+02  0.00000000000E+00 0. -1.
</event>
<event>
 7    1  0.5748623E-013  0.5052879E+02  0.7816164E-02  0.1300439E+00
        -11   -1    0    0    0    0  0.00000000000E+00  0.00000000000E+00  0.45593999997E+02  0.45594000000E+02  0.51100000000E-03 0. -1.
         11   -1    0    0    0    0 -0.00000000000E+00 -0.00000000000E+00 -0.45593999997E+02  0.45594000000E+02  0.51100000000E-03 0.  1.
    9900012    2    1    2    0    0  0.36003168848E+02 -0.16069083680E+02 -0.99361895636E+01  0.50528788492E+02  0.29999783098E+02 0.  0.
         12    1    1    2    0    0 -0.36003168848E+02  0.16069083680E+02  0.99361895636E+01  0.40659211508E+02  0.00000000000E+00 0. -1.
         11    1    3    3    0    0  0.30798416214E+02  0.48733757016E+00 -0.18273518066E+01  0.30856428084E+02  0.51100000000E-03 0. -1.
        -11    1    3    3    0    0  0.59195323045E+01 -0.15613593789E+02 -0.72179861533E+01  0.18191330300E+02  0.51100000000E-03 0.  1.
         12    1    3    3    0    0 -0.71477967051E+00 -0.94282746122E+00 -0.89085160374E+00  0.14810301073E+01  0.00000000000E+00 0. -1.
</event>
<event>
 7    1  0.5748623E-013  0.5052887E+02  0.7816164E-02  0.1300439E+00
        -11   -1    0    0    0    0  0.00000000000E+00  0.00000000000E+00  0.45593999997E+02  0.45594000000E+02  0.51100000000E-03 0. -1.
         11   -1    0    0    0    0 -0.00000000000E+00 -0.00000000000E+00 -0.45593999997E+02  0.45594000000E+02  0.51100000000E-03 0.  1.
    9900012    2    1    2    0    0 -0.16254015312E+02 -0.33511582543E+02 -0.16307841974E+02  0.50528869560E+02  0.30000029516E+02 0.  0.
         12    1    1    2    0    0  0.16254015312E+02  0.33511582543E+02  0.16307841974E+02  0.40659130440E+02  0.00000000000E+00 0. -1.
         11    1    3    3    0    0  0.17135686666E+01  0.74931570225E-01  0.22245485668E+01  0.28090120866E+01  0.51100000000E-03 0. -1.
        -11    1    3    3    0    0 -0.11432941960E+02 -0.10994003431E+02 -0.18277173474E+02  0.24199903797E+02  0.51100000000E-03 0.  1.
        -12    1    3    3    0    0 -0.65346420180E+01 -0.22592510682E+02 -0.25521706637E+00  0.23519953677E+02  0.00000000000E+00 0.  1.
</event>
<event>
 7    1  0.5748623E-013  0.5052885E+02  0.7816164E-02  0.1300439E+00
        -11   -1    0    0    0    0  0.00000000000E+00  0.00000000000E+00  0.45593999997E+02  0.45594000000E+02  0.51100000000E-03 0.  1.
         11   -1    0    0    0    0 -0.00000000000E+00 -0.00000000000E+00 -0.45593999997E+02  0.45594000000E+02  0.51100000000E-03 0. -1.
    9900012    2    1    2    0    0 -0.19479407322E+02 -0.35291206355E+02  0.53151029776E+01  0.50528845123E+02  0.29999955237E+02 0.  0.
         12    1    1    2    0    0  0.19479407322E+02  0.35291206355E+02 -0.53151029776E+01  0.40659154877E+02  0.00000000000E+00 0. -1.
         11    1    3    3    0    0 -0.43357607198E+01 -0.13445480563E+02 -0.73994153132E+01  0.15947762095E+02  0.51100000000E-03 0. -1.
        -11    1    3    3    0    0 -0.43026357082E+00 -0.68004087065E+01  0.11667060407E+02  0.13511142961E+02  0.51100000000E-03 0.  1.
        -12    1    3    3    0    0 -0.14713383031E+02 -0.15045317086E+02  0.10474578842E+01  0.21069940067E+02  0.00000000000E+00 0.  1.
</event>
<event>
 7    1  0.5748623E-013  0.5052886E+02  0.7816164E-02  0.1300439E+00
        -11   -1    0    0    0    0  0.00000000000E+00  0.00000000000E+00  0.45593999997E+02  0.45594000000E+02  0.51100000000E-03 0. -1.
         11   -1    0    0    0    0 -0.00000000000E+00 -0.00000000000E+00 -0.45593999997E+02  0.45594000000E+02  0.51100000000E-03 0.  1.
    9900012    2    1    2    0    0 -0.61955080753E+01 -0.35164239480E+02 -0.19448849526E+02  0.50528858268E+02  0.29999995192E+02 0.  0.
         12    1    1    2    0    0  0.61955080753E+01  0.35164239480E+02  0.19448849526E+02  0.40659141732E+02  0.00000000000E+00 0. -1.
         11    1    3    3    0    0  0.53457080287E+01 -0.16012480278E+02 -0.73745690958E+00  0.16897335942E+02  0.51100000000E-03 0. -1.
        -11    1    3    3    0    0 -0.41595500109E+01 -0.13054066489E+02 -0.19711127512E+02  0.24004979822E+02  0.51100000000E-03 0.  1.
         12    1    3    3    0    0 -0.73816660931E+01 -0.60976927131E+01  0.99973489577E+00  0.96265425047E+01  0.00000000000E+00 0. -1.
</event>
<event>
 7    1  0.5748623E-013  0.5052886E+02  0.7816164E-02  0.1300439E+00
        -11   -1    0    0    0    0  0.00000000000E+00  0.00000000000E+00  0.45593999997E+02  0.45594000000E+02  0.51100000000E-03 0.  1.
         11   -1    0    0    0    0 -0.00000000000E+00 -0.00000000000E+00 -0.45593999997E+02  0.45594000000E+02  0.51100000000E-03 0. -1.
    9900012    2    1    2    0    0 -0.18721533909E+02  0.12588208197E+02  0.33826129329E+02  0.50528857818E+02  0.29999993825E+02 0.  0.
         12    1    1    2    0    0  0.18721533909E+02 -0.12588208197E+02 -0.33826129329E+02  0.40659142182E+02  0.00000000000E+00 0. -1.
         11    1    3    3    0    0 -0.14409433097E+02 -0.83454614590E+00  0.78827900650E+01  0.16445869053E+02  0.51100000000E-03 0. -1.
        -11    1    3    3    0    0  0.61234694215E+01  0.23657377188E+01  0.52554624535E+01  0.84091306668E+01  0.51100000000E-03 0.  1.
        -12    1    3    3    0    0 -0.10435570234E+02  0.11057016624E+02  0.20687876811E+02  0.25673858099E+02  0.00000000000E+00 0.  1.
</event>
<event>
 7    1  0.5748623E-013  0.5052879E+02  0.7816164E-02  0.1300439E+00
        -11   -1    0    0    0    0  0.00000000000E+00  0.00000000000E+00  0.45593999997E+02  0.45594000000E+02  0.51100000000E-03 0.  1.
         11   -1    0    0    0    0 -0.00000000000E+00 -0.00000000000E+00 -0.45593999997E+02  0.45594000000E+02  0.51100000000E-03 0. -1.
    9900012    2    1    2    0    0 -0.10221971509E+02 -0.38092010133E+02 -0.98833999582E+01  0.50528787855E+02  0.29999781165E+02 0.  0.
         12    1    1    2    0    0  0.10221971509E+02  0.38092010133E+02  0.98833999582E+01  0.40659212145E+02  0.00000000000E+00 0. -1.
         11    1    3    3    0    0 -0.19185044550E+02 -0.21613409601E+02 -0.91198739986E+00  0.28914306670E+02  0.51100000000E-03 0. -1.
        -11    1    3    3    0    0  0.15624903411E+01 -0.49827767304E+01 -0.53389689976E+01  0.74682012714E+01  0.51100000000E-03 0.  1.
         12    1    3    3    0    0  0.74005827001E+01 -0.11495823802E+02 -0.36324435607E+01  0.14146279914E+02  0.00000000000E+00 0. -1.
</event>
<event>
 7    1  0.5748623E-013  0.5052887E+02  0.7816164E-02  0.1300439E+00
        -11   -1    0    0    0    0  0.00000000000E+00  0.00000000000E+00  0.45593999997E+02  0.45594000000E+02  0.51100000000E-03 0.  1.
         11   -1    0    0    0    0 -0.00000000000E+00 -0.00000000000E+00 -0.45593999997E+02  0.45594000000E+02  0.51100000000E-03 0. -1.
    9900012    2    1    2    0    0  0.36406872278E+02 -0.15882226500E+02  0.86867533972E+01  0.50528866313E+02  0.30000019644E+02 0.  0.
         12    1    1    2    0    0 -0.36406872278E+02  0.15882226500E+02 -0.86867533972E+01  0.40659133687E+02  0.00000000000E+00 0. -1.
         11    1    3    3    0    0 -0.27249505801E+01 -0.49196707347E+01 -0.37541023014E+00  0.56364393817E+01  0.51100000000E-03 0. -1.
        -11    1    3    3    0    0  0.16927950934E+02  0.18424861465E+01  0.90013785120E+01  0.19260713730E+02  0.51100000000E-03 0.  1.
        -12    1    3    3    0    0  0.22203871924E+02 -0.12805041912E+02  0.60785115389E-01  0.25631713201E+02  0.00000000000E+00 0.  1.
</event>
<event>
 7    1  0.5748623E-013  0.5052886E+02  0.7816164E-02  0.1300439E+00
        -11   -1    0    0    0    0  0.00000000000E+00  0.00000000000E+00  0.45593999997E+02  0.45594000000E+02  0.51100000000E-03 0. -1.
         11   -1    0    0    0    0 -0.00000000000E+00 -0.00000000000E+00 -0.45593999997E+02  0.45594000000E+02  0.51100000000E-03 0.  1.
    9900012    2    1    2    0    0  0.37055501836E+02 -0.15240002261E+02 -0.69136213809E+01  0.50528855323E+02  0.29999986241E+02 0.  0.
         12    1    1    2    0    0 -0.37055501836E+02  0.15240002261E+02  0.69136213809E+01  0.40659144677E+02  0.00000000000E+00 0. -1.
         11    1    3    3    0    0  0.79912926024E+01 -0.73166190592E+01  0.75835859293E+01  0.13225144526E+02  0.51100000000E-03 0. -1.
        -11    1    3    3    0    0  0.27571474678E+02 -0.11897283875E+02 -0.13599574666E+02  0.32964829908E+02  0.51100000000E-03 0.  1.
        -12    1    3    3    0    0  0.14927345555E+01  0.39739006729E+01 -0.89763264419E+00  0.43388808897E+01  0.00000000000E+00 0.  1.
</event>
<event>
 7    1  0.5748623E-013  0.5052886E+02  0.7816164E-02  0.1300439E+00
        -11   -1    0    0    0    0  0.00000000000E+00  0.00000000000E+00  0.45593999997E+02  0.45594000000E+02  0.51100000000E-03 0. -1.
         11   -1    0    0    0    0 -0.00000000000E+00 -0.00000000000E+00 -0.45593999997E+02  0.45594000000E+02  0.51100000000E-03 0.  1.
    9900012    2    1    2    0    0 -0.26633961764E+02  0.30438407231E+02  0.41594184785E+01  0.50528864297E+02  0.30000013516E+02 0.  0.
         12    1    1    2    0    0  0.26633961764E+02 -0.30438407231E+02 -0.41594184785E+01  0.40659135703E+02  0.00000000000E+00 0. -1.
         11    1    3    3    0    0 -0.67903938669E+01  0.10094894517E+02  0.12382533425E+02  0.17359247635E+02  0.51100000000E-03 0. -1.
        -11    1    3    3    0    0 -0.11878539467E+02  0.20644250279E+01 -0.45983943961E+01  0.12903750690E+02  0.51100000000E-03 0.  1.
        -12    1    3    3    0    0 -0.79650284301E+01  0.18279087687E+02 -0.36247205499E+01  0.20265865972E+02  0.00000000000E+00 0.  1.
</event>
<event>
 7    1  0.5748623E-013  0.5052885E+02  0.7816164E-02  0.1300439E+00
        -11   -1    0    0    0    0  0.00000000000E+00  0.00000000000E+00  0.45593999997E+02  0.45594000000E+02  0.51100000000E-03 0.  1.
         11   -1    0    0    0    0 -0.00000000000E+00 -0.00000000000E+00 -0.45593999997E+02  0.45594000000E+02  0.51100000000E-03 0. -1.
    9900012    2    1    2    0    0 -0.92755788983E+01 -0.30742954532E+02  0.24939942029E+02  0.50528851882E+02  0.29999975781E+02 0.  0.
         12    1    1    2    0    0  0.92755788983E+01  0.30742954532E+02 -0.24939942029E+02  0.40659148118E+02  0.00000000000E+00 0. -1.
         11    1    3    3    0    0 -0.31115800875E+01 -0.18480938122E+02  0.20914555129E+02  0.28082834989E+02  0.51100000000E-03 0.  1.
        -11    1    3    3    0    0 -0.66513997957E+01 -0.10297801738E+02 -0.49681714696E+01  0.13227568480E+02  0.51100000000E-03 0. -1.
         12    1    3    3    0    0  0.48740098483E+00 -0.19642146721E+01  0.89935583697E+01  0.92184484133E+01  0.00000000000E+00 0. -1.
</event>
<event>
 7    1  0.5748623E-013  0.5052885E+02  0.7816164E-02  0.1300439E+00
        -11   -1    0    0    0    0  0.00000000000E+00  0.00000000000E+00  0.45593999997E+02  0.45594000000E+02  0.51100000000E-03 0.  1.
         11   -1    0    0    0    0 -0.00000000000E+00 -0.00000000000E+00 -0.45593999997E+02  0.45594000000E+02  0.51100000000E-03 0. -1.
    9900012    2    1    2    0    0  0.62714895445E+01 -0.32039606640E+02  0.24234235101E+02  0.50528854342E+02  0.29999983257E+02 0.  0.
         12    1    1    2    0    0 -0.62714895445E+01  0.32039606640E+02 -0.24234235101E+02  0.40659145658E+02  0.00000000000E+00 0. -1.
         11    1    3    3    0    0  0.18294561967E+02 -0.19245408923E+02  0.13394804541E+02  0.29740503545E+02  0.51100000000E-03 0. -1.
        -11    1    3    3    0    0 -0.92940335318E+01 -0.10172989397E+02  0.96481910347E+01  0.16821306818E+02  0.51100000000E-03 0.  1.
         12    1    3    3    0    0 -0.27290388904E+01 -0.26212083207E+01  0.11912395252E+01  0.39670439791E+01  0.00000000000E+00 0. -1.
</event>
<event>
 7    1  0.5748623E-013  0.5052885E+02  0.7816164E-02  0.1300439E+00
        -11   -1    0    0    0    0  0.00000000000E+00  0.00000000000E+00  0.45593999997E+02  0.45594000000E+02  0.51100000000E-03 0.  1.
         11   -1    0    0    0    0 -0.00000000000E+00 -0.00000000000E+00 -0.45593999997E+02  0.45594000000E+02  0.51100000000E-03 0. -1.
    9900012    2    1    2    0    0  0.14470122933E+02 -0.18341626193E+02  0.33277115061E+02  0.50528854708E+02  0.29999984370E+02 0.  0.
         12    1    1    2    0    0 -0.14470122933E+02  0.18341626193E+02 -0.33277115061E+02  0.40659145292E+02  0.00000000000E+00 0. -1.
         11    1    3    3    0    0  0.11162372534E+02  0.24911323416E+01  0.83168099361E+01  0.14141203227E+02  0.51100000000E-03 0. -1.
        -11    1    3    3    0    0 -0.38519644632E+01 -0.17120664101E+02  0.21108036219E+02  0.27450026644E+02  0.51100000000E-03 0.  1.
        -12    1    3    3    0    0  0.71597148629E+01 -0.37120944335E+01  0.38522689063E+01  0.89376248370E+01  0.00000000000E+00 0.  1.
</event>
<event>
 7    1  0.5748623E-013  0.5052886E+02  0.7816164E-02  0.1300439E+00
        -11   -1    0    0    0    0  0.00000000000E+00  0.00000000000E+00  0.45593999997E+02  0.45594000000E+02  0.51100000000E-03 0.  1.
         11   -1    0    0    0    0 -0.00000000000E+00 -0.00000000000E+00 -0.45593999997E+02  0.45594000000E+02  0.51100000000E-03 0. -1.
    9900012    2    1    2    0    0  0.74552614080E+01 -0.39749468863E+02  0.41909997749E+01  0.50528859864E+02  0.30000000041E+02 0.  0.
         12    1    1    2    0    0 -0.74552614080E+01  0.39749468863E+02 -0.41909997749E+01  0.40659140136E+02  0.00000000000E+00 0. -1.
         11    1    3    3    0    0 -0.58887710448E+01 -0.42067828181E+01  0.33475262167E+01  0.79737430438E+01  0.51100000000E-03 0. -1.
        -11    1    3    3    0    0  0.63903354833E+01 -0.33491921016E+02  0.45744451654E+01  0.34401609116E+02  0.51100000000E-03 0.  1.
        -12    1    3    3    0    0  0.69536969694E+01 -0.20507650288E+01 -0.37309716073E+01  0.81535077041E+01  0.00000000000E+00 0.  1.
</event>
<event>
 7    1  0.5748623E-013  0.5052884E+02  0.7816164E-02  0.1300439E+00
        -11   -1    0    0    0    0  0.00000000000E+00  0.00000000000E+00  0.45593999997E+02  0.45594000000E+02  0.51100000000E-03 0.  1.
         11   -1    0    0    0    0 -0.00000000000E+00 -0.00000000000E+00 -0.45593999997E+02  0.45594000000E+02  0.51100000000E-03 0. -1.
    9900012    2    1    2    0    0  0.38138732364E+01  0.38667139685E+02  0.11978049105E+02  0.50528843825E+02  0.29999951290E+02 0.  0.
         12    1    1    2    0    0 -0.38138732364E+01 -0.38667139685E+02 -0.11978049105E+02  0.40659156175E+02  0.00000000000E+00 0. -1.
         11    1    3    3    0    0 -0.62555525484E+01 -0.55071886748E+00 -0.70665274388E+00  0.63193818778E+01  0.51100000000E-03 0. -1.
        -11    1    3    3    0    0  0.10509352421E+02  0.30994943242E+02  0.53117844791E+01  0.33156417923E+02  0.51100000000E-03 0.  1.
        -12    1    3    3    0    0 -0.43992663667E+00  0.82229153113E+01  0.73729173694E+01  0.11053044024E+02  0.00000000000E+00 0.  1.
</event>
<event>
 7    1  0.5748623E-013  0.5052886E+02  0.7816164E-02  0.1300439E+00
        -11   -1    0    0    0    0  0.00000000000E+00  0.00000000000E+00  0.45593999997E+02  0.45594000000E+02  0.51100000000E-03 0.  1.
         11   -1    0    0    0    0 -0.00000000000E+00 -0.00000000000E+00 -0.45593999997E+02  0.45594000000E+02  0.51100000000E-03 0. -1.
    9900012    2    1    2    0    0  0.30525865920E+01 -0.34408572584E+02  0.21445215385E+02  0.50528863080E+02  0.30000009819E+02 0.  0.
         12    1    1    2    0    0 -0.30525865920E+01  0.34408572584E+02 -0.21445215385E+02  0.40659136920E+02  0.00000000000E+00 0. -1.
         11    1    3    3    0    0 -0.52973783269E+01 -0.19053046233E+02  0.24793569145E+02  0.31714379375E+02  0.51100000000E-03 0. -1.
        -11    1    3    3    0    0  0.74413772803E+01 -0.14536685897E+02 -0.12407683889E+01  0.16377693341E+02  0.51100000000E-03 0.  1.
         12    1    3    3    0    0  0.90858763859E+00 -0.81884045273E+00 -0.21075853711E+01  0.24367903645E+01  0.00000000000E+00 0. -1.
</event>
<event>
 7    1  0.5748623E-013  0.5052885E+02  0.7816164E-02  0.1300439E+00
        -11   -1    0    0    0    0  0.00000000000E+00  0.00000000000E+00  0.45593999997E+02  0.45594000000E+02  0.51100000000E-03 0.  1.
         11   -1    0    0    0    0 -0.00000000000E+00 -0.00000000000E+00 -0.45593999997E+02  0.45594000000E+02  0.51100000000E-03 0. -1.
    9900012    2    1    2    0    0  0.24840819292E+02 -0.28657295432E+02  0.14658078748E+02  0.50528853955E+02  0.29999982080E+02 0.  0.
         12    1    1    2    0    0 -0.24840819292E+02  0.28657295432E+02 -0.14658078748E+02  0.40659146045E+02  0.00000000000E+00 0. -1.
         11    1    3    3    0    0  0.32832502671E+01 -0.38508800909E+01 -0.24650787317E+01  0.56289984194E+01  0.51100000000E-03 0. -1.
        -11    1    3    3    0    0 -0.20676121288E+00 -0.35496996103E+00  0.11714088076E+02  0.11721288904E+02  0.51100000000E-03 0.  1.
        -12    1    3    3    0    0  0.21764330238E+02 -0.24451445380E+02  0.54090694036E+01  0.33178566631E+02  0.00000000000E+00 0.  1.
</event>
<event>
 7    1  0.5748623E-013  0.5052885E+02  0.7816164E-02  0.1300439E+00
        -11   -1    0    0    0    0  0.00000000000E+00  0.00000000000E+00  0.45593999997E+02  0.45594000000E+02  0.51100000000E-03 0.  1.
         11   -1    0    0    0    0 -0.00000000000E+00 -0.00000000000E+00 -0.45593999997E+02  0.45594000000E+02  0.51100000000E-03 0. -1.
    9900012    2    1    2    0    0 -0.20951578000E+02  0.31629090207E+02  0.14621851071E+02  0.50528849778E+02  0.29999969386E+02 0.  0.
         12    1    1    2    0    0  0.20951578000E+02 -0.31629090207E+02 -0.14621851071E+02  0.40659150222E+02  0.00000000000E+00 0. -1.
         11    1    3    3    0    0  0.21349042850E+01  0.18545567202E+02 -0.20454727032E+01  0.18779772044E+02  0.51100000000E-03 0. -1.
        -11    1    3    3    0    0 -0.12091061128E+02  0.80297606693E+01  0.11799071464E+02  0.18705317513E+02  0.51100000000E-03 0.  1.
         12    1    3    3    0    0 -0.10995421157E+02  0.50537623348E+01  0.48682523112E+01  0.13043760222E+02  0.00000000000E+00 0. -1.
</event>
<event>
 7    1  0.5748623E-013  0.5052886E+02  0.7816164E-02  0.1300439E+00
        -11   -1    0    0    0    0  0.00000000000E+00  0.00000000000E+00  0.45593999997E+02  0.45594000000E+02  0.51100000000E-03 0.  1.
         11   -1    0    0    0    0 -0.00000000000E+00 -0.00000000000E+00 -0.45593999997E+02  0.45594000000E+02  0.51100000000E-03 0. -1.
    9900012    2    1    2    0    0  0.91808934712E+01 -0.18015813686E+02  0.35274740172E+02  0.50528860290E+02  0.30000001339E+02 0.  0.
         12    1    1    2    0    0 -0.91808934712E+01  0.18015813686E+02 -0.35274740172E+02  0.40659139710E+02  0.00000000000E+00 0. -1.
         11    1    3    3    0    0  0.13333424727E+02  0.20814821189E+01  0.19734857015E+02  0.23907684213E+02  0.51100000000E-03 0. -1.
        -11    1    3    3    0    0 -0.48262693459E+01 -0.76178640327E+01  0.77817731968E+01  0.11911369466E+02  0.51100000000E-03 0.  1.
         12    1    3    3    0    0  0.67373808987E+00 -0.12479431772E+02  0.77581099608E+01  0.14709806611E+02  0.00000000000E+00 0. -1.
</event>
<event>
 7    1  0.5748623E-013  0.5052886E+02  0.7816164E-02  0.1300439E+00
        -11   -1    0    0    0    0  0.00000000000E+00  0.00000000000E+00  0.45593999997E+02  0.45594000000E+02  0.51100000000E-03 0.  1.
         11   -1    0    0    0    0 -0.00000000000E+00 -0.00000000000E+00 -0.45593999997E+02  0.45594000000E+02  0.51100000000E-03 0. -1.
    9900012    2    1    2    0    0 -0.36308961216E+01 -0.32924379709E+02  0.23578963158E+02  0.50528859705E+02  0.29999999560E+02 0.  0.
         12    1    1    2    0    0  0.36308961216E+01  0.32924379709E+02 -0.23578963158E+02  0.40659140295E+02  0.00000000000E+00 0. -1.
         11    1    3    3    0    0  0.46839985447E+01  0.25315630768E+01  0.44778875180E+01  0.69570202575E+01  0.51100000000E-03 0. -1.
        -11    1    3    3    0    0 -0.85930612790E+01 -0.83640324948E+01  0.46150738064E+01  0.12848994055E+02  0.51100000000E-03 0.  1.
         12    1    3    3    0    0  0.27816661265E+00 -0.27091910291E+02  0.14486001834E+02  0.30722845393E+02  0.00000000000E+00 0. -1.
</event>
<event>
 7    1  0.5753003E-013  0.5052886E+02  0.7816164E-02  0.1300439E+00
        -11   -1    0    0    0    0  0.00000000000E+00  0.00000000000E+00  0.45593999997E+02  0.45594000000E+02  0.51100000000E-03 0.  1.
         11   -1    0    0    0    0 -0.00000000000E+00 -0.00000000000E+00 -0.45593999997E+02  0.45594000000E+02  0.51100000000E-03 0. -1.
    9900012    2    1    2    0    0 -0.13906745438E+02 -0.23948595498E+02 -0.29769665123E+02  0.50528858881E+02  0.29999997056E+02 0.  0.
         12    1    1    2    0    0  0.13906745438E+02  0.23948595498E+02  0.29769665123E+02  0.40659141119E+02  0.00000000000E+00 0. -1.
         11    1    3    3    0    0 -0.54812915538E-01  0.20814623427E+01  0.90649590889E+00  0.22709524508E+01  0.51100000000E-03 0. -1.
        -11    1    3    3    0    0 -0.17351164336E+02 -0.14755577748E+02 -0.28105763498E+02  0.36176289480E+02  0.51100000000E-03 0.  1.
        -12    1    3    3    0    0  0.34992318139E+01 -0.11274480093E+02 -0.25703975332E+01  0.12081616950E+02  0.00000000000E+00 0.  1.
</event>
<event>
 7    1  0.5748623E-013  0.5052889E+02  0.7816164E-02  0.1300439E+00
        -11   -1    0    0    0    0  0.00000000000E+00  0.00000000000E+00  0.45593999997E+02  0.45594000000E+02  0.51100000000E-03 0. -1.
         11   -1    0    0    0    0 -0.00000000000E+00 -0.00000000000E+00 -0.45593999997E+02  0.45594000000E+02  0.51100000000E-03 0.  1.
    9900012    2    1    2    0    0 -0.24533632054E+02 -0.12652495668E+02  0.29852616527E+02  0.50528887099E+02  0.30000082827E+02 0.  0.
         12    1    1    2    0    0  0.24533632054E+02  0.12652495668E+02 -0.29852616527E+02  0.40659112901E+02  0.00000000000E+00 0. -1.
         11    1    3    3    0    0 -0.25493419600E+02 -0.32898989554E+00  0.14661370979E+02  0.29410516427E+02  0.51100000000E-03 0. -1.
        -11    1    3    3    0    0 -0.26399893041E+01 -0.59187364755E+01  0.10692957505E+02  0.12503612496E+02  0.51100000000E-03 0.  1.
         12    1    3    3    0    0  0.35997768503E+01 -0.64047692972E+01  0.44982880430E+01  0.86147581765E+01  0.00000000000E+00 0. -1.
</event>
<event>
 7    1  0.5748623E-013  0.5052886E+02  0.7816164E-02  0.1300439E+00
        -11   -1    0    0    0    0  0.00000000000E+00  0.00000000000E+00  0.45593999997E+02  0.45594000000E+02  0.51100000000E-03 0.  1.
         11   -1    0    0    0    0 -0.00000000000E+00 -0.00000000000E+00 -0.45593999997E+02  0.45594000000E+02  0.51100000000E-03 0. -1.
    9900012    2    1    2    0    0  0.37655412370E+02  0.94402810552E+01  0.12087873056E+02  0.50528860041E+02  0.30000000581E+02 0.  0.
         12    1    1    2    0    0 -0.37655412370E+02 -0.94402810552E+01 -0.12087873056E+02  0.40659139959E+02  0.00000000000E+00 0. -1.
         11    1    3    3    0    0  0.11619358038E+02  0.29697422019E+01 -0.86818390148E+01  0.14805511774E+02  0.51100000000E-03 0. -1.
        -11    1    3    3    0    0  0.21481074494E+02  0.91602266505E+01  0.14367313897E+02  0.27418351931E+02  0.51100000000E-03 0.  1.
         12    1    3    3    0    0  0.45549798381E+01 -0.26896877972E+01  0.64023981736E+01  0.83049963363E+01  0.00000000000E+00 0. -1.
</event>
<event>
 7    1  0.5748623E-013  0.5052886E+02  0.7816164E-02  0.1300439E+00
        -11   -1    0    0    0    0  0.00000000000E+00  0.00000000000E+00  0.45593999997E+02  0.45594000000E+02  0.51100000000E-03 0.  1.
         11   -1    0    0    0    0 -0.00000000000E+00 -0.00000000000E+00 -0.45593999997E+02  0.45594000000E+02  0.51100000000E-03 0. -1.
    9900012    2    1    2    0    0 -0.24122675472E+02  0.31627950702E+02  0.84223003112E+01  0.50528857362E+02  0.29999992437E+02 0.  0.
         12    1    1    2    0    0  0.24122675472E+02 -0.31627950702E+02 -0.84223003112E+01  0.40659142638E+02  0.00000000000E+00 0. -1.
         11    1    3    3    0    0 -0.35974753574E+01  0.13131986579E+01 -0.45924095316E+01  0.59796776860E+01  0.51100000000E-03 0. -1.
        -11    1    3    3    0    0 -0.20096392250E+02  0.11281468030E+02  0.10570109782E+02  0.25354757413E+02  0.51100000000E-03 0.  1.
        -12    1    3    3    0    0 -0.42880786428E+00  0.19033284014E+02  0.24446000605E+01  0.19194422263E+02  0.00000000000E+00 0.  1.
</event>
<event>
 7    1  0.5748623E-013  0.5052886E+02  0.7816164E-02  0.1300439E+00
        -11   -1    0    0    0    0  0.00000000000E+00  0.00000000000E+00  0.45593999997E+02  0.45594000000E+02  0.51100000000E-03 0.  1.
         11   -1    0    0    0    0 -0.00000000000E+00 -0.00000000000E+00 -0.45593999997E+02  0.45594000000E+02  0.51100000000E-03 0. -1.
    9900012    2    1    2    0    0 -0.26505838381E+02 -0.16776972019E+02  0.25867735979E+02  0.50528855603E+02  0.29999987091E+02 0.  0.
         12    1    1    2    0    0  0.26505838381E+02  0.16776972019E+02 -0.25867735979E+02  0.40659144397E+02  0.00000000000E+00 0. -1.
         11    1    3    3    0    0  0.11088725630E+00  0.20254078461E+00 -0.19318116016E+01  0.19455629206E+01  0.51100000000E-03 0. -1.
        -11    1    3    3    0    0 -0.20567329314E+02 -0.18459791673E+02  0.31042070043E+02  0.41561870225E+02  0.51100000000E-03 0.  1.
        -12    1    3    3    0    0 -0.60493963235E+01  0.14802788695E+01 -0.32425224628E+01  0.70214224579E+01  0.00000000000E+00 0.  1.
</event>
<event>
 7    1  0.5748623E-013  0.5052885E+02  0.7816164E-02  0.1300439E+00
        -11   -1    0    0    0    0  0.00000000000E+00  0.00000000000E+00  0.45593999997E+02  0.45594000000E+02  0.51100000000E-03 0.  1.
         11   -1    0    0    0    0 -0.00000000000E+00 -0.00000000000E+00 -0.45593999997E+02  0.45594000000E+02  0.51100000000E-03 0. -1.
    9900012    2    1    2    0    0 -0.84934015640E+01 -0.16291892636E+02  0.36271235381E+02  0.50528854019E+02  0.29999982277E+02 0.  0.
         12    1    1    2    0    0  0.84934015640E+01  0.16291892636E+02 -0.36271235381E+02  0.40659145981E+02  0.00000000000E+00 0. -1.
         11    1    3    3    0    0 -0.33059579820E+01 -0.96403355554E+01  0.43193594344E+01  0.11068978904E+02  0.51100000000E-03 0. -1.
        -11    1    3    3    0    0  0.16332460108E+01 -0.65896471175E+01  0.31924969609E+02  0.32638851488E+02  0.51100000000E-03 0.  1.
        -12    1    3    3    0    0 -0.68206895928E+01 -0.61909963051E-01  0.26906337559E-01  0.68210236267E+01  0.00000000000E+00 0.  1.
</event>
<event>
 7    1  0.5748623E-013  0.5052886E+02  0.7816164E-02  0.1300439E+00
        -11   -1    0    0    0    0  0.00000000000E+00  0.00000000000E+00  0.45593999997E+02  0.45594000000E+02  0.51100000000E-03 0.  1.
         11   -1    0    0    0    0 -0.00000000000E+00 -0.00000000000E+00 -0.45593999997E+02  0.45594000000E+02  0.51100000000E-03 0. -1.
    9900012    2    1    2    0    0 -0.59533283159E+00  0.37041335858E+02  0.16755615795E+02  0.50528860265E+02  0.30000001262E+02 0.  0.
         12    1    1    2    0    0  0.59533283159E+00 -0.37041335858E+02 -0.16755615795E+02  0.40659139735E+02  0.00000000000E+00 0. -1.
         11    1    3    3    0    0  0.53266518426E+01  0.44768385547E+01  0.71314697998E+01  0.99635919759E+01  0.51100000000E-03 0. -1.
        -11    1    3    3    0    0 -0.93172801272E+01  0.30151617201E+02  0.13999589861E+02  0.34524197968E+02  0.51100000000E-03 0.  1.
        -12    1    3    3    0    0  0.33952954530E+01  0.24128801026E+01 -0.43754438663E+01  0.60410703216E+01  0.00000000000E+00 0.  1.
</event>
<event>
 7    1  0.5748623E-013  0.5052886E+02  0.7816164E-02  0.1300439E+00
        -11   -1    0    0    0    0  0.00000000000E+00  0.00000000000E+00  0.45593999997E+02  0.45594000000E+02  0.51100000000E-03 0. -1.
         11   -1    0    0    0    0 -0.00000000000E+00 -0.00000000000E+00 -0.45593999997E+02  0.45594000000E+02  0.51100000000E-03 0.  1.
    9900012    2    1    2    0    0 -0.32880736742E+01  0.11970576759E+02 -0.38717688060E+02  0.50528861972E+02  0.30000006450E+02 0.  0.
         12    1    1    2    0    0  0.32880736742E+01 -0.11970576759E+02  0.38717688060E+02  0.40659138028E+02  0.00000000000E+00 0. -1.
         11    1    3    3    0    0 -0.39530737568E+01  0.87133789499E+01 -0.20764107282E+01  0.97908756822E+01  0.51100000000E-03 0. -1.
        -11    1    3    3    0    0 -0.36821398608E+01 -0.60777315192E+01 -0.19339090147E+02  0.20603334254E+02  0.51100000000E-03 0.  1.
        -12    1    3    3    0    0  0.43471399434E+01  0.93349293279E+01 -0.17302187185E+02  0.20134652036E+02  0.00000000000E+00 0.  1.
</event>
<event>
 7    1  0.5748623E-013  0.5052884E+02  0.7816164E-02  0.1300439E+00
        -11   -1    0    0    0    0  0.00000000000E+00  0.00000000000E+00  0.45593999997E+02  0.45594000000E+02  0.51100000000E-03 0. -1.
         11   -1    0    0    0    0 -0.00000000000E+00 -0.00000000000E+00 -0.45593999997E+02  0.45594000000E+02  0.51100000000E-03 0.  1.
    9900012    2    1    2    0    0  0.33459119891E+02 -0.19565526785E+02  0.12281895725E+02  0.50528837381E+02  0.29999931704E+02 0.  0.
         12    1    1    2    0    0 -0.33459119891E+02  0.19565526785E+02 -0.12281895725E+02  0.40659162619E+02  0.00000000000E+00 0. -1.
         11    1    3    3    0    0  0.16099630040E+02 -0.44474464147E+01 -0.86823253277E+01  0.18824469193E+02  0.51100000000E-03 0. -1.
        -11    1    3    3    0    0  0.36220495474E+01 -0.64296189267E+01  0.49478666425E+01  0.88848537995E+01  0.51100000000E-03 0.  1.
         12    1    3    3    0    0  0.13737440304E+02 -0.86884614439E+01  0.16016354410E+02  0.22819514389E+02  0.00000000000E+00 0. -1.
</event>
<event>
 7    1  0.5748623E-013  0.5052878E+02  0.7816164E-02  0.1300439E+00
        -11   -1    0    0    0    0  0.00000000000E+00  0.00000000000E+00  0.45593999997E+02  0.45594000000E+02  0.51100000000E-03 0. -1.
         11   -1    0    0    0    0 -0.00000000000E+00 -0.00000000000E+00 -0.45593999997E+02  0.45594000000E+02  0.51100000000E-03 0.  1.
    9900012    2    1    2    0    0 -0.19298425021E+02  0.48191142739E+01 -0.35461517379E+02  0.50528778592E+02  0.29999753008E+02 0.  0.
         12    1    1    2    0    0  0.19298425021E+02 -0.48191142739E+01  0.35461517379E+02  0.40659221408E+02  0.00000000000E+00 0. -1.
         11    1    3    3    0    0 -0.96838148700E+01  0.11209390940E+02 -0.43342176557E+01  0.15434123189E+02  0.51100000000E-03 0. -1.
        -11    1    3    3    0    0 -0.57691812079E+01 -0.11120116531E+01 -0.26366098777E+02  0.27012796721E+02  0.51100000000E-03 0.  1.
         12    1    3    3    0    0 -0.38454289434E+01 -0.52782650126E+01 -0.47612009463E+01  0.80818586818E+01  0.00000000000E+00 0. -1.
</event>
<event>
 7    1  0.5748623E-013  0.5052878E+02  0.7816164E-02  0.1300439E+00
        -11   -1    0    0    0    0  0.00000000000E+00  0.00000000000E+00  0.45593999997E+02  0.45594000000E+02  0.51100000000E-03 0.  1.
         11   -1    0    0    0    0 -0.00000000000E+00 -0.00000000000E+00 -0.45593999997E+02  0.45594000000E+02  0.51100000000E-03 0. -1.
    9900012    2    1    2    0    0 -0.39493494003E+02 -0.61798429327E+01 -0.74327417846E+01  0.50528779918E+02  0.29999757037E+02 0.  0.
         12    1    1    2    0    0  0.39493494003E+02  0.61798429327E+01  0.74327417846E+01  0.40659220082E+02  0.00000000000E+00 0. -1.
         11    1    3    3    0    0 -0.31732267611E+01 -0.37274520989E+01 -0.39791676400E-01  0.48953907776E+01  0.51100000000E-03 0. -1.
        -11    1    3    3    0    0 -0.80896357831E+01  0.11083326476E+02 -0.21090202000E+01  0.13882733857E+02  0.51100000000E-03 0.  1.
        -12    1    3    3    0    0 -0.28230631459E+02 -0.13535717309E+02 -0.52839299081E+01  0.31750655284E+02  0.00000000000E+00 0.  1.
</event>
<event>
 7    1  0.5748623E-013  0.5052886E+02  0.7816164E-02  0.1300439E+00
        -11   -1    0    0    0    0  0.00000000000E+00  0.00000000000E+00  0.45593999997E+02  0.45594000000E+02  0.51100000000E-03 0.  1.
         11   -1    0    0    0    0 -0.00000000000E+00 -0.00000000000E+00 -0.45593999997E+02  0.45594000000E+02  0.51100000000E-03 0. -1.
    9900012    2    1    2    0    0  0.21202543569E+02  0.27601238906E+02  0.21018777956E+02  0.50528864868E+02  0.30000015253E+02 0.  0.
         12    1    1    2    0    0 -0.21202543569E+02 -0.27601238906E+02 -0.21018777956E+02  0.40659135132E+02  0.00000000000E+00 0. -1.
         11    1    3    3    0    0 -0.52555355861E+01  0.63726775415E+01  0.31032487401E+01  0.88239348563E+01  0.51100000000E-03 0. -1.
        -11    1    3    3    0    0  0.20211616607E+02  0.10604553373E+02  0.18479678516E+02  0.29367746192E+02  0.51100000000E-03 0.  1.
         12    1    3    3    0    0  0.62464625479E+01  0.10624007992E+02 -0.56414930036E+00  0.12337183820E+02  0.00000000000E+00 0. -1.
</event>
<event>
 7    1  0.5748623E-013  0.5052886E+02  0.7816164E-02  0.1300439E+00
        -11   -1    0    0    0    0  0.00000000000E+00  0.00000000000E+00  0.45593999997E+02  0.45594000000E+02  0.51100000000E-03 0.  1.
         11   -1    0    0    0    0 -0.00000000000E+00 -0.00000000000E+00 -0.45593999997E+02  0.45594000000E+02  0.51100000000E-03 0. -1.
    9900012    2    1    2    0    0  0.12663656133E+02  0.18902435949E+02  0.33697110734E+02  0.50528861503E+02  0.30000005026E+02 0.  0.
         12    1    1    2    0    0 -0.12663656133E+02 -0.18902435949E+02 -0.33697110734E+02  0.40659138497E+02  0.00000000000E+00 0. -1.
         11    1    3    3    0    0 -0.51765118780E+01  0.28258195240E+01  0.13019119058E+02  0.14292620212E+02  0.51100000000E-03 0.  1.
        -11    1    3    3    0    0  0.10155253517E+02 -0.15264359965E+01  0.48961328135E+01  0.11376787668E+02  0.51100000000E-03 0. -1.
        -12    1    3    3    0    0  0.76849144943E+01  0.17603052422E+02  0.15781858862E+02  0.24859453624E+02  0.00000000000E+00 0.  1.
</event>
<event>
 7    1  0.5748623E-013  0.5052886E+02  0.7816164E-02  0.1300439E+00
        -11   -1    0    0    0    0  0.00000000000E+00  0.00000000000E+00  0.45593999997E+02  0.45594000000E+02  0.51100000000E-03 0. -1.
         11   -1    0    0    0    0 -0.00000000000E+00 -0.00000000000E+00 -0.45593999997E+02  0.45594000000E+02  0.51100000000E-03 0.  1.
    9900012    2    1    2    0    0 -0.82578678676E+01  0.90972564787E+01 -0.38758393215E+02  0.50528862014E+02  0.30000006578E+02 0.  0.
         12    1    1    2    0    0  0.82578678676E+01 -0.90972564787E+01  0.38758393215E+02  0.40659137986E+02  0.00000000000E+00 0. -1.
         11    1    3    3    0    0 -0.30705131200E+01 -0.44710263893E+01  0.30948109061E-01  0.54239363787E+01  0.51100000000E-03 0. -1.
        -11    1    3    3    0    0  0.66793647304E+01  0.51910265331E+01 -0.15458251656E+02  0.17621527011E+02  0.51100000000E-03 0.  1.
        -12    1    3    3    0    0 -0.11866719478E+02  0.83772563348E+01 -0.23331089668E+02  0.27483398625E+02  0.00000000000E+00 0.  1.
</event>
<event>
 7    1  0.5748623E-013  0.5052888E+02  0.7816164E-02  0.1300439E+00
        -11   -1    0    0    0    0  0.00000000000E+00  0.00000000000E+00  0.45593999997E+02  0.45594000000E+02  0.51100000000E-03 0. -1.
         11   -1    0    0    0    0 -0.00000000000E+00 -0.00000000000E+00 -0.45593999997E+02  0.45594000000E+02  0.51100000000E-03 0.  1.
    9900012    2    1    2    0    0  0.57065792320E+01 -0.12679433205E+02 -0.38207736681E+02  0.50528877835E+02  0.30000054667E+02 0.  0.
         12    1    1    2    0    0 -0.57065792320E+01  0.12679433205E+02  0.38207736681E+02  0.40659122165E+02  0.00000000000E+00 0. -1.
         11    1    3    3    0    0  0.12317553915E+02 -0.10265136864E+02 -0.31912479960E+02  0.35714164512E+02  0.51100000000E-03 0. -1.
        -11    1    3    3    0    0 -0.76174644243E+01 -0.15024764223E+01 -0.89404590739E+01  0.11841241842E+02  0.51100000000E-03 0.  1.
         12    1    3    3    0    0  0.10064897410E+01 -0.91181991823E+00  0.26452023526E+01  0.29734714810E+01  0.00000000000E+00 0. -1.
</event>
<event>
 7    1  0.5748623E-013  0.5052887E+02  0.7816164E-02  0.1300439E+00
        -11   -1    0    0    0    0  0.00000000000E+00  0.00000000000E+00  0.45593999997E+02  0.45594000000E+02  0.51100000000E-03 0.  1.
         11   -1    0    0    0    0 -0.00000000000E+00 -0.00000000000E+00 -0.45593999997E+02  0.45594000000E+02  0.51100000000E-03 0. -1.
    9900012    2    1    2    0    0 -0.39612347747E+02  0.42169063671E+01  0.81390876200E+01  0.50528866455E+02  0.30000020077E+02 0.  0.
         12    1    1    2    0    0  0.39612347747E+02 -0.42169063671E+01 -0.81390876200E+01  0.40659133545E+02  0.00000000000E+00 0. -1.
         11    1    3    3    0    0 -0.11924332326E+02 -0.39311802819E+00  0.12565473343E+02  0.17327301112E+02  0.51100000000E-03 0. -1.
        -11    1    3    3    0    0 -0.28855383658E+02  0.49134911142E+01 -0.69381738943E+00  0.29278950524E+02  0.51100000000E-03 0.  1.
         12    1    3    3    0    0  0.11673682373E+01 -0.30346671890E+00 -0.37325683338E+01  0.39226148189E+01  0.00000000000E+00 0. -1.
</event>
<event>
 7    1  0.5748623E-013  0.5052885E+02  0.7816164E-02  0.1300439E+00
        -11   -1    0    0    0    0  0.00000000000E+00  0.00000000000E+00  0.45593999997E+02  0.45594000000E+02  0.51100000000E-03 0.  1.
         11   -1    0    0    0    0 -0.00000000000E+00 -0.00000000000E+00 -0.45593999997E+02  0.45594000000E+02  0.51100000000E-03 0. -1.
    9900012    2    1    2    0    0  0.20649197089E+02 -0.22826325025E+01  0.34950924232E+02  0.50528845358E+02  0.29999955949E+02 0.  0.
         12    1    1    2    0    0 -0.20649197089E+02  0.22826325025E+01 -0.34950924232E+02  0.40659154642E+02  0.00000000000E+00 0. -1.
         11    1    3    3    0    0  0.15471673413E+02 -0.80299763045E+01  0.75368881836E+01  0.18990994745E+02  0.51100000000E-03 0. -1.
        -11    1    3    3    0    0 -0.11356888033E+01  0.76315709814E+01  0.20875152339E+02  0.22255395978E+02  0.51100000000E-03 0.  1.
         12    1    3    3    0    0  0.63132124799E+01 -0.18842271794E+01  0.65388837091E+01  0.92824546344E+01  0.00000000000E+00 0. -1.
</event>
<event>
 7    1  0.5748623E-013  0.5052886E+02  0.7816164E-02  0.1300439E+00
        -11   -1    0    0    0    0  0.00000000000E+00  0.00000000000E+00  0.45593999997E+02  0.45594000000E+02  0.51100000000E-03 0.  1.
         11   -1    0    0    0    0 -0.00000000000E+00 -0.00000000000E+00 -0.45593999997E+02  0.45594000000E+02  0.51100000000E-03 0. -1.
    9900012    2    1    2    0    0 -0.31531599065E+02  0.37228028007E+01  0.25398123980E+02  0.50528859552E+02  0.29999999093E+02 0.  0.
         12    1    1    2    0    0  0.31531599065E+02 -0.37228028007E+01 -0.25398123980E+02  0.40659140448E+02  0.00000000000E+00 0. -1.
         11    1    3    3    0    0 -0.31270917621E+01  0.89053083507E+01  0.68417194799E+01  0.11657287224E+02  0.51100000000E-03 0. -1.
        -11    1    3    3    0    0 -0.28433331513E+02  0.35211433460E+00  0.16968623581E+02  0.33113630304E+02  0.51100000000E-03 0.  1.
        -12    1    3    3    0    0  0.28824210343E-01 -0.55346198846E+01  0.15877809197E+01  0.57579420239E+01  0.00000000000E+00 0.  1.
</event>
<event>
 7    1  0.5748623E-013  0.5052886E+02  0.7816164E-02  0.1300439E+00
        -11   -1    0    0    0    0  0.00000000000E+00  0.00000000000E+00  0.45593999997E+02  0.45594000000E+02  0.51100000000E-03 0.  1.
         11   -1    0    0    0    0 -0.00000000000E+00 -0.00000000000E+00 -0.45593999997E+02  0.45594000000E+02  0.51100000000E-03 0. -1.
    9900012    2    1    2    0    0 -0.14220353199E+02 -0.26890710984E+02  0.26978446664E+02  0.50528863674E+02  0.30000011624E+02 0.  0.
         12    1    1    2    0    0  0.14220353199E+02  0.26890710984E+02 -0.26978446664E+02  0.40659136326E+02  0.00000000000E+00 0. -1.
         11    1    3    3    0    0  0.13343882644E+01 -0.84505672352E+01  0.46240020717E+01  0.97249202596E+01  0.51100000000E-03 0. -1.
        -11    1    3    3    0    0 -0.13044574357E+02  0.22247376446E+01  0.10110678733E+02  0.16653414138E+02  0.51100000000E-03 0.  1.
        -12    1    3    3    0    0 -0.25101671068E+01 -0.20664881394E+02  0.12243765859E+02  0.24150529277E+02  0.00000000000E+00 0.  1.
</event>
<event>
 7    1  0.5748623E-013  0.5052886E+02  0.7816164E-02  0.1300439E+00
        -11   -1    0    0    0    0  0.00000000000E+00  0.00000000000E+00  0.45593999997E+02  0.45594000000E+02  0.51100000000E-03 0.  1.
         11   -1    0    0    0    0 -0.00000000000E+00 -0.00000000000E+00 -0.45593999997E+02  0.45594000000E+02  0.51100000000E-03 0. -1.
    9900012    2    1    2    0    0  0.19253706598E+02 -0.33969301017E+02  0.11337867492E+02  0.50528857503E+02  0.29999992866E+02 0.  0.
         12    1    1    2    0    0 -0.19253706598E+02  0.33969301017E+02 -0.11337867492E+02  0.40659142497E+02  0.00000000000E+00 0. -1.
         11    1    3    3    0    0  0.16485509239E+02 -0.77506824836E+01  0.99146474004E+01  0.20739945207E+02  0.51100000000E-03 0. -1.
        -11    1    3    3    0    0  0.40674426027E+00 -0.19618605204E+02  0.69972934289E+01  0.20833080105E+02  0.51100000000E-03 0.  1.
         12    1    3    3    0    0  0.23614530987E+01 -0.66000133289E+01 -0.55740733374E+01  0.89558321919E+01  0.00000000000E+00 0. -1.
</event>
<event>
 7    1  0.5748623E-013  0.5052886E+02  0.7816164E-02  0.1300439E+00
        -11   -1    0    0    0    0  0.00000000000E+00  0.00000000000E+00  0.45593999997E+02  0.45594000000E+02  0.51100000000E-03 0. -1.
         11   -1    0    0    0    0 -0.00000000000E+00 -0.00000000000E+00 -0.45593999997E+02  0.45594000000E+02  0.51100000000E-03 0.  1.
    9900012    2    1    2    0    0 -0.34917295925E+00 -0.27158326483E+02 -0.30256724148E+02  0.50528856191E+02  0.29999988878E+02 0.  0.
         12    1    1    2    0    0  0.34917295925E+00  0.27158326483E+02  0.30256724148E+02  0.40659143809E+02  0.00000000000E+00 0. -1.
         11    1    3    3    0    0 -0.48516770186E+01 -0.45074240559E+01  0.23529338949E+01  0.70279399319E+01  0.51100000000E-03 0. -1.
        -11    1    3    3    0    0  0.71784045353E+01 -0.23804664633E+02 -0.31999701093E+02  0.40523726634E+02  0.51100000000E-03 0.  1.
        -12    1    3    3    0    0 -0.26759004760E+01  0.11537622059E+01 -0.60995694962E+00  0.29771896254E+01  0.00000000000E+00 0.  1.
</event>
<event>
 7    1  0.5748623E-013  0.5052885E+02  0.7816164E-02  0.1300439E+00
        -11   -1    0    0    0    0  0.00000000000E+00  0.00000000000E+00  0.45593999997E+02  0.45594000000E+02  0.51100000000E-03 0. -1.
         11   -1    0    0    0    0 -0.00000000000E+00 -0.00000000000E+00 -0.45593999997E+02  0.45594000000E+02  0.51100000000E-03 0.  1.
    9900012    2    1    2    0    0  0.52945961048E+01  0.34148592501E+02 -0.21424450069E+02  0.50528853692E+02  0.29999981284E+02 0.  0.
         12    1    1    2    0    0 -0.52945961048E+01 -0.34148592501E+02  0.21424450069E+02  0.40659146308E+02  0.00000000000E+00 0. -1.
         11    1    3    3    0    0 -0.71643047000E+01  0.63616560053E+00  0.23709746521E+01  0.75732086706E+01  0.51100000000E-03 0. -1.
        -11    1    3    3    0    0  0.70015952309E+01  0.19140688915E+02 -0.14028390511E+02  0.24742353334E+02  0.51100000000E-03 0.  1.
         12    1    3    3    0    0  0.54573055740E+01  0.14371737985E+02 -0.97670342105E+01  0.18213291688E+02  0.00000000000E+00 0. -1.
</event>
<event>
 7    1  0.5748623E-013  0.5052886E+02  0.7816164E-02  0.1300439E+00
        -11   -1    0    0    0    0  0.00000000000E+00  0.00000000000E+00  0.45593999997E+02  0.45594000000E+02  0.51100000000E-03 0. -1.
         11   -1    0    0    0    0 -0.00000000000E+00 -0.00000000000E+00 -0.45593999997E+02  0.45594000000E+02  0.51100000000E-03 0.  1.
    9900012    2    1    2    0    0 -0.12015270184E+02 -0.35565065381E+02 -0.15618110846E+02  0.50528856139E+02  0.29999988720E+02 0.  0.
         12    1    1    2    0    0  0.12015270184E+02  0.35565065381E+02  0.15618110846E+02  0.40659143861E+02  0.00000000000E+00 0. -1.
         11    1    3    3    0    0 -0.21391867472E+01  0.59828058010E+00  0.56949731383E-01  0.22220043036E+01  0.51100000000E-03 0. -1.
        -11    1    3    3    0    0  0.13500284504E+01 -0.22276953011E+02 -0.19962177967E+02  0.29942841577E+02  0.51100000000E-03 0.  1.
        -12    1    3    3    0    0 -0.11226111887E+02 -0.13886392949E+02  0.42871173891E+01  0.18364010258E+02  0.00000000000E+00 0.  1.
</event>
<event>
 7    1  0.5748623E-013  0.5052886E+02  0.7816164E-02  0.1300439E+00
        -11   -1    0    0    0    0  0.00000000000E+00  0.00000000000E+00  0.45593999997E+02  0.45594000000E+02  0.51100000000E-03 0.  1.
         11   -1    0    0    0    0 -0.00000000000E+00 -0.00000000000E+00 -0.45593999997E+02  0.45594000000E+02  0.51100000000E-03 0. -1.
    9900012    2    1    2    0    0 -0.75577487993E+00 -0.54341164663E+01  0.40287283386E+02  0.50528855641E+02  0.29999987205E+02 0.  0.
         12    1    1    2    0    0  0.75577487993E+00  0.54341164663E+01 -0.40287283386E+02  0.40659144359E+02  0.00000000000E+00 0. -1.
         11    1    3    3    0    0 -0.68991875054E+01  0.17814272208E+01  0.15878956591E+01  0.73002523287E+01  0.51100000000E-03 0. -1.
        -11    1    3    3    0    0  0.66087883279E+01 -0.12282140136E+02  0.25199711238E+02  0.28801952993E+02  0.51100000000E-03 0.  1.
        -12    1    3    3    0    0 -0.46537570246E+00  0.50665964489E+01  0.13499676488E+02  0.14426650318E+02  0.00000000000E+00 0.  1.
</event>
<event>
 7    1  0.5748623E-013  0.5052885E+02  0.7816164E-02  0.1300439E+00
        -11   -1    0    0    0    0  0.00000000000E+00  0.00000000000E+00  0.45593999997E+02  0.45594000000E+02  0.51100000000E-03 0. -1.
         11   -1    0    0    0    0 -0.00000000000E+00 -0.00000000000E+00 -0.45593999997E+02  0.45594000000E+02  0.51100000000E-03 0.  1.
    9900012    2    1    2    0    0 -0.21071635890E+02 -0.69873244586E+01 -0.34063617332E+02  0.50528848903E+02  0.29999966727E+02 0.  0.
         12    1    1    2    0    0  0.21071635890E+02  0.69873244586E+01  0.34063617332E+02  0.40659151097E+02  0.00000000000E+00 0. -1.
         11    1    3    3    0    0  0.25008608981E+01  0.18587233563E+01 -0.14844247665E+01  0.34514743075E+01  0.51100000000E-03 0. -1.
        -11    1    3    3    0    0 -0.16901642692E+02 -0.12139265702E+02 -0.95869259923E+01  0.22911491608E+02  0.51100000000E-03 0.  1.
        -12    1    3    3    0    0 -0.66708540965E+01  0.32932178869E+01 -0.22992266573E+02  0.24165882988E+02  0.00000000000E+00 0.  1.
</event>
<event>
 7    1  0.5748623E-013  0.5052886E+02  0.7816164E-02  0.1300439E+00
        -11   -1    0    0    0    0  0.00000000000E+00  0.00000000000E+00  0.45593999997E+02  0.45594000000E+02  0.51100000000E-03 0.  1.
         11   -1    0    0    0    0 -0.00000000000E+00 -0.00000000000E+00 -0.45593999997E+02  0.45594000000E+02  0.51100000000E-03 0. -1.
    9900012    2    1    2    0    0 -0.17023150231E+02  0.12071560398E+02  0.34894923314E+02  0.50528857273E+02  0.29999992167E+02 0.  0.
         12    1    1    2    0    0  0.17023150231E+02 -0.12071560398E+02 -0.34894923314E+02  0.40659142727E+02  0.00000000000E+00 0. -1.
         11    1    3    3    0    0 -0.14175246613E+02  0.16870225167E+01  0.22889593349E+02  0.26976232974E+02  0.51100000000E-03 0.  1.
        -11    1    3    3    0    0 -0.47368736722E+01  0.44653086613E+01 -0.31067392847E+01  0.72130980079E+01  0.51100000000E-03 0. -1.
        -12    1    3    3    0    0  0.18889700541E+01  0.59192292199E+01  0.15112069249E+02  0.16339526291E+02  0.00000000000E+00 0.  1.
</event>
<event>
 7    1  0.5748623E-013  0.5052886E+02  0.7816164E-02  0.1300439E+00
        -11   -1    0    0    0    0  0.00000000000E+00  0.00000000000E+00  0.45593999997E+02  0.45594000000E+02  0.51100000000E-03 0.  1.
         11   -1    0    0    0    0 -0.00000000000E+00 -0.00000000000E+00 -0.45593999997E+02  0.45594000000E+02  0.51100000000E-03 0. -1.
    9900012    2    1    2    0    0 -0.19008177957E+02 -0.17875470435E+02  0.31182088256E+02  0.50528857111E+02  0.29999991674E+02 0.  0.
         12    1    1    2    0    0  0.19008177957E+02  0.17875470435E+02 -0.31182088256E+02  0.40659142889E+02  0.00000000000E+00 0. -1.
         11    1    3    3    0    0  0.47991001285E+01 -0.10778935542E+02  0.93085608230E+01  0.15028842880E+02  0.51100000000E-03 0. -1.
        -11    1    3    3    0    0 -0.20258789998E+02 -0.73188323031E+01  0.11257929193E+02  0.24304831792E+02  0.51100000000E-03 0.  1.
         12    1    3    3    0    0 -0.35484880869E+01  0.22229741001E+00  0.10615598240E+02  0.11195182438E+02  0.00000000000E+00 0. -1.
</event>
<event>
 7    1  0.5748623E-013  0.5052883E+02  0.7816164E-02  0.1300439E+00
        -11   -1    0    0    0    0  0.00000000000E+00  0.00000000000E+00  0.45593999997E+02  0.45594000000E+02  0.51100000000E-03 0.  1.
         11   -1    0    0    0    0 -0.00000000000E+00 -0.00000000000E+00 -0.45593999997E+02  0.45594000000E+02  0.51100000000E-03 0. -1.
    9900012    2    1    2    0    0  0.34243282745E+02 -0.14849913899E+02  0.16125924534E+02  0.50528833776E+02  0.29999920746E+02 0.  0.
         12    1    1    2    0    0 -0.34243282745E+02  0.14849913899E+02 -0.16125924534E+02  0.40659166224E+02  0.00000000000E+00 0. -1.
         11    1    3    3    0    0  0.18772326425E+02 -0.86322626867E+01  0.55841862323E+01  0.21403255234E+02  0.51100000000E-03 0. -1.
        -11    1    3    3    0    0 -0.15858227416E+01  0.42729266134E+01  0.76338426037E+01  0.88909104579E+01  0.51100000000E-03 0.  1.
        -12    1    3    3    0    0  0.17056779062E+02 -0.10490577825E+02  0.29078956975E+01  0.20234668084E+02  0.00000000000E+00 0.  1.
</event>
<event>
 7    1  0.5748623E-013  0.5052889E+02  0.7816164E-02  0.1300439E+00
        -11   -1    0    0    0    0  0.00000000000E+00  0.00000000000E+00  0.45593999997E+02  0.45594000000E+02  0.51100000000E-03 0.  1.
         11   -1    0    0    0    0 -0.00000000000E+00 -0.00000000000E+00 -0.45593999997E+02  0.45594000000E+02  0.51100000000E-03 0. -1.
    9900012    2    1    2    0    0 -0.13168245743E+02  0.38464587670E+02  0.48585220020E+00  0.50528889669E+02  0.30000090637E+02 0.  0.
         12    1    1    2    0    0  0.13168245743E+02 -0.38464587670E+02 -0.48585220020E+00  0.40659110331E+02  0.00000000000E+00 0. -1.
         11    1    3    3    0    0 -0.95149574511E+01  0.36704336415E+02 -0.86515668689E+01  0.38892060070E+02  0.51100000000E-03 0. -1.
        -11    1    3    3    0    0  0.67306445045E+00  0.22425616051E+00  0.60794203188E+01  0.61206746567E+01  0.51100000000E-03 0.  1.
        -12    1    3    3    0    0 -0.43263527428E+01  0.15359950943E+01  0.30579987503E+01  0.55161549418E+01  0.00000000000E+00 0.  1.
</event>
<event>
 7    1  0.5748623E-013  0.5052885E+02  0.7816164E-02  0.1300439E+00
        -11   -1    0    0    0    0  0.00000000000E+00  0.00000000000E+00  0.45593999997E+02  0.45594000000E+02  0.51100000000E-03 0.  1.
         11   -1    0    0    0    0 -0.00000000000E+00 -0.00000000000E+00 -0.45593999997E+02  0.45594000000E+02  0.51100000000E-03 0. -1.
    9900012    2    1    2    0    0  0.20319516064E+02  0.94888870542E+01  0.33915257575E+02  0.50528850882E+02  0.29999972741E+02 0.  0.
         12    1    1    2    0    0 -0.20319516064E+02 -0.94888870542E+01 -0.33915257575E+02  0.40659149118E+02  0.00000000000E+00 0. -1.
         11    1    3    3    0    0  0.38406356148E+01  0.17712456902E+02  0.22204939515E+02  0.28662535662E+02  0.51100000000E-03 0. -1.
        -11    1    3    3    0    0  0.85336161072E+01 -0.47812528032E+01  0.67853227554E+01  0.11904771623E+02  0.51100000000E-03 0.  1.
         12    1    3    3    0    0  0.79452643420E+01 -0.34423170443E+01  0.49249953046E+01  0.99615435977E+01  0.00000000000E+00 0. -1.
</event>
<event>
 7    1  0.5748623E-013  0.5052885E+02  0.7816164E-02  0.1300439E+00
        -11   -1    0    0    0    0  0.00000000000E+00  0.00000000000E+00  0.45593999997E+02  0.45594000000E+02  0.51100000000E-03 0.  1.
         11   -1    0    0    0    0 -0.00000000000E+00 -0.00000000000E+00 -0.45593999997E+02  0.45594000000E+02  0.51100000000E-03 0. -1.
    9900012    2    1    2    0    0 -0.26078130586E+02 -0.22897538952E+02  0.21184903125E+02  0.50528852132E+02  0.29999976541E+02 0.  0.
         12    1    1    2    0    0  0.26078130586E+02  0.22897538952E+02 -0.21184903125E+02  0.40659147868E+02  0.00000000000E+00 0. -1.
         11    1    3    3    0    0 -0.21999222367E+02 -0.17100207206E+01  0.70558061474E+01  0.23166233105E+02  0.51100000000E-03 0. -1.
        -11    1    3    3    0    0 -0.45565264661E+01 -0.62392324565E+01  0.82221849896E+01  0.11282476738E+02  0.51100000000E-03 0.  1.
         12    1    3    3    0    0  0.47761824729E+00 -0.14948285775E+02  0.59069119883E+01  0.16080142289E+02  0.00000000000E+00 0. -1.
</event>
<event>
 7    1  0.5748623E-013  0.5052891E+02  0.7816164E-02  0.1300439E+00
        -11   -1    0    0    0    0  0.00000000000E+00  0.00000000000E+00  0.45593999997E+02  0.45594000000E+02  0.51100000000E-03 0.  1.
         11   -1    0    0    0    0 -0.00000000000E+00 -0.00000000000E+00 -0.45593999997E+02  0.45594000000E+02  0.51100000000E-03 0. -1.
    9900012    2    1    2    0    0 -0.18324983735E+02  0.32673877257E+02  0.15804247722E+02  0.50528910856E+02  0.30000155038E+02 0.  0.
         12    1    1    2    0    0  0.18324983735E+02 -0.32673877257E+02 -0.15804247722E+02  0.40659089144E+02  0.00000000000E+00 0. -1.
         11    1    3    3    0    0  0.44059503990E+01  0.21050647565E+01 -0.57123541573E+00  0.49163001036E+01  0.51100000000E-03 0. -1.
        -11    1    3    3    0    0 -0.24977202823E+02  0.30785268971E+02  0.13334678057E+02  0.41825914044E+02  0.51100000000E-03 0.  1.
         12    1    3    3    0    0  0.22462686881E+01 -0.21645647023E+00  0.30408050808E+01  0.37866967085E+01  0.00000000000E+00 0. -1.
</event>
<event>
 7    1  0.5748623E-013  0.5052892E+02  0.7816164E-02  0.1300439E+00
        -11   -1    0    0    0    0  0.00000000000E+00  0.00000000000E+00  0.45593999997E+02  0.45594000000E+02  0.51100000000E-03 0. -1.
         11   -1    0    0    0    0 -0.00000000000E+00 -0.00000000000E+00 -0.45593999997E+02  0.45594000000E+02  0.51100000000E-03 0.  1.
    9900012    2    1    2    0    0 -0.21905242683E+02 -0.34230961221E+02  0.12499425707E+01  0.50528920822E+02  0.30000185331E+02 0.  0.
         12    1    1    2    0    0  0.21905242683E+02  0.34230961221E+02 -0.12499425707E+01  0.40659079178E+02  0.00000000000E+00 0. -1.
         11    1    3    3    0    0  0.27958083636E+00 -0.32383605041E+01  0.19295093681E+01  0.37799670450E+01  0.51100000000E-03 0. -1.
        -11    1    3    3    0    0 -0.13080842638E+02 -0.97874553761E+01  0.12136770195E+02  0.20352000341E+02  0.51100000000E-03 0.  1.
        -12    1    3    3    0    0 -0.91039808814E+01 -0.21205145341E+02 -0.12816336992E+02  0.26396953436E+02  0.00000000000E+00 0.  1.
</event>
<event>
 7    1  0.5748623E-013  0.5052886E+02  0.7816164E-02  0.1300439E+00
        -11   -1    0    0    0    0  0.00000000000E+00  0.00000000000E+00  0.45593999997E+02  0.45594000000E+02  0.51100000000E-03 0.  1.
         11   -1    0    0    0    0 -0.00000000000E+00 -0.00000000000E+00 -0.45593999997E+02  0.45594000000E+02  0.51100000000E-03 0. -1.
    9900012    2    1    2    0    0  0.24580493471E+02  0.25561667350E+02  0.19888845539E+02  0.50528859897E+02  0.30000000144E+02 0.  0.
         12    1    1    2    0    0 -0.24580493471E+02 -0.25561667350E+02 -0.19888845539E+02  0.40659140103E+02  0.00000000000E+00 0. -1.
         11    1    3    3    0    0  0.18657681085E+02  0.18338558925E+01  0.40286399403E+00  0.18751916983E+02  0.51100000000E-03 0. -1.
        -11    1    3    3    0    0  0.10478718338E+01  0.13503162452E+02  0.12733485610E+02  0.18589650013E+02  0.51100000000E-03 0.  1.
        -12    1    3    3    0    0  0.48749405526E+01  0.10224649006E+02  0.67524959353E+01  0.13187292901E+02  0.00000000000E+00 0.  1.
</event>
<event>
 7    1  0.5748623E-013  0.5052885E+02  0.7816164E-02  0.1300439E+00
        -11   -1    0    0    0    0  0.00000000000E+00  0.00000000000E+00  0.45593999997E+02  0.45594000000E+02  0.51100000000E-03 0. -1.
         11   -1    0    0    0    0 -0.00000000000E+00 -0.00000000000E+00 -0.45593999997E+02  0.45594000000E+02  0.51100000000E-03 0.  1.
    9900012    2    1    2    0    0  0.40106818290E+02 -0.66764201664E+01  0.18730861688E+00  0.50528849196E+02  0.29999967615E+02 0.  0.
         12    1    1    2    0    0 -0.40106818290E+02  0.66764201664E+01 -0.18730861688E+00  0.40659150804E+02  0.00000000000E+00 0. -1.
         11    1    3    3    0    0  0.10099879938E+02 -0.12894497382E+02  0.66401722191E+01  0.17673922170E+02  0.51100000000E-03 0. -1.
        -11    1    3    3    0    0  0.16045370757E+02  0.58440878639E+01  0.84347684107E+00  0.17097331346E+02  0.51100000000E-03 0.  1.
         12    1    3    3    0    0  0.13961567595E+02  0.37398935217E+00 -0.72963404433E+01  0.15757595680E+02  0.00000000000E+00 0. -1.
</event>
<event>
 7    1  0.5748623E-013  0.5052886E+02  0.7816164E-02  0.1300439E+00
        -11   -1    0    0    0    0  0.00000000000E+00  0.00000000000E+00  0.45593999997E+02  0.45594000000E+02  0.51100000000E-03 0. -1.
         11   -1    0    0    0    0 -0.00000000000E+00 -0.00000000000E+00 -0.45593999997E+02  0.45594000000E+02  0.51100000000E-03 0.  1.
    9900012    2    1    2    0    0  0.35335769754E+01  0.19709537646E+02 -0.35386635097E+02  0.50528856085E+02  0.29999988555E+02 0.  0.
         12    1    1    2    0    0 -0.35335769754E+01 -0.19709537646E+02  0.35386635097E+02  0.40659143915E+02  0.00000000000E+00 0. -1.
         11    1    3    3    0    0  0.79488134364E+01  0.64802459684E+01  0.25674851618E+00  0.10258808065E+02  0.51100000000E-03 0. -1.
        -11    1    3    3    0    0  0.15540414981E+01  0.12266905877E+02 -0.20184506707E+02  0.23670790778E+02  0.51100000000E-03 0.  1.
        -12    1    3    3    0    0 -0.59692779591E+01  0.96238580049E+00 -0.15458876906E+02  0.16599257242E+02  0.00000000000E+00 0.  1.
</event>
<event>
 7    1  0.5748623E-013  0.5052886E+02  0.7816164E-02  0.1300439E+00
        -11   -1    0    0    0    0  0.00000000000E+00  0.00000000000E+00  0.45593999997E+02  0.45594000000E+02  0.51100000000E-03 0.  1.
         11   -1    0    0    0    0 -0.00000000000E+00 -0.00000000000E+00 -0.45593999997E+02  0.45594000000E+02  0.51100000000E-03 0. -1.
    9900012    2    1    2    0    0  0.45044839979E+01  0.14272099480E+02  0.37804531005E+02  0.50528858787E+02  0.29999996770E+02 0.  0.
         12    1    1    2    0    0 -0.45044839979E+01 -0.14272099480E+02 -0.37804531005E+02  0.40659141213E+02  0.00000000000E+00 0. -1.
         11    1    3    3    0    0  0.26139054388E+01 -0.34584482185E+01  0.14311596970E+02  0.14953767880E+02  0.51100000000E-03 0. -1.
        -11    1    3    3    0    0  0.10063665260E+02  0.14216730407E+02  0.12531040996E+02  0.21457394311E+02  0.51100000000E-03 0.  1.
        -12    1    3    3    0    0 -0.81730867011E+01  0.35138172919E+01  0.10961893039E+02  0.14117696596E+02  0.00000000000E+00 0.  1.
</event>
<event>
 7    1  0.5748623E-013  0.5052883E+02  0.7816164E-02  0.1300439E+00
        -11   -1    0    0    0    0  0.00000000000E+00  0.00000000000E+00  0.45593999997E+02  0.45594000000E+02  0.51100000000E-03 0. -1.
         11   -1    0    0    0    0 -0.00000000000E+00 -0.00000000000E+00 -0.45593999997E+02  0.45594000000E+02  0.51100000000E-03 0.  1.
    9900012    2    1    2    0    0 -0.16752128742E+02  0.20449132507E+02  0.30892834132E+02  0.50528830820E+02  0.29999911762E+02 0.  0.
         12    1    1    2    0    0  0.16752128742E+02 -0.20449132507E+02 -0.30892834132E+02  0.40659169180E+02  0.00000000000E+00 0. -1.
         11    1    3    3    0    0  0.56173832861E+01  0.39159686648E+01 -0.76613775112E+00  0.68903390977E+01  0.51100000000E-03 0. -1.
        -11    1    3    3    0    0 -0.15427149969E+02  0.91603378337E+01  0.27174140158E+02  0.32562902803E+02  0.51100000000E-03 0.  1.
        -12    1    3    3    0    0 -0.69423620595E+01  0.73728260081E+01  0.44848317253E+01  0.11075588920E+02  0.00000000000E+00 0.  1.
</event>
<event>
 7    1  0.5748623E-013  0.5052887E+02  0.7816164E-02  0.1300439E+00
        -11   -1    0    0    0    0  0.00000000000E+00  0.00000000000E+00  0.45593999997E+02  0.45594000000E+02  0.51100000000E-03 0.  1.
         11   -1    0    0    0    0 -0.00000000000E+00 -0.00000000000E+00 -0.45593999997E+02  0.45594000000E+02  0.51100000000E-03 0. -1.
    9900012    2    1    2    0    0 -0.32751340343E+02  0.20840786103E+02  0.12090340143E+02  0.50528868376E+02  0.30000025916E+02 0.  0.
         12    1    1    2    0    0  0.32751340343E+02 -0.20840786103E+02 -0.12090340143E+02  0.40659131624E+02  0.00000000000E+00 0. -1.
         11    1    3    3    0    0 -0.45737010704E+01  0.12837590451E+02  0.10795470378E+02  0.17385760007E+02  0.51100000000E-03 0.  1.
        -11    1    3    3    0    0 -0.86815260370E+01 -0.45050432437E+01 -0.11617127327E+01  0.98495627158E+01  0.51100000000E-03 0. -1.
        -12    1    3    3    0    0 -0.19496113235E+02  0.12508238896E+02  0.24565824978E+01  0.23293545654E+02  0.00000000000E+00 0.  1.
</event>
<event>
 7    1  0.5748623E-013  0.5052886E+02  0.7816164E-02  0.1300439E+00
        -11   -1    0    0    0    0  0.00000000000E+00  0.00000000000E+00  0.45593999997E+02  0.45594000000E+02  0.51100000000E-03 0. -1.
         11   -1    0    0    0    0 -0.00000000000E+00 -0.00000000000E+00 -0.45593999997E+02  0.45594000000E+02  0.51100000000E-03 0.  1.
    9900012    2    1    2    0    0 -0.26981423948E+01 -0.38961386218E+02  0.11309110826E+02  0.50528861100E+02  0.30000003800E+02 0.  0.
         12    1    1    2    0    0  0.26981423948E+01  0.38961386218E+02 -0.11309110826E+02  0.40659138900E+02  0.00000000000E+00 0. -1.
         11    1    3    3    0    0  0.86877433191E+01 -0.69543571206E+01  0.12490670230E+01  0.11198220199E+02  0.51100000000E-03 0. -1.
        -11    1    3    3    0    0 -0.66708988546E+01 -0.29800870753E+02  0.31804807893E+01  0.30703554314E+02  0.51100000000E-03 0.  1.
         12    1    3    3    0    0 -0.47149868594E+01 -0.22061583442E+01  0.68795630137E+01  0.86270865872E+01  0.00000000000E+00 0. -1.
</event>
<event>
 7    1  0.5748623E-013  0.5052883E+02  0.7816164E-02  0.1300439E+00
        -11   -1    0    0    0    0  0.00000000000E+00  0.00000000000E+00  0.45593999997E+02  0.45594000000E+02  0.51100000000E-03 0.  1.
         11   -1    0    0    0    0 -0.00000000000E+00 -0.00000000000E+00 -0.45593999997E+02  0.45594000000E+02  0.51100000000E-03 0. -1.
    9900012    2    1    2    0    0 -0.27919689329E+02 -0.19774628075E+02  0.21968685186E+02  0.50528830105E+02  0.29999909588E+02 0.  0.
         12    1    1    2    0    0  0.27919689329E+02  0.19774628075E+02 -0.21968685186E+02  0.40659169895E+02  0.00000000000E+00 0. -1.
         11    1    3    3    0    0  0.49638728749E+01 -0.85781056165E+01  0.83313354755E+01  0.12947396686E+02  0.51100000000E-03 0. -1.
        -11    1    3    3    0    0 -0.87922504296E+01 -0.98856159179E+00  0.37836240174E+01  0.96227196054E+01  0.51100000000E-03 0.  1.
         12    1    3    3    0    0 -0.24091311774E+02 -0.10207960867E+02  0.98537256928E+01  0.27958713813E+02  0.00000000000E+00 0. -1.
</event>
<event>
 7    1  0.5748623E-013  0.5052884E+02  0.7816164E-02  0.1300439E+00
        -11   -1    0    0    0    0  0.00000000000E+00  0.00000000000E+00  0.45593999997E+02  0.45594000000E+02  0.51100000000E-03 0.  1.
         11   -1    0    0    0    0 -0.00000000000E+00 -0.00000000000E+00 -0.45593999997E+02  0.45594000000E+02  0.51100000000E-03 0. -1.
    9900012    2    1    2    0    0 -0.20757409811E+02  0.34854141238E+02  0.27359938210E+01  0.50528844995E+02  0.29999954848E+02 0.  0.
         12    1    1    2    0    0  0.20757409811E+02 -0.34854141238E+02 -0.27359938210E+01  0.40659155005E+02  0.00000000000E+00 0. -1.
         11    1    3    3    0    0 -0.18032870548E+01  0.43551546124E+01  0.16119039626E+00  0.47164815811E+01  0.51100000000E-03 0. -1.
        -11    1    3    3    0    0  0.11525004083E+01  0.22041342894E+02  0.77522685394E+01  0.23393305058E+02  0.51100000000E-03 0.  1.
        -12    1    3    3    0    0 -0.20106623164E+02  0.84576437312E+01 -0.51774651147E+01  0.22419058356E+02  0.00000000000E+00 0.  1.
</event>
<event>
 7    1  0.5748623E-013  0.5052888E+02  0.7816164E-02  0.1300439E+00
        -11   -1    0    0    0    0  0.00000000000E+00  0.00000000000E+00  0.45593999997E+02  0.45594000000E+02  0.51100000000E-03 0.  1.
         11   -1    0    0    0    0 -0.00000000000E+00 -0.00000000000E+00 -0.45593999997E+02  0.45594000000E+02  0.51100000000E-03 0. -1.
    9900012    2    1    2    0    0  0.45199492555E+01 -0.37571078281E+02  0.14871055655E+02  0.50528878505E+02  0.30000056705E+02 0.  0.
         12    1    1    2    0    0 -0.45199492555E+01  0.37571078281E+02 -0.14871055655E+02  0.40659121495E+02  0.00000000000E+00 0. -1.
         11    1    3    3    0    0  0.50143113966E+01 -0.22052592594E+02 -0.19909523138E+01  0.22702952457E+02  0.51100000000E-03 0. -1.
        -11    1    3    3    0    0 -0.63634231324E+01 -0.10728096182E+02  0.15870297170E+02  0.20185428759E+02  0.51100000000E-03 0.  1.
        -12    1    3    3    0    0  0.58690609913E+01 -0.47903895046E+01  0.99171079903E+00  0.76404972897E+01  0.00000000000E+00 0.  1.
</event>
<event>
 7    1  0.5748623E-013  0.5052885E+02  0.7816164E-02  0.1300439E+00
        -11   -1    0    0    0    0  0.00000000000E+00  0.00000000000E+00  0.45593999997E+02  0.45594000000E+02  0.51100000000E-03 0. -1.
         11   -1    0    0    0    0 -0.00000000000E+00 -0.00000000000E+00 -0.45593999997E+02  0.45594000000E+02  0.51100000000E-03 0.  1.
    9900012    2    1    2    0    0  0.92652217976E+01  0.17715050116E+02 -0.35404789671E+02  0.50528850141E+02  0.29999970489E+02 0.  0.
         12    1    1    2    0    0 -0.92652217976E+01 -0.17715050116E+02  0.35404789671E+02  0.40659149859E+02  0.00000000000E+00 0. -1.
         11    1    3    3    0    0  0.10813367552E+02  0.81510080043E+01 -0.14626010812E+01  0.13620097338E+02  0.51100000000E-03 0. -1.
        -11    1    3    3    0    0  0.39531148214E+01  0.76266689367E+01 -0.22023100566E+02  0.23639165693E+02  0.51100000000E-03 0.  1.
         12    1    3    3    0    0 -0.55012605763E+01  0.19373731751E+01 -0.11919088024E+02  0.13269587110E+02  0.00000000000E+00 0. -1.
</event>
<event>
 7    1  0.5748623E-013  0.5052886E+02  0.7816164E-02  0.1300439E+00
        -11   -1    0    0    0    0  0.00000000000E+00  0.00000000000E+00  0.45593999997E+02  0.45594000000E+02  0.51100000000E-03 0. -1.
         11   -1    0    0    0    0 -0.00000000000E+00 -0.00000000000E+00 -0.45593999997E+02  0.45594000000E+02  0.51100000000E-03 0.  1.
    9900012    2    1    2    0    0  0.40150941633E+01 -0.29795454943E+02 -0.27372900835E+02  0.50528858143E+02  0.29999994812E+02 0.  0.
         12    1    1    2    0    0 -0.40150941633E+01  0.29795454943E+02  0.27372900835E+02  0.40659141857E+02  0.00000000000E+00 0. -1.
         11    1    3    3    0    0  0.93772749478E+01 -0.17845091447E+02 -0.65229768287E+00  0.20169433972E+02  0.51100000000E-03 0. -1.
        -11    1    3    3    0    0 -0.26295223698E+01 -0.95257604863E+01 -0.14081901910E+02  0.17203327074E+02  0.51100000000E-03 0.  1.
         12    1    3    3    0    0 -0.27326584148E+01 -0.24246030093E+01 -0.12638701242E+02  0.13156097098E+02  0.00000000000E+00 0. -1.
</event>
<event>
 7    1  0.5748623E-013  0.5052884E+02  0.7816164E-02  0.1300439E+00
        -11   -1    0    0    0    0  0.00000000000E+00  0.00000000000E+00  0.45593999997E+02  0.45594000000E+02  0.51100000000E-03 0. -1.
         11   -1    0    0    0    0 -0.00000000000E+00 -0.00000000000E+00 -0.45593999997E+02  0.45594000000E+02  0.51100000000E-03 0.  1.
    9900012    2    1    2    0    0  0.24692511743E+02  0.28335853697E+02 -0.15508923980E+02  0.50528837884E+02  0.29999933233E+02 0.  0.
         12    1    1    2    0    0 -0.24692511743E+02 -0.28335853697E+02  0.15508923980E+02  0.40659162116E+02  0.00000000000E+00 0. -1.
         11    1    3    3    0    0  0.72481122102E+00  0.38057349216E+01 -0.38074828172E+00  0.38928060720E+01  0.51100000000E-03 0. -1.
        -11    1    3    3    0    0 -0.77372197181E+00  0.92969788582E+01 -0.14900766797E+02  0.17580253496E+02  0.51100000000E-03 0.  1.
        -12    1    3    3    0    0  0.24741422493E+02  0.15233139918E+02 -0.22740890094E+00  0.29055778316E+02  0.00000000000E+00 0.  1.
</event>
<event>
 7    1  0.5748623E-013  0.5052886E+02  0.7816164E-02  0.1300439E+00
        -11   -1    0    0    0    0  0.00000000000E+00  0.00000000000E+00  0.45593999997E+02  0.45594000000E+02  0.51100000000E-03 0.  1.
         11   -1    0    0    0    0 -0.00000000000E+00 -0.00000000000E+00 -0.45593999997E+02  0.45594000000E+02  0.51100000000E-03 0. -1.
    9900012    2    1    2    0    0 -0.27909701570E+02 -0.14588191217E+02  0.25717673953E+02  0.50528861811E+02  0.30000005961E+02 0.  0.
         12    1    1    2    0    0  0.27909701570E+02  0.14588191217E+02 -0.25717673953E+02  0.40659138189E+02  0.00000000000E+00 0. -1.
         11    1    3    3    0    0  0.49831568805E+00 -0.93818301310E+00 -0.30351171924E+01  0.32156558466E+01  0.51100000000E-03 0. -1.
        -11    1    3    3    0    0 -0.28912804977E+02 -0.16879254523E+02  0.22747330512E+02  0.40475925815E+02  0.51100000000E-03 0.  1.
        -12    1    3    3    0    0  0.50478771877E+00  0.32292463186E+01  0.60054606332E+01  0.68372801496E+01  0.00000000000E+00 0.  1.
</event>
<event>
 7    1  0.5748623E-013  0.5052880E+02  0.7816164E-02  0.1300439E+00
        -11   -1    0    0    0    0  0.00000000000E+00  0.00000000000E+00  0.45593999997E+02  0.45594000000E+02  0.51100000000E-03 0.  1.
         11   -1    0    0    0    0 -0.00000000000E+00 -0.00000000000E+00 -0.45593999997E+02  0.45594000000E+02  0.51100000000E-03 0. -1.
    9900012    2    1    2    0    0 -0.29170643283E+01  0.44642400134E+01  0.40307963122E+02  0.50528799390E+02  0.29999816227E+02 0.  0.
         12    1    1    2    0    0  0.29170643283E+01 -0.44642400134E+01 -0.40307963122E+02  0.40659200610E+02  0.00000000000E+00 0. -1.
         11    1    3    3    0    0 -0.11684906667E+01  0.23878750767E+00  0.36352098349E+02  0.36371657159E+02  0.51100000000E-03 0. -1.
        -11    1    3    3    0    0  0.27753226439E+01  0.59363056314E+01 -0.16456410894E+01  0.67564987370E+01  0.51100000000E-03 0.  1.
         12    1    3    3    0    0 -0.45238963055E+01 -0.17108531257E+01  0.56015058624E+01  0.74006434941E+01  0.00000000000E+00 0. -1.
</event>
<event>
 7    1  0.5748623E-013  0.5052886E+02  0.7816164E-02  0.1300439E+00
        -11   -1    0    0    0    0  0.00000000000E+00  0.00000000000E+00  0.45593999997E+02  0.45594000000E+02  0.51100000000E-03 0. -1.
         11   -1    0    0    0    0 -0.00000000000E+00 -0.00000000000E+00 -0.45593999997E+02  0.45594000000E+02  0.51100000000E-03 0.  1.
    9900012    2    1    2    0    0 -0.31882407711E+02 -0.15449996213E+02 -0.19949323565E+02  0.50528858161E+02  0.29999994866E+02 0.  0.
         12    1    1    2    0    0  0.31882407711E+02  0.15449996213E+02  0.19949323565E+02  0.40659141839E+02  0.00000000000E+00 0. -1.
         11    1    3    3    0    0 -0.13854155664E+02  0.39894765814E+01 -0.14107896897E+02  0.20171423046E+02  0.51100000000E-03 0. -1.
        -11    1    3    3    0    0 -0.14549016352E+02 -0.19327913785E+02 -0.88466951295E+01  0.25758612988E+02  0.51100000000E-03 0.  1.
        -12    1    3    3    0    0 -0.34792356943E+01 -0.11155900958E+00  0.30052684622E+01  0.45988221273E+01  0.00000000000E+00 0.  1.
</event>
<event>
 7    1  0.5748623E-013  0.5052889E+02  0.7816164E-02  0.1300439E+00
        -11   -1    0    0    0    0  0.00000000000E+00  0.00000000000E+00  0.45593999997E+02  0.45594000000E+02  0.51100000000E-03 0.  1.
         11   -1    0    0    0    0 -0.00000000000E+00 -0.00000000000E+00 -0.45593999997E+02  0.45594000000E+02  0.51100000000E-03 0. -1.
    9900012    2    1    2    0    0  0.32197076917E+02  0.24653748662E+02 -0.29503463010E+01  0.50528885051E+02  0.30000076602E+02 0.  0.
         12    1    1    2    0    0 -0.32197076917E+02 -0.24653748662E+02  0.29503463010E+01  0.40659114949E+02  0.00000000000E+00 0. -1.
         11    1    3    3    0    0  0.60411279762E+01 -0.20830742466E+01 -0.88587462364E+01  0.10922994584E+02  0.51100000000E-03 0. -1.
        -11    1    3    3    0    0  0.11266971265E+02  0.78468865699E+01 -0.28237911559E+01  0.14017562808E+02  0.51100000000E-03 0.  1.
         12    1    3    3    0    0  0.14888977676E+02  0.18889936339E+02  0.87321910914E+01  0.25588327659E+02  0.00000000000E+00 0. -1.
</event>
<event>
 7    1  0.5748623E-013  0.5052885E+02  0.7816164E-02  0.1300439E+00
        -11   -1    0    0    0    0  0.00000000000E+00  0.00000000000E+00  0.45593999997E+02  0.45594000000E+02  0.51100000000E-03 0.  1.
         11   -1    0    0    0    0 -0.00000000000E+00 -0.00000000000E+00 -0.45593999997E+02  0.45594000000E+02  0.51100000000E-03 0. -1.
    9900012    2    1    2    0    0 -0.20098000497E+02 -0.11919905289E+02  0.33273899622E+02  0.50528853893E+02  0.29999981894E+02 0.  0.
         12    1    1    2    0    0  0.20098000497E+02  0.11919905289E+02 -0.33273899622E+02  0.40659146107E+02  0.00000000000E+00 0. -1.
         11    1    3    3    0    0  0.11765484202E+01 -0.19172730123E+00  0.24728475579E+02  0.24757191485E+02  0.51100000000E-03 0.  1.
        -11    1    3    3    0    0 -0.16829905466E+02 -0.92532984934E+01  0.71821227376E+01  0.20504929609E+02  0.51100000000E-03 0. -1.
        -12    1    3    3    0    0 -0.44446434512E+01 -0.24748794947E+01  0.13633013058E+01  0.52667327987E+01  0.00000000000E+00 0.  1.
</event>
<event>
 7    1  0.5748623E-013  0.5052884E+02  0.7816164E-02  0.1300439E+00
        -11   -1    0    0    0    0  0.00000000000E+00  0.00000000000E+00  0.45593999997E+02  0.45594000000E+02  0.51100000000E-03 0.  1.
         11   -1    0    0    0    0 -0.00000000000E+00 -0.00000000000E+00 -0.45593999997E+02  0.45594000000E+02  0.51100000000E-03 0. -1.
    9900012    2    1    2    0    0 -0.67351290529E+01 -0.18617527964E+02  0.35513278068E+02  0.50528840761E+02  0.29999941978E+02 0.  0.
         12    1    1    2    0    0  0.67351290529E+01  0.18617527964E+02 -0.35513278068E+02  0.40659159239E+02  0.00000000000E+00 0. -1.
         11    1    3    3    0    0 -0.52198640963E-01  0.56508380822E+01 -0.41726456883E+00  0.56664632453E+01  0.51100000000E-03 0. -1.
        -11    1    3    3    0    0  0.64543180773E-01 -0.13306334623E+02  0.13217794556E+02  0.18755607165E+02  0.51100000000E-03 0.  1.
         12    1    3    3    0    0 -0.67474735927E+01 -0.10962031423E+02  0.22712748081E+02  0.26106770352E+02  0.00000000000E+00 0. -1.
</event>
<event>
 7    1  0.5748623E-013  0.5052886E+02  0.7816164E-02  0.1300439E+00
        -11   -1    0    0    0    0  0.00000000000E+00  0.00000000000E+00  0.45593999997E+02  0.45594000000E+02  0.51100000000E-03 0.  1.
         11   -1    0    0    0    0 -0.00000000000E+00 -0.00000000000E+00 -0.45593999997E+02  0.45594000000E+02  0.51100000000E-03 0. -1.
    9900012    2    1    2    0    0 -0.89474220147E+01 -0.38010721715E+02  0.11326712571E+02  0.50528859039E+02  0.29999997535E+02 0.  0.
         12    1    1    2    0    0  0.89474220147E+01  0.38010721715E+02 -0.11326712571E+02  0.40659140961E+02  0.00000000000E+00 0. -1.
         11    1    3    3    0    0 -0.47949962593E+01 -0.11950787348E+02  0.15056250370E+02  0.19811713273E+02  0.51100000000E-03 0. -1.
        -11    1    3    3    0    0 -0.99192969611E+01 -0.14613390324E+02 -0.25642408593E+01  0.17847099496E+02  0.51100000000E-03 0.  1.
         12    1    3    3    0    0  0.57668712056E+01 -0.11446544043E+02 -0.11652969392E+01  0.12870046269E+02  0.00000000000E+00 0. -1.
</event>
<event>
 7    1  0.5748623E-013  0.5052887E+02  0.7816164E-02  0.1300439E+00
        -11   -1    0    0    0    0  0.00000000000E+00  0.00000000000E+00  0.45593999997E+02  0.45594000000E+02  0.51100000000E-03 0. -1.
         11   -1    0    0    0    0 -0.00000000000E+00 -0.00000000000E+00 -0.45593999997E+02  0.45594000000E+02  0.51100000000E-03 0.  1.
    9900012    2    1    2    0    0  0.34967568308E+02  0.15817976849E+02 -0.13424828477E+02  0.50528865177E+02  0.30000016192E+02 0.  0.
         12    1    1    2    0    0 -0.34967568308E+02 -0.15817976849E+02  0.13424828477E+02  0.40659134823E+02  0.00000000000E+00 0. -1.
         11    1    3    3    0    0  0.54796118586E+01 -0.37708648687E+01 -0.11371819827E+02  0.13174363530E+02  0.51100000000E-03 0. -1.
        -11    1    3    3    0    0  0.37391929581E+01  0.79437099675E+01  0.13783465608E+01  0.88872904492E+01  0.51100000000E-03 0.  1.
         12    1    3    3    0    0  0.25748763491E+02  0.11645131750E+02 -0.34313552104E+01  0.28467211197E+02  0.00000000000E+00 0. -1.
</event>
<event>
 7    1  0.5748623E-013  0.5052886E+02  0.7816164E-02  0.1300439E+00
        -11   -1    0    0    0    0  0.00000000000E+00  0.00000000000E+00  0.45593999997E+02  0.45594000000E+02  0.51100000000E-03 0. -1.
         11   -1    0    0    0    0 -0.00000000000E+00 -0.00000000000E+00 -0.45593999997E+02  0.45594000000E+02  0.51100000000E-03 0.  1.
    9900012    2    1    2    0    0 -0.26598478566E+02  0.29031365382E+02 -0.10142323070E+02  0.50528856438E+02  0.29999989628E+02 0.  0.
         12    1    1    2    0    0  0.26598478566E+02 -0.29031365382E+02  0.10142323070E+02  0.40659143562E+02  0.00000000000E+00 0. -1.
         11    1    3    3    0    0 -0.17709497503E+01  0.19051160752E+02 -0.11275840850E+02  0.22208727478E+02  0.51100000000E-03 0. -1.
        -11    1    3    3    0    0 -0.14846785425E+02  0.62372051908E+01 -0.38433665745E+01  0.16556002928E+02  0.51100000000E-03 0.  1.
        -12    1    3    3    0    0 -0.99807433898E+01  0.37429994393E+01  0.49768843554E+01  0.11764126032E+02  0.00000000000E+00 0.  1.
</event>
<event>
 7    1  0.5748623E-013  0.5052877E+02  0.7816164E-02  0.1300439E+00
        -11   -1    0    0    0    0  0.00000000000E+00  0.00000000000E+00  0.45593999997E+02  0.45594000000E+02  0.51100000000E-03 0.  1.
         11   -1    0    0    0    0 -0.00000000000E+00 -0.00000000000E+00 -0.45593999997E+02  0.45594000000E+02  0.51100000000E-03 0. -1.
    9900012    2    1    2    0    0 -0.33368401555E+02  0.22808412499E+02  0.44158162125E+01  0.50528765675E+02  0.29999713745E+02 0.  0.
         12    1    1    2    0    0  0.33368401555E+02 -0.22808412499E+02 -0.44158162125E+01  0.40659234325E+02  0.00000000000E+00 0. -1.
         11    1    3    3    0    0 -0.20466834174E+02  0.17476630462E+02  0.45614444724E+01  0.27297082066E+02  0.51100000000E-03 0. -1.
        -11    1    3    3    0    0 -0.75371750719E+01 -0.66431982786E+01 -0.90830859455E+00  0.10087919320E+02  0.51100000000E-03 0.  1.
        -12    1    3    3    0    0 -0.53643923094E+01  0.11974980316E+02  0.76268033468E+00  0.13143764290E+02  0.00000000000E+00 0.  1.
</event>
<event>
 7    1  0.5748623E-013  0.5052885E+02  0.7816164E-02  0.1300439E+00
        -11   -1    0    0    0    0  0.00000000000E+00  0.00000000000E+00  0.45593999997E+02  0.45594000000E+02  0.51100000000E-03 0.  1.
         11   -1    0    0    0    0 -0.00000000000E+00 -0.00000000000E+00 -0.45593999997E+02  0.45594000000E+02  0.51100000000E-03 0. -1.
    9900012    2    1    2    0    0  0.14843564832E+02 -0.25529910673E+02  0.27947426660E+02  0.50528850810E+02  0.29999972523E+02 0.  0.
         12    1    1    2    0    0 -0.14843564832E+02  0.25529910673E+02 -0.27947426660E+02  0.40659149190E+02  0.00000000000E+00 0. -1.
         11    1    3    3    0    0  0.13195075212E+02 -0.14911349783E+01  0.15466317324E+01  0.13368828047E+02  0.51100000000E-03 0. -1.
        -11    1    3    3    0    0 -0.38748936752E+00 -0.23925304819E+02  0.25373577930E+02  0.34876766134E+02  0.51100000000E-03 0.  1.
        -12    1    3    3    0    0  0.20359789871E+01 -0.11347087613E+00  0.10272169976E+01  0.22832566294E+01  0.00000000000E+00 0.  1.
</event>
<event>
 7    1  0.5748623E-013  0.5052897E+02  0.7816164E-02  0.1300438E+00
        -11   -1    0    0    0    0  0.00000000000E+00  0.00000000000E+00  0.45593999997E+02  0.45594000000E+02  0.51100000000E-03 0. -1.
         11   -1    0    0    0    0 -0.00000000000E+00 -0.00000000000E+00 -0.45593999997E+02  0.45594000000E+02  0.51100000000E-03 0.  1.
    9900012    2    1    2    0    0  0.33980058658E+02  0.10330318072E+02 -0.19793862691E+02  0.50528968308E+02  0.30000329667E+02 0.  0.
         12    1    1    2    0    0 -0.33980058658E+02 -0.10330318072E+02  0.19793862691E+02  0.40659031692E+02  0.00000000000E+00 0. -1.
         11    1    3    3    0    0 -0.58407152122E+00  0.39915580499E+01 -0.54948825489E+01  0.68167007926E+01  0.51100000000E-03 0. -1.
        -11    1    3    3    0    0  0.29297075799E+02  0.13572613210E+02 -0.12238264270E+02  0.34529836263E+02  0.51100000000E-03 0.  1.
        -12    1    3    3    0    0  0.52670543811E+01 -0.72338531886E+01 -0.20607158720E+01  0.91824312528E+01  0.00000000000E+00 0.  1.
</event>
<event>
 7    1  0.5748623E-013  0.5052886E+02  0.7816164E-02  0.1300439E+00
        -11   -1    0    0    0    0  0.00000000000E+00  0.00000000000E+00  0.45593999997E+02  0.45594000000E+02  0.51100000000E-03 0.  1.
         11   -1    0    0    0    0 -0.00000000000E+00 -0.00000000000E+00 -0.45593999997E+02  0.45594000000E+02  0.51100000000E-03 0. -1.
    9900012    2    1    2    0    0 -0.23582752552E+02 -0.18718198460E+02  0.27324869487E+02  0.50528860018E+02  0.30000000512E+02 0.  0.
         12    1    1    2    0    0  0.23582752552E+02  0.18718198460E+02 -0.27324869487E+02  0.40659139982E+02  0.00000000000E+00 0. -1.
         11    1    3    3    0    0  0.31186801838E+01  0.24153603381E+01 -0.86832393422E-01  0.39455889012E+01  0.51100000000E-03 0. -1.
        -11    1    3    3    0    0 -0.84559259032E+01 -0.16739653824E+02  0.11673337220E+02  0.22090393730E+02  0.51100000000E-03 0.  1.
         12    1    3    3    0    0 -0.18245506833E+02 -0.43939049743E+01  0.15738364661E+02  0.24492877387E+02  0.00000000000E+00 0. -1.
</event>
<event>
 7    1  0.5748623E-013  0.5052886E+02  0.7816164E-02  0.1300439E+00
        -11   -1    0    0    0    0  0.00000000000E+00  0.00000000000E+00  0.45593999997E+02  0.45594000000E+02  0.51100000000E-03 0. -1.
         11   -1    0    0    0    0 -0.00000000000E+00 -0.00000000000E+00 -0.45593999997E+02  0.45594000000E+02  0.51100000000E-03 0.  1.
    9900012    2    1    2    0    0 -0.24529760952E+02 -0.13786953172E+02 -0.29349212232E+02  0.50528861928E+02  0.30000006317E+02 0.  0.
         12    1    1    2    0    0  0.24529760952E+02  0.13786953172E+02  0.29349212232E+02  0.40659138072E+02  0.00000000000E+00 0. -1.
         11    1    3    3    0    0 -0.15052748307E+02  0.97917650251E+00 -0.27043879495E+02  0.30966359757E+02  0.51100000000E-03 0.  1.
        -11    1    3    3    0    0 -0.81173587528E+01 -0.66316031912E+01  0.12987448338E+01  0.10562026908E+02  0.51100000000E-03 0. -1.
        -12    1    3    3    0    0 -0.13596538917E+01 -0.81345264838E+01 -0.36040775706E+01  0.90004752628E+01  0.00000000000E+00 0.  1.
</event>
<event>
 7    1  0.5748623E-013  0.5052886E+02  0.7816164E-02  0.1300439E+00
        -11   -1    0    0    0    0  0.00000000000E+00  0.00000000000E+00  0.45593999997E+02  0.45594000000E+02  0.51100000000E-03 0.  1.
         11   -1    0    0    0    0 -0.00000000000E+00 -0.00000000000E+00 -0.45593999997E+02  0.45594000000E+02  0.51100000000E-03 0. -1.
    9900012    2    1    2    0    0  0.29087539581E+02  0.24116329521E+02 -0.15016115811E+02  0.50528855364E+02  0.29999986364E+02 0.  0.
         12    1    1    2    0    0 -0.29087539581E+02 -0.24116329521E+02  0.15016115811E+02  0.40659144636E+02  0.00000000000E+00 0. -1.
         11    1    3    3    0    0  0.68936479981E+01  0.58958784722E+00 -0.14031432056E+02  0.15644522439E+02  0.51100000000E-03 0. -1.
        -11    1    3    3    0    0  0.17426222107E+02  0.97721027484E+01  0.18100582852E+01  0.20060994998E+02  0.51100000000E-03 0.  1.
         12    1    3    3    0    0  0.47676694760E+01  0.13754638926E+02 -0.27947420408E+01  0.14823337927E+02  0.00000000000E+00 0. -1.
</event>
