<event>
 7    1  0.6136531E-013  0.5052886E+02  0.7816164E-02  0.1300439E+00
        -11   -1    0    0    0    0  0.00000000000E+00  0.00000000000E+00  0.45593999997E+02  0.45594000000E+02  0.51100000000E-03 0.  1.
         11   -1    0    0    0    0 -0.00000000000E+00 -0.00000000000E+00 -0.45593999997E+02  0.45594000000E+02  0.51100000000E-03 0. -1.
    9900012    2    1    2    0    0 -0.25311643585E+01  0.26475970291E+02  0.30753565762E+02  0.50528860770E+02  0.30000002797E+02 0.  0.
         12    1    1    2    0    0  0.25311643585E+01 -0.26475970291E+02 -0.30753565762E+02  0.40659139230E+02  0.00000000000E+00 0. -1.
         11    1    3    3    0    0 -0.79508092784E+00  0.12499898869E+01 -0.26016532532E+01  0.29938651122E+01  0.51100000000E-03 0. -1.
        -11    1    3    3    0    0 -0.39703518949E+01  0.28600264824E+02  0.32356124670E+02  0.43366549853E+02  0.51100000000E-03 0.  1.
        -12    1    3    3    0    0  0.22342684642E+01 -0.33742844205E+01  0.99909434511E+00  0.41684458052E+01  0.00000000000E+00 0.  1.
</event>
<event>
 7    1  0.6136531E-013  0.5052884E+02  0.7816164E-02  0.1300439E+00
        -11   -1    0    0    0    0  0.00000000000E+00  0.00000000000E+00  0.45593999997E+02  0.45594000000E+02  0.51100000000E-03 0.  1.
         11   -1    0    0    0    0 -0.00000000000E+00 -0.00000000000E+00 -0.45593999997E+02  0.45594000000E+02  0.51100000000E-03 0. -1.
    9900012    2    1    2    0    0  0.60979943665E+01 -0.37181871902E+02  0.15280373116E+02  0.50528844377E+02  0.29999952968E+02 0.  0.
         12    1    1    2    0    0 -0.60979943665E+01  0.37181871902E+02 -0.15280373116E+02  0.40659155623E+02  0.00000000000E+00 0. -1.
         11    1    3    3    0    0  0.16207594102E+01  0.32513074648E+01 -0.24910896220E+01  0.44049278158E+01  0.51100000000E-03 0. -1.
        -11    1    3    3    0    0 -0.37217530406E+01 -0.17641266755E+02  0.10357525687E+02  0.20792885250E+02  0.51100000000E-03 0.  1.
         12    1    3    3    0    0  0.81989879968E+01 -0.22791912612E+02  0.74139370508E+01  0.25331031311E+02  0.00000000000E+00 0. -1.
</event>
<event>
 7    1  0.6136531E-013  0.5052886E+02  0.7816164E-02  0.1300439E+00
        -11   -1    0    0    0    0  0.00000000000E+00  0.00000000000E+00  0.45593999997E+02  0.45594000000E+02  0.51100000000E-03 0.  1.
         11   -1    0    0    0    0 -0.00000000000E+00 -0.00000000000E+00 -0.45593999997E+02  0.45594000000E+02  0.51100000000E-03 0. -1.
    9900012    2    1    2    0    0 -0.11405589570E+01  0.21556037461E+02  0.34455796184E+02  0.50528861834E+02  0.30000006031E+02 0.  0.
         12    1    1    2    0    0  0.11405589570E+01 -0.21556037461E+02 -0.34455796184E+02  0.40659138166E+02  0.00000000000E+00 0. -1.
         11    1    3    3    0    0 -0.14146208820E+01  0.13818041811E+01 -0.28735477551E+01  0.34882390969E+01  0.51100000000E-03 0. -1.
        -11    1    3    3    0    0  0.87297139195E-01  0.14037992637E+02  0.38330593838E+02  0.40820427268E+02  0.51100000000E-03 0.  1.
        -12    1    3    3    0    0  0.18676478582E+00  0.61362406433E+01 -0.10012498995E+01  0.62201954695E+01  0.00000000000E+00 0.  1.
</event>
<event>
 7    1  0.6136531E-013  0.5052886E+02  0.7816164E-02  0.1300439E+00
        -11   -1    0    0    0    0  0.00000000000E+00  0.00000000000E+00  0.45593999997E+02  0.45594000000E+02  0.51100000000E-03 0.  1.
         11   -1    0    0    0    0 -0.00000000000E+00 -0.00000000000E+00 -0.45593999997E+02  0.45594000000E+02  0.51100000000E-03 0. -1.
    9900012    2    1    2    0    0  0.11112522664E+02 -0.33471493969E+02  0.20232066713E+02  0.50528860906E+02  0.30000003209E+02 0.  0.
         12    1    1    2    0    0 -0.11112522664E+02  0.33471493969E+02 -0.20232066713E+02  0.40659139094E+02  0.00000000000E+00 0. -1.
         11    1    3    3    0    0  0.13871777675E+02 -0.72009286613E+01  0.85028727015E+01  0.17792651121E+02  0.51100000000E-03 0.  1.
        -11    1    3    3    0    0 -0.77967672108E+01 -0.19564445786E+02  0.12193519515E+02  0.24335961791E+02  0.51100000000E-03 0. -1.
         12    1    3    3    0    0  0.50375121993E+01 -0.67061195215E+01 -0.46432550436E+00  0.84002479945E+01  0.00000000000E+00 0. -1.
</event>
<event>
 7    1  0.6136531E-013  0.5052886E+02  0.7816164E-02  0.1300439E+00
        -11   -1    0    0    0    0  0.00000000000E+00  0.00000000000E+00  0.45593999997E+02  0.45594000000E+02  0.51100000000E-03 0.  1.
         11   -1    0    0    0    0 -0.00000000000E+00 -0.00000000000E+00 -0.45593999997E+02  0.45594000000E+02  0.51100000000E-03 0. -1.
    9900012    2    1    2    0    0  0.10774331958E+02  0.32682195409E+02  0.21655337040E+02  0.50528858983E+02  0.29999997366E+02 0.  0.
         12    1    1    2    0    0 -0.10774331958E+02 -0.32682195409E+02 -0.21655337040E+02  0.40659141017E+02  0.00000000000E+00 0. -1.
         11    1    3    3    0    0  0.90435829173E+01  0.16849087511E+02  0.20924789303E+02  0.28346515652E+02  0.51100000000E-03 0. -1.
        -11    1    3    3    0    0 -0.25993268711E+01  0.17302097877E+02  0.14389107408E+01  0.17555328408E+02  0.51100000000E-03 0.  1.
         12    1    3    3    0    0  0.43300759121E+01 -0.14689899795E+01 -0.70836300353E+00  0.46270149242E+01  0.00000000000E+00 0. -1.
</event>
<event>
 7    1  0.6136531E-013  0.5052886E+02  0.7816164E-02  0.1300439E+00
        -11   -1    0    0    0    0  0.00000000000E+00  0.00000000000E+00  0.45593999997E+02  0.45594000000E+02  0.51100000000E-03 0.  1.
         11   -1    0    0    0    0 -0.00000000000E+00 -0.00000000000E+00 -0.45593999997E+02  0.45594000000E+02  0.51100000000E-03 0. -1.
    9900012    2    1    2    0    0 -0.28306512388E+02  0.17067421829E+02  0.23677209490E+02  0.50528858584E+02  0.29999996152E+02 0.  0.
         12    1    1    2    0    0  0.28306512388E+02 -0.17067421829E+02 -0.23677209490E+02  0.40659141416E+02  0.00000000000E+00 0. -1.
         11    1    3    3    0    0 -0.23123759034E+02  0.63850231813E+01  0.10131450985E+02  0.26040795922E+02  0.51100000000E-03 0. -1.
        -11    1    3    3    0    0 -0.93836296617E+00  0.98915341268E+01  0.16497167161E+02  0.19258231929E+02  0.51100000000E-03 0.  1.
        -12    1    3    3    0    0 -0.42443903869E+01  0.79086452073E+00 -0.29514086558E+01  0.52298307334E+01  0.00000000000E+00 0.  1.
</event>
<event>
 7    1  0.6136531E-013  0.5052880E+02  0.7816164E-02  0.1300439E+00
        -11   -1    0    0    0    0  0.00000000000E+00  0.00000000000E+00  0.45593999997E+02  0.45594000000E+02  0.51100000000E-03 0.  1.
         11   -1    0    0    0    0 -0.00000000000E+00 -0.00000000000E+00 -0.45593999997E+02  0.45594000000E+02  0.51100000000E-03 0. -1.
    9900012    2    1    2    0    0 -0.29368551145E+01  0.11511096151E+02  0.38884955166E+02  0.50528804351E+02  0.29999831304E+02 0.  0.
         12    1    1    2    0    0  0.29368551145E+01 -0.11511096151E+02 -0.38884955166E+02  0.40659195649E+02  0.00000000000E+00 0. -1.
         11    1    3    3    0    0 -0.64899716809E+01  0.14998236965E+02  0.21395298751E+02  0.26922586306E+02  0.51100000000E-03 0.  1.
        -11    1    3    3    0    0  0.41088916894E+01 -0.43072212007E+01 -0.13447906145E+00  0.59542615215E+01  0.51100000000E-03 0. -1.
        -12    1    3    3    0    0 -0.55577512289E+00  0.82008038716E+00  0.17624135476E+02  0.17651956524E+02  0.00000000000E+00 0.  1.
</event>
<event>
 7    1  0.6136531E-013  0.5052886E+02  0.7816164E-02  0.1300439E+00
        -11   -1    0    0    0    0  0.00000000000E+00  0.00000000000E+00  0.45593999997E+02  0.45594000000E+02  0.51100000000E-03 0. -1.
         11   -1    0    0    0    0 -0.00000000000E+00 -0.00000000000E+00 -0.45593999997E+02  0.45594000000E+02  0.51100000000E-03 0.  1.
    9900012    2    1    2    0    0 -0.86852254881E+01  0.30626024152E+02 -0.25293863048E+02  0.50528855825E+02  0.29999987766E+02 0.  0.
         12    1    1    2    0    0  0.86852254881E+01 -0.30626024152E+02  0.25293863048E+02  0.40659144175E+02  0.00000000000E+00 0. -1.
         11    1    3    3    0    0  0.65421261701E+01  0.85894609332E+01 -0.27119196494E+01  0.11132509259E+02  0.51100000000E-03 0. -1.
        -11    1    3    3    0    0 -0.14411351831E+02  0.12172772438E+02 -0.54924630345E+01  0.19647661461E+02  0.51100000000E-03 0.  1.
        -12    1    3    3    0    0 -0.81599982683E+00  0.98637907813E+01 -0.17089480364E+02  0.19748685106E+02  0.00000000000E+00 0.  1.
</event>
<event>
 7    1  0.6136531E-013  0.5052886E+02  0.7816164E-02  0.1300439E+00
        -11   -1    0    0    0    0  0.00000000000E+00  0.00000000000E+00  0.45593999997E+02  0.45594000000E+02  0.51100000000E-03 0.  1.
         11   -1    0    0    0    0 -0.00000000000E+00 -0.00000000000E+00 -0.45593999997E+02  0.45594000000E+02  0.51100000000E-03 0. -1.
    9900012    2    1    2    0    0  0.16788676520E+02  0.34440273507E+02  0.13607843529E+02  0.50528861986E+02  0.30000006493E+02 0.  0.
         12    1    1    2    0    0 -0.16788676520E+02 -0.34440273507E+02 -0.13607843529E+02  0.40659138014E+02  0.00000000000E+00 0. -1.
         11    1    3    3    0    0 -0.64174397233E+00 -0.71776879793E+00  0.35343219784E+01  0.36631215488E+01  0.51100000000E-03 0. -1.
        -11    1    3    3    0    0  0.22357679881E+02  0.20660487918E+02  0.72899668040E+01  0.31302799028E+02  0.51100000000E-03 0.  1.
        -12    1    3    3    0    0 -0.49272593895E+01  0.14497554387E+02  0.27835547468E+01  0.15562941410E+02  0.00000000000E+00 0.  1.
</event>
<event>
 7    1  0.6136531E-013  0.5052886E+02  0.7816164E-02  0.1300439E+00
        -11   -1    0    0    0    0  0.00000000000E+00  0.00000000000E+00  0.45593999997E+02  0.45594000000E+02  0.51100000000E-03 0.  1.
         11   -1    0    0    0    0 -0.00000000000E+00 -0.00000000000E+00 -0.45593999997E+02  0.45594000000E+02  0.51100000000E-03 0. -1.
    9900012    2    1    2    0    0 -0.34405445051E+02  0.29650630770E+01  0.21462510234E+02  0.50528860883E+02  0.30000003141E+02 0.  0.
         12    1    1    2    0    0  0.34405445051E+02 -0.29650630770E+01 -0.21462510234E+02  0.40659139117E+02  0.00000000000E+00 0. -1.
         11    1    3    3    0    0 -0.27526505051E+01 -0.24004561432E+01 -0.13065811404E+01  0.38789726779E+01  0.51100000000E-03 0. -1.
        -11    1    3    3    0    0 -0.88587284536E+01  0.10205807251E+02 -0.75878639428E+00  0.13535557931E+02  0.51100000000E-03 0.  1.
        -12    1    3    3    0    0 -0.22794066092E+02 -0.48402880306E+01  0.23527877768E+02  0.33114330274E+02  0.00000000000E+00 0.  1.
</event>
<event>
 7    1  0.6136531E-013  0.5052886E+02  0.7816164E-02  0.1300439E+00
        -11   -1    0    0    0    0  0.00000000000E+00  0.00000000000E+00  0.45593999997E+02  0.45594000000E+02  0.51100000000E-03 0.  1.
         11   -1    0    0    0    0 -0.00000000000E+00 -0.00000000000E+00 -0.45593999997E+02  0.45594000000E+02  0.51100000000E-03 0. -1.
    9900012    2    1    2    0    0 -0.37115181272E+02  0.34273954730E+00  0.16598543513E+02  0.50528858371E+02  0.29999995504E+02 0.  0.
         12    1    1    2    0    0  0.37115181272E+02 -0.34273954730E+00 -0.16598543513E+02  0.40659141629E+02  0.00000000000E+00 0. -1.
         11    1    3    3    0    0 -0.76032944680E+00 -0.61256799396E+00 -0.52025353290E+01  0.52933651419E+01  0.51100000000E-03 0. -1.
        -11    1    3    3    0    0 -0.32887610170E+02  0.60801544750E+01  0.18594681887E+02  0.38266504621E+02  0.51100000000E-03 0.  1.
        -12    1    3    3    0    0 -0.34672416553E+01 -0.51248469337E+01  0.32063969543E+01  0.69689886080E+01  0.00000000000E+00 0.  1.
</event>
<event>
 7    1  0.6136531E-013  0.5052884E+02  0.7816164E-02  0.1300439E+00
        -11   -1    0    0    0    0  0.00000000000E+00  0.00000000000E+00  0.45593999997E+02  0.45594000000E+02  0.51100000000E-03 0.  1.
         11   -1    0    0    0    0 -0.00000000000E+00 -0.00000000000E+00 -0.45593999997E+02  0.45594000000E+02  0.51100000000E-03 0. -1.
    9900012    2    1    2    0    0 -0.20135618175E+02  0.15386268544E+01  0.35289615713E+02  0.50528837821E+02  0.29999933041E+02 0.  0.
         12    1    1    2    0    0  0.20135618175E+02 -0.15386268544E+01 -0.35289615713E+02  0.40659162179E+02  0.00000000000E+00 0. -1.
         11    1    3    3    0    0 -0.15164386335E+02 -0.98787880033E+01  0.23361672397E+02  0.29551933994E+02  0.51100000000E-03 0. -1.
        -11    1    3    3    0    0 -0.57706313814E+01  0.13275919129E+00  0.54606548129E+01  0.79458519234E+01  0.51100000000E-03 0.  1.
         12    1    3    3    0    0  0.79939954148E+00  0.11284655666E+02  0.64672885040E+01  0.13031051904E+02  0.00000000000E+00 0. -1.
</event>
<event>
 7    1  0.6136531E-013  0.5052886E+02  0.7816164E-02  0.1300439E+00
        -11   -1    0    0    0    0  0.00000000000E+00  0.00000000000E+00  0.45593999997E+02  0.45594000000E+02  0.51100000000E-03 0. -1.
         11   -1    0    0    0    0 -0.00000000000E+00 -0.00000000000E+00 -0.45593999997E+02  0.45594000000E+02  0.51100000000E-03 0.  1.
    9900012    2    1    2    0    0 -0.31792768651E+02 -0.19362375752E+02 -0.16354930650E+02  0.50528862161E+02  0.30000007025E+02 0.  0.
         12    1    1    2    0    0  0.31792768651E+02  0.19362375752E+02  0.16354930650E+02  0.40659137839E+02  0.00000000000E+00 0. -1.
         11    1    3    3    0    0 -0.95704750630E+01 -0.13271544766E+02 -0.99586588032E+01  0.19154706440E+02  0.51100000000E-03 0. -1.
        -11    1    3    3    0    0 -0.13713563709E+02  0.47876750233E+01 -0.93186324558E+01  0.17257478751E+02  0.51100000000E-03 0.  1.
        -12    1    3    3    0    0 -0.85087298787E+01 -0.10878506009E+02  0.29223606092E+01  0.14116676970E+02  0.00000000000E+00 0.  1.
</event>
<event>
 7    1  0.6136531E-013  0.5052886E+02  0.7816164E-02  0.1300439E+00
        -11   -1    0    0    0    0  0.00000000000E+00  0.00000000000E+00  0.45593999997E+02  0.45594000000E+02  0.51100000000E-03 0. -1.
         11   -1    0    0    0    0 -0.00000000000E+00 -0.00000000000E+00 -0.45593999997E+02  0.45594000000E+02  0.51100000000E-03 0.  1.
    9900012    2    1    2    0    0  0.27928036029E+02  0.22779836279E+02 -0.18822047214E+02  0.50528860823E+02  0.30000002958E+02 0.  0.
         12    1    1    2    0    0 -0.27928036029E+02 -0.22779836279E+02  0.18822047214E+02  0.40659139177E+02  0.00000000000E+00 0. -1.
         11    1    3    3    0    0  0.49669908806E+01  0.18574129772E+02  0.16410379831E+01  0.19296691455E+02  0.51100000000E-03 0. -1.
        -11    1    3    3    0    0  0.16294349126E+02  0.42750882917E+01 -0.13457883232E+02  0.21561465968E+02  0.51100000000E-03 0.  1.
        -12    1    3    3    0    0  0.66666960219E+01 -0.69381784864E-01 -0.70052019650E+01  0.96707034000E+01  0.00000000000E+00 0.  1.
</event>
<event>
 7    1  0.6136531E-013  0.5052887E+02  0.7816164E-02  0.1300439E+00
        -11   -1    0    0    0    0  0.00000000000E+00  0.00000000000E+00  0.45593999997E+02  0.45594000000E+02  0.51100000000E-03 0. -1.
         11   -1    0    0    0    0 -0.00000000000E+00 -0.00000000000E+00 -0.45593999997E+02  0.45594000000E+02  0.51100000000E-03 0.  1.
    9900012    2    1    2    0    0  0.52096577238E+00  0.32652178951E+02 -0.24222487324E+02  0.50528867106E+02  0.30000022054E+02 0.  0.
         12    1    1    2    0    0 -0.52096577238E+00 -0.32652178951E+02  0.24222487324E+02  0.40659132894E+02  0.00000000000E+00 0. -1.
         11    1    3    3    0    0  0.69075405732E+01  0.27517905167E+02 -0.20485120850E+02  0.34994133766E+02  0.51100000000E-03 0. -1.
        -11    1    3    3    0    0 -0.28475150626E+01  0.81242669041E+01  0.12822525584E+01  0.87038052969E+01  0.51100000000E-03 0.  1.
         12    1    3    3    0    0 -0.35390597382E+01 -0.29899931204E+01 -0.50196190320E+01  0.68309280422E+01  0.00000000000E+00 0. -1.
</event>
<event>
 7    1  0.6136531E-013  0.5052885E+02  0.7816164E-02  0.1300439E+00
        -11   -1    0    0    0    0  0.00000000000E+00  0.00000000000E+00  0.45593999997E+02  0.45594000000E+02  0.51100000000E-03 0.  1.
         11   -1    0    0    0    0 -0.00000000000E+00 -0.00000000000E+00 -0.45593999997E+02  0.45594000000E+02  0.51100000000E-03 0. -1.
    9900012    2    1    2    0    0  0.63865388537E+01  0.18517430850E+02  0.35629809551E+02  0.50528850323E+02  0.29999971042E+02 0.  0.
         12    1    1    2    0    0 -0.63865388537E+01 -0.18517430850E+02 -0.35629809551E+02  0.40659149677E+02  0.00000000000E+00 0. -1.
         11    1    3    3    0    0  0.12967932008E+01 -0.17882684805E+01 -0.57137707448E+00  0.22816767489E+01  0.51100000000E-03 0. -1.
        -11    1    3    3    0    0 -0.57579661608E+01  0.11366056043E+02  0.30543717848E+02  0.33094714148E+02  0.51100000000E-03 0.  1.
        -12    1    3    3    0    0  0.10847711814E+02  0.89396432881E+01  0.56574687772E+01  0.15152459427E+02  0.00000000000E+00 0.  1.
</event>
<event>
 7    1  0.6136531E-013  0.5052886E+02  0.7816164E-02  0.1300439E+00
        -11   -1    0    0    0    0  0.00000000000E+00  0.00000000000E+00  0.45593999997E+02  0.45594000000E+02  0.51100000000E-03 0. -1.
         11   -1    0    0    0    0 -0.00000000000E+00 -0.00000000000E+00 -0.45593999997E+02  0.45594000000E+02  0.51100000000E-03 0.  1.
    9900012    2    1    2    0    0 -0.96715443475E+01 -0.30633331123E+02 -0.24924399433E+02  0.50528862862E+02  0.30000009155E+02 0.  0.
         12    1    1    2    0    0  0.96715443475E+01  0.30633331123E+02  0.24924399433E+02  0.40659137138E+02  0.00000000000E+00 0. -1.
         11    1    3    3    0    0 -0.67703049502E+01 -0.35408821163E+01 -0.11295375954E+02  0.13636729574E+02  0.51100000000E-03 0. -1.
        -11    1    3    3    0    0 -0.38701987441E+01 -0.15191944816E+02  0.34510435987E+01  0.16052517803E+02  0.51100000000E-03 0.  1.
         12    1    3    3    0    0  0.96895934679E+00 -0.11900504190E+02 -0.17080067077E+02  0.20839615485E+02  0.00000000000E+00 0. -1.
</event>
<event>
 7    1  0.6136531E-013  0.5052886E+02  0.7816164E-02  0.1300439E+00
        -11   -1    0    0    0    0  0.00000000000E+00  0.00000000000E+00  0.45593999997E+02  0.45594000000E+02  0.51100000000E-03 0. -1.
         11   -1    0    0    0    0 -0.00000000000E+00 -0.00000000000E+00 -0.45593999997E+02  0.45594000000E+02  0.51100000000E-03 0.  1.
    9900012    2    1    2    0    0  0.97710178356E+01  0.10431806411E+02 -0.38064024068E+02  0.50528864461E+02  0.30000014016E+02 0.  0.
         12    1    1    2    0    0 -0.97710178356E+01 -0.10431806411E+02  0.38064024068E+02  0.40659135539E+02  0.00000000000E+00 0. -1.
         11    1    3    3    0    0 -0.21486959687E+01 -0.37724320899E+01 -0.59455874074E+01  0.73619391547E+01  0.51100000000E-03 0. -1.
        -11    1    3    3    0    0  0.46836403530E+01  0.15141439494E+02 -0.32178703101E+02  0.35870163234E+02  0.51100000000E-03 0.  1.
        -12    1    3    3    0    0  0.72360734513E+01 -0.93720099341E+00  0.60266440930E-01  0.72967620722E+01  0.00000000000E+00 0.  1.
</event>
<event>
 7    1  0.6136531E-013  0.5052887E+02  0.7816164E-02  0.1300439E+00
        -11   -1    0    0    0    0  0.00000000000E+00  0.00000000000E+00  0.45593999997E+02  0.45594000000E+02  0.51100000000E-03 0. -1.
         11   -1    0    0    0    0 -0.00000000000E+00 -0.00000000000E+00 -0.45593999997E+02  0.45594000000E+02  0.51100000000E-03 0.  1.
    9900012    2    1    2    0    0 -0.12847337715E+02 -0.36678989287E+02  0.11948320988E+02  0.50528871678E+02  0.30000035953E+02 0.  0.
         12    1    1    2    0    0  0.12847337715E+02  0.36678989287E+02 -0.11948320988E+02  0.40659128322E+02  0.00000000000E+00 0. -1.
         11    1    3    3    0    0 -0.75748615366E+01 -0.22600348339E+01  0.95595847625E+01  0.12404513124E+02  0.51100000000E-03 0. -1.
        -11    1    3    3    0    0 -0.57361467029E+01 -0.17354167455E+02 -0.58204940545E+01  0.19181987863E+02  0.51100000000E-03 0.  1.
        -12    1    3    3    0    0  0.46367052503E+00 -0.17064786998E+02  0.82092302803E+01  0.18942370692E+02  0.00000000000E+00 0.  1.
</event>
<event>
 7    1  0.6136531E-013  0.5052886E+02  0.7816164E-02  0.1300439E+00
        -11   -1    0    0    0    0  0.00000000000E+00  0.00000000000E+00  0.45593999997E+02  0.45594000000E+02  0.51100000000E-03 0.  1.
         11   -1    0    0    0    0 -0.00000000000E+00 -0.00000000000E+00 -0.45593999997E+02  0.45594000000E+02  0.51100000000E-03 0. -1.
    9900012    2    1    2    0    0  0.76699496343E+01  0.29890345288E+02  0.26474604943E+02  0.50528861105E+02  0.30000003814E+02 0.  0.
         12    1    1    2    0    0 -0.76699496343E+01 -0.29890345288E+02 -0.26474604943E+02  0.40659138895E+02  0.00000000000E+00 0. -1.
         11    1    3    3    0    0  0.13277876936E+02  0.71389265100E+01  0.19402715343E+02  0.24570951357E+02  0.51100000000E-03 0. -1.
        -11    1    3    3    0    0 -0.28119796531E+01  0.19238424272E+02  0.85378127744E+01  0.21234840364E+02  0.51100000000E-03 0.  1.
         12    1    3    3    0    0 -0.27959476486E+01  0.35129945059E+01 -0.14659231745E+01  0.47230693840E+01  0.00000000000E+00 0. -1.
</event>
<event>
 7    1  0.6136531E-013  0.5052886E+02  0.7816164E-02  0.1300439E+00
        -11   -1    0    0    0    0  0.00000000000E+00  0.00000000000E+00  0.45593999997E+02  0.45594000000E+02  0.51100000000E-03 0.  1.
         11   -1    0    0    0    0 -0.00000000000E+00 -0.00000000000E+00 -0.45593999997E+02  0.45594000000E+02  0.51100000000E-03 0. -1.
    9900012    2    1    2    0    0  0.82257022405E+01  0.22668399200E+02  0.32736026340E+02  0.50528856869E+02  0.29999990939E+02 0.  0.
         12    1    1    2    0    0 -0.82257022405E+01 -0.22668399200E+02 -0.32736026340E+02  0.40659143131E+02  0.00000000000E+00 0. -1.
         11    1    3    3    0    0 -0.13869662360E+01  0.31014647846E+01 -0.40166679463E+01  0.52608346108E+01  0.51100000000E-03 0. -1.
        -11    1    3    3    0    0 -0.14068075396E+01  0.12210747777E+02  0.23544123866E+02  0.26559503715E+02  0.51100000000E-03 0.  1.
        -12    1    3    3    0    0  0.11019476016E+02  0.73561866378E+01  0.13208570421E+02  0.18708518543E+02  0.00000000000E+00 0.  1.
</event>
<event>
 7    1  0.6136531E-013  0.5052887E+02  0.7816164E-02  0.1300439E+00
        -11   -1    0    0    0    0  0.00000000000E+00  0.00000000000E+00  0.45593999997E+02  0.45594000000E+02  0.51100000000E-03 0. -1.
         11   -1    0    0    0    0 -0.00000000000E+00 -0.00000000000E+00 -0.45593999997E+02  0.45594000000E+02  0.51100000000E-03 0.  1.
    9900012    2    1    2    0    0  0.28863164870E+02  0.25005201537E+02 -0.13957871018E+02  0.50528873674E+02  0.30000042019E+02 0.  0.
         12    1    1    2    0    0 -0.28863164870E+02 -0.25005201537E+02  0.13957871018E+02  0.40659126326E+02  0.00000000000E+00 0. -1.
         11    1    3    3    0    0 -0.42838339405E+01  0.86908043367E+01 -0.72671134316E+01  0.12111657654E+02  0.51100000000E-03 0. -1.
        -11    1    3    3    0    0  0.11671732446E+02  0.67011959015E+01 -0.63610652319E+01  0.14886185406E+02  0.51100000000E-03 0.  1.
         12    1    3    3    0    0  0.21475266365E+02  0.96132012991E+01 -0.32969235434E+00  0.23531030613E+02  0.00000000000E+00 0. -1.
</event>
<event>
 7    1  0.6136531E-013  0.5052886E+02  0.7816164E-02  0.1300439E+00
        -11   -1    0    0    0    0  0.00000000000E+00  0.00000000000E+00  0.45593999997E+02  0.45594000000E+02  0.51100000000E-03 0.  1.
         11   -1    0    0    0    0 -0.00000000000E+00 -0.00000000000E+00 -0.45593999997E+02  0.45594000000E+02  0.51100000000E-03 0. -1.
    9900012    2    1    2    0    0  0.27009686943E+02 -0.21241625681E+02  0.21735594041E+02  0.50528857133E+02  0.29999991742E+02 0.  0.
         12    1    1    2    0    0 -0.27009686943E+02  0.21241625681E+02 -0.21735594041E+02  0.40659142867E+02  0.00000000000E+00 0. -1.
         11    1    3    3    0    0  0.99885680402E+01 -0.15552573243E+02 -0.39639548474E+01  0.18904152037E+02  0.51100000000E-03 0. -1.
        -11    1    3    3    0    0  0.10875293822E+02 -0.22360751474E+01  0.12966510933E+02  0.17070514164E+02  0.51100000000E-03 0.  1.
         12    1    3    3    0    0  0.61458250807E+01 -0.34529772913E+01  0.12733037956E+02  0.14554190932E+02  0.00000000000E+00 0. -1.
</event>
<event>
 7    1  0.6136531E-013  0.5052886E+02  0.7816164E-02  0.1300439E+00
        -11   -1    0    0    0    0  0.00000000000E+00  0.00000000000E+00  0.45593999997E+02  0.45594000000E+02  0.51100000000E-03 0.  1.
         11   -1    0    0    0    0 -0.00000000000E+00 -0.00000000000E+00 -0.45593999997E+02  0.45594000000E+02  0.51100000000E-03 0. -1.
    9900012    2    1    2    0    0  0.10542111339E+02 -0.16317526289E+02  0.35717891743E+02  0.50528861221E+02  0.30000004169E+02 0.  0.
         12    1    1    2    0    0 -0.10542111339E+02  0.16317526289E+02 -0.35717891743E+02  0.40659138779E+02  0.00000000000E+00 0. -1.
         11    1    3    3    0    0  0.38701303765E+01  0.77772735179E+01  0.11048155627E+02  0.14054381364E+02  0.51100000000E-03 0. -1.
        -11    1    3    3    0    0  0.20566706554E+01 -0.21345212712E+02  0.20589888605E+02  0.29728631199E+02  0.51100000000E-03 0.  1.
        -12    1    3    3    0    0  0.46153103067E+01 -0.27495870943E+01  0.40798475105E+01  0.67458486586E+01  0.00000000000E+00 0.  1.
</event>
<event>
 7    1  0.6136531E-013  0.5052886E+02  0.7816164E-02  0.1300439E+00
        -11   -1    0    0    0    0  0.00000000000E+00  0.00000000000E+00  0.45593999997E+02  0.45594000000E+02  0.51100000000E-03 0.  1.
         11   -1    0    0    0    0 -0.00000000000E+00 -0.00000000000E+00 -0.45593999997E+02  0.45594000000E+02  0.51100000000E-03 0. -1.
    9900012    2    1    2    0    0 -0.17682205669E+02 -0.19897289540E+02  0.30734399860E+02  0.50528857570E+02  0.29999993070E+02 0.  0.
         12    1    1    2    0    0  0.17682205669E+02  0.19897289540E+02 -0.30734399860E+02  0.40659142430E+02  0.00000000000E+00 0. -1.
         11    1    3    3    0    0  0.77008990546E+01 -0.12688259079E+01  0.48008912664E+01  0.91630956912E+01  0.51100000000E-03 0. -1.
        -11    1    3    3    0    0 -0.14348121374E+02 -0.14307220216E+02  0.14663678511E+02  0.25011769330E+02  0.51100000000E-03 0.  1.
        -12    1    3    3    0    0 -0.11034983350E+02 -0.43212434161E+01  0.11269830083E+02  0.16353992549E+02  0.00000000000E+00 0.  1.
</event>
<event>
 7    1  0.6136531E-013  0.5052894E+02  0.7816164E-02  0.1300438E+00
        -11   -1    0    0    0    0  0.00000000000E+00  0.00000000000E+00  0.45593999997E+02  0.45594000000E+02  0.51100000000E-03 0.  1.
         11   -1    0    0    0    0 -0.00000000000E+00 -0.00000000000E+00 -0.45593999997E+02  0.45594000000E+02  0.51100000000E-03 0. -1.
    9900012    2    1    2    0    0 -0.10917434012E+02  0.19368465661E+02  0.34041607610E+02  0.50528943492E+02  0.30000254236E+02 0.  0.
         12    1    1    2    0    0  0.10917434012E+02 -0.19368465661E+02 -0.34041607610E+02  0.40659056508E+02  0.00000000000E+00 0. -1.
         11    1    3    3    0    0  0.31528613328E+01  0.16820491728E+02  0.11853029119E+02  0.20817391193E+02  0.51100000000E-03 0. -1.
        -11    1    3    3    0    0 -0.35678521855E+01  0.50325161211E+01  0.16275751100E+02  0.17405627304E+02  0.51100000000E-03 0.  1.
         12    1    3    3    0    0 -0.10502443160E+02 -0.24845421879E+01  0.59128273914E+01  0.12305924994E+02  0.00000000000E+00 0. -1.
</event>
<event>
 7    1  0.6136531E-013  0.5052886E+02  0.7816164E-02  0.1300439E+00
        -11   -1    0    0    0    0  0.00000000000E+00  0.00000000000E+00  0.45593999997E+02  0.45594000000E+02  0.51100000000E-03 0.  1.
         11   -1    0    0    0    0 -0.00000000000E+00 -0.00000000000E+00 -0.45593999997E+02  0.45594000000E+02  0.51100000000E-03 0. -1.
    9900012    2    1    2    0    0 -0.30269170903E+02  0.22330762803E+02  0.15436309809E+02  0.50528864064E+02  0.30000012810E+02 0.  0.
         12    1    1    2    0    0  0.30269170903E+02 -0.22330762803E+02 -0.15436309809E+02  0.40659135936E+02  0.00000000000E+00 0. -1.
         11    1    3    3    0    0 -0.11946366528E+02  0.11648938148E+01 -0.69144895764E+01  0.13852177345E+02  0.51100000000E-03 0. -1.
        -11    1    3    3    0    0 -0.12644333400E+02  0.12900340700E+02  0.18712926121E+02  0.26009066911E+02  0.51100000000E-03 0.  1.
         12    1    3    3    0    0 -0.56784709747E+01  0.82655282879E+01  0.36378732641E+01  0.10667619808E+02  0.00000000000E+00 0. -1.
</event>
<event>
 7    1  0.6136531E-013  0.5052885E+02  0.7816164E-02  0.1300439E+00
        -11   -1    0    0    0    0  0.00000000000E+00  0.00000000000E+00  0.45593999997E+02  0.45594000000E+02  0.51100000000E-03 0. -1.
         11   -1    0    0    0    0 -0.00000000000E+00 -0.00000000000E+00 -0.45593999997E+02  0.45594000000E+02  0.51100000000E-03 0.  1.
    9900012    2    1    2    0    0  0.32718702968E+02 -0.21299572999E+02  0.11356970734E+02  0.50528854435E+02  0.29999983540E+02 0.  0.
         12    1    1    2    0    0 -0.32718702968E+02  0.21299572999E+02 -0.11356970734E+02  0.40659145565E+02  0.00000000000E+00 0. -1.
         11    1    3    3    0    0  0.10337944607E+02  0.63012155370E+01 -0.72982832117E+00  0.12128935056E+02  0.51100000000E-03 0. -1.
        -11    1    3    3    0    0  0.92543697457E+01 -0.11127019447E+02  0.91749063110E+01  0.17135717879E+02  0.51100000000E-03 0.  1.
         12    1    3    3    0    0  0.13126388615E+02 -0.16473769089E+02  0.29118927439E+01  0.21264201499E+02  0.00000000000E+00 0. -1.
</event>
<event>
 7    1  0.6136531E-013  0.5052885E+02  0.7816164E-02  0.1300439E+00
        -11   -1    0    0    0    0  0.00000000000E+00  0.00000000000E+00  0.45593999997E+02  0.45594000000E+02  0.51100000000E-03 0.  1.
         11   -1    0    0    0    0 -0.00000000000E+00 -0.00000000000E+00 -0.45593999997E+02  0.45594000000E+02  0.51100000000E-03 0. -1.
    9900012    2    1    2    0    0  0.22509205257E+02  0.29169448954E+01  0.33734154811E+02  0.50528854785E+02  0.29999984604E+02 0.  0.
         12    1    1    2    0    0 -0.22509205257E+02 -0.29169448954E+01 -0.33734154811E+02  0.40659145215E+02  0.00000000000E+00 0. -1.
         11    1    3    3    0    0  0.13071410978E+02 -0.36192752226E+01  0.68660405688E+01  0.15202087075E+02  0.51100000000E-03 0. -1.
        -11    1    3    3    0    0  0.57129948279E+01  0.92680311304E+01  0.28435800503E+02  0.30448800657E+02  0.51100000000E-03 0.  1.
        -12    1    3    3    0    0  0.37247994511E+01 -0.27318110124E+01 -0.15676862603E+01  0.48779670529E+01  0.00000000000E+00 0.  1.
</event>
<event>
 7    1  0.6136531E-013  0.5052886E+02  0.7816164E-02  0.1300439E+00
        -11   -1    0    0    0    0  0.00000000000E+00  0.00000000000E+00  0.45593999997E+02  0.45594000000E+02  0.51100000000E-03 0. -1.
         11   -1    0    0    0    0 -0.00000000000E+00 -0.00000000000E+00 -0.45593999997E+02  0.45594000000E+02  0.51100000000E-03 0.  1.
    9900012    2    1    2    0    0 -0.29235971282E+02 -0.17696860888E+02 -0.22028267016E+02  0.50528862653E+02  0.30000008520E+02 0.  0.
         12    1    1    2    0    0  0.29235971282E+02  0.17696860888E+02  0.22028267016E+02  0.40659137347E+02  0.00000000000E+00 0. -1.
         11    1    3    3    0    0 -0.78345208700E+01 -0.85597916748E+01  0.15142468915E+01  0.11702251693E+02  0.51100000000E-03 0. -1.
        -11    1    3    3    0    0 -0.76973823650E+01  0.64899414047E+01 -0.83739072231E+01  0.13095470864E+02  0.51100000000E-03 0.  1.
        -12    1    3    3    0    0 -0.13704068047E+02 -0.15627010618E+02 -0.15168606684E+02  0.25731140096E+02  0.00000000000E+00 0.  1.
</event>
<event>
 7    1  0.6136531E-013  0.5052886E+02  0.7816164E-02  0.1300439E+00
        -11   -1    0    0    0    0  0.00000000000E+00  0.00000000000E+00  0.45593999997E+02  0.45594000000E+02  0.51100000000E-03 0.  1.
         11   -1    0    0    0    0 -0.00000000000E+00 -0.00000000000E+00 -0.45593999997E+02  0.45594000000E+02  0.51100000000E-03 0. -1.
    9900012    2    1    2    0    0 -0.17276561713E+01 -0.23569378443E+02  0.33085727030E+02  0.50528859218E+02  0.29999998078E+02 0.  0.
         12    1    1    2    0    0  0.17276561713E+01  0.23569378443E+02 -0.33085727030E+02  0.40659140782E+02  0.00000000000E+00 0. -1.
         11    1    3    3    0    0 -0.13126289668E+01  0.21370838168E+01 -0.14785360234E+01  0.29113898877E+01  0.51100000000E-03 0. -1.
        -11    1    3    3    0    0  0.35935062024E+01 -0.12366640793E+02  0.30500319625E+02  0.33107651515E+02  0.51100000000E-03 0.  1.
         12    1    3    3    0    0 -0.40085334068E+01 -0.13339821467E+02  0.40639434282E+01  0.14509817815E+02  0.00000000000E+00 0. -1.
</event>
<event>
 7    1  0.6136531E-013  0.5052886E+02  0.7816164E-02  0.1300439E+00
        -11   -1    0    0    0    0  0.00000000000E+00  0.00000000000E+00  0.45593999997E+02  0.45594000000E+02  0.51100000000E-03 0. -1.
         11   -1    0    0    0    0 -0.00000000000E+00 -0.00000000000E+00 -0.45593999997E+02  0.45594000000E+02  0.51100000000E-03 0.  1.
    9900012    2    1    2    0    0  0.38365684339E+02 -0.67100740234E+01 -0.11671095464E+02  0.50528864525E+02  0.30000014211E+02 0.  0.
         12    1    1    2    0    0 -0.38365684339E+02  0.67100740234E+01  0.11671095464E+02  0.40659135475E+02  0.00000000000E+00 0. -1.
         11    1    3    3    0    0  0.28237280666E+02 -0.62239566907E+01 -0.13014701828E+02  0.31709054231E+02  0.51100000000E-03 0.  1.
        -11    1    3    3    0    0  0.57355857456E+01  0.38677976623E+01  0.74233420781E+01  0.10147059203E+02  0.51100000000E-03 0. -1.
         12    1    3    3    0    0  0.43928179274E+01 -0.43539149949E+01 -0.60797357148E+01  0.86727510911E+01  0.00000000000E+00 0. -1.
</event>
<event>
 7    1  0.6136531E-013  0.5052886E+02  0.7816164E-02  0.1300439E+00
        -11   -1    0    0    0    0  0.00000000000E+00  0.00000000000E+00  0.45593999997E+02  0.45594000000E+02  0.51100000000E-03 0.  1.
         11   -1    0    0    0    0 -0.00000000000E+00 -0.00000000000E+00 -0.45593999997E+02  0.45594000000E+02  0.51100000000E-03 0. -1.
    9900012    2    1    2    0    0  0.28298886538E+02  0.27463125508E+02 -0.99053237277E+01  0.50528859821E+02  0.29999999912E+02 0.  0.
         12    1    1    2    0    0 -0.28298886538E+02 -0.27463125508E+02  0.99053237277E+01  0.40659140179E+02  0.00000000000E+00 0. -1.
         11    1    3    3    0    0  0.11087741934E+02  0.10435301377E+02  0.87734455128E+01  0.17572901936E+02  0.51100000000E-03 0.  1.
        -11    1    3    3    0    0  0.15535902303E+02  0.14709840014E+02 -0.20446329897E+02  0.29593851728E+02  0.51100000000E-03 0. -1.
         12    1    3    3    0    0  0.16752423012E+01  0.23179841169E+01  0.17675606569E+01  0.33621061568E+01  0.00000000000E+00 0. -1.
</event>
<event>
 7    1  0.6136531E-013  0.5052890E+02  0.7816164E-02  0.1300439E+00
        -11   -1    0    0    0    0  0.00000000000E+00  0.00000000000E+00  0.45593999997E+02  0.45594000000E+02  0.51100000000E-03 0.  1.
         11   -1    0    0    0    0 -0.00000000000E+00 -0.00000000000E+00 -0.45593999997E+02  0.45594000000E+02  0.51100000000E-03 0. -1.
    9900012    2    1    2    0    0 -0.19932975718E+02  0.72893205884E+01  0.34680033697E+02  0.50528899507E+02  0.30000120543E+02 0.  0.
         12    1    1    2    0    0  0.19932975718E+02 -0.72893205884E+01 -0.34680033697E+02  0.40659100493E+02  0.00000000000E+00 0. -1.
         11    1    3    3    0    0 -0.54245452687E+01 -0.43659250760E+01  0.28254561818E+02  0.29099952868E+02  0.51100000000E-03 0. -1.
        -11    1    3    3    0    0  0.52072433882E+00 -0.55331763568E+00  0.11179955992E+01  0.13517502225E+01  0.51100000000E-03 0.  1.
         12    1    3    3    0    0 -0.15029154788E+02  0.12208563300E+02  0.53074762801E+01  0.20077196417E+02  0.00000000000E+00 0. -1.
</event>
<event>
 7    1  0.6136531E-013  0.5052899E+02  0.7816164E-02  0.1300438E+00
        -11   -1    0    0    0    0  0.00000000000E+00  0.00000000000E+00  0.45593999997E+02  0.45594000000E+02  0.51100000000E-03 0.  1.
         11   -1    0    0    0    0 -0.00000000000E+00 -0.00000000000E+00 -0.45593999997E+02  0.45594000000E+02  0.51100000000E-03 0. -1.
    9900012    2    1    2    0    0 -0.35844367162E+02 -0.11803413210E+02  0.15133276478E+02  0.50528987744E+02  0.30000388744E+02 0.  0.
         12    1    1    2    0    0  0.35844367162E+02  0.11803413210E+02 -0.15133276478E+02  0.40659012256E+02  0.00000000000E+00 0. -1.
         11    1    3    3    0    0 -0.33721630253E+01 -0.44105196251E+01  0.80938751460E+01  0.98150385620E+01  0.51100000000E-03 0. -1.
        -11    1    3    3    0    0 -0.54513951115E+01  0.67462317601E+01 -0.20095146721E+01  0.89032298129E+01  0.51100000000E-03 0.  1.
        -12    1    3    3    0    0 -0.27020809026E+02 -0.14139125345E+02  0.90489160038E+01  0.31810719369E+02  0.00000000000E+00 0.  1.
</event>
<event>
 7    1  0.6136531E-013  0.5052885E+02  0.7816164E-02  0.1300439E+00
        -11   -1    0    0    0    0  0.00000000000E+00  0.00000000000E+00  0.45593999997E+02  0.45594000000E+02  0.51100000000E-03 0.  1.
         11   -1    0    0    0    0 -0.00000000000E+00 -0.00000000000E+00 -0.45593999997E+02  0.45594000000E+02  0.51100000000E-03 0. -1.
    9900012    2    1    2    0    0  0.18609623629E+02  0.29201005173E+00  0.36149176864E+02  0.50528851590E+02  0.29999974893E+02 0.  0.
         12    1    1    2    0    0 -0.18609623629E+02 -0.29201005173E+00 -0.36149176864E+02  0.40659148410E+02  0.00000000000E+00 0. -1.
         11    1    3    3    0    0  0.50600937630E+01  0.10216984917E+02  0.69128243394E+01  0.13333359303E+02  0.51100000000E-03 0. -1.
        -11    1    3    3    0    0  0.68478686224E+01 -0.10288406410E+02  0.75231013009E+01  0.14468644186E+02  0.51100000000E-03 0.  1.
         12    1    3    3    0    0  0.67016612435E+01  0.36343154507E+00  0.21713251224E+02  0.22726848101E+02  0.00000000000E+00 0. -1.
</event>
<event>
 7    1  0.6136531E-013  0.5052885E+02  0.7816164E-02  0.1300439E+00
        -11   -1    0    0    0    0  0.00000000000E+00  0.00000000000E+00  0.45593999997E+02  0.45594000000E+02  0.51100000000E-03 0. -1.
         11   -1    0    0    0    0 -0.00000000000E+00 -0.00000000000E+00 -0.45593999997E+02  0.45594000000E+02  0.51100000000E-03 0.  1.
    9900012    2    1    2    0    0  0.14965371308E+02 -0.28734500962E+02 -0.24566902341E+02  0.50528848822E+02  0.29999966479E+02 0.  0.
         12    1    1    2    0    0 -0.14965371308E+02  0.28734500962E+02  0.24566902341E+02  0.40659151178E+02  0.00000000000E+00 0. -1.
         11    1    3    3    0    0  0.54083035740E+01 -0.17473937950E+02 -0.28597767661E+02  0.33947320521E+02  0.51100000000E-03 0. -1.
        -11    1    3    3    0    0  0.54328675367E+01 -0.10026897041E+02  0.44818015735E+01  0.12253214254E+02  0.51100000000E-03 0.  1.
        -12    1    3    3    0    0  0.41242001967E+01 -0.12336659702E+01 -0.45093625314E+00  0.43283140474E+01  0.00000000000E+00 0.  1.
</event>
<event>
 7    1  0.6136531E-013  0.5052886E+02  0.7816164E-02  0.1300439E+00
        -11   -1    0    0    0    0  0.00000000000E+00  0.00000000000E+00  0.45593999997E+02  0.45594000000E+02  0.51100000000E-03 0.  1.
         11   -1    0    0    0    0 -0.00000000000E+00 -0.00000000000E+00 -0.45593999997E+02  0.45594000000E+02  0.51100000000E-03 0. -1.
    9900012    2    1    2    0    0  0.70599380242E+01 -0.10916729595E+02  0.38524642666E+02  0.50528858316E+02  0.29999995337E+02 0.  0.
         12    1    1    2    0    0 -0.70599380242E+01  0.10916729595E+02 -0.38524642666E+02  0.40659141684E+02  0.00000000000E+00 0. -1.
         11    1    3    3    0    0 -0.76228307485E+01 -0.12542540088E+02  0.99150103325E+01  0.17712433222E+02  0.51100000000E-03 0. -1.
        -11    1    3    3    0    0  0.12825149859E+02 -0.92325402502E+00  0.24059838091E+02  0.27280261658E+02  0.51100000000E-03 0.  1.
         12    1    3    3    0    0  0.18576189140E+01  0.25490645178E+01  0.45497942422E+01  0.55361634362E+01  0.00000000000E+00 0. -1.
</event>
<event>
 7    1  0.6136531E-013  0.5052885E+02  0.7816164E-02  0.1300439E+00
        -11   -1    0    0    0    0  0.00000000000E+00  0.00000000000E+00  0.45593999997E+02  0.45594000000E+02  0.51100000000E-03 0.  1.
         11   -1    0    0    0    0 -0.00000000000E+00 -0.00000000000E+00 -0.45593999997E+02  0.45594000000E+02  0.51100000000E-03 0. -1.
    9900012    2    1    2    0    0  0.25893350061E+02  0.15617966072E+02  0.27180501619E+02  0.50528854536E+02  0.29999983847E+02 0.  0.
         12    1    1    2    0    0 -0.25893350061E+02 -0.15617966072E+02 -0.27180501619E+02  0.40659145464E+02  0.00000000000E+00 0. -1.
         11    1    3    3    0    0 -0.38425289285E+00  0.20355062468E+01 -0.16206489061E+00  0.20777875869E+01  0.51100000000E-03 0. -1.
        -11    1    3    3    0    0  0.39056492659E+01  0.15879530801E+02  0.17348671503E+02  0.23840931145E+02  0.51100000000E-03 0.  1.
        -12    1    3    3    0    0  0.22371953688E+02 -0.22970709756E+01  0.99938950060E+01  0.24610135804E+02  0.00000000000E+00 0.  1.
</event>
<event>
 7    1  0.6136531E-013  0.5052899E+02  0.7816164E-02  0.1300438E+00
        -11   -1    0    0    0    0  0.00000000000E+00  0.00000000000E+00  0.45593999997E+02  0.45594000000E+02  0.51100000000E-03 0.  1.
         11   -1    0    0    0    0 -0.00000000000E+00 -0.00000000000E+00 -0.45593999997E+02  0.45594000000E+02  0.51100000000E-03 0. -1.
    9900012    2    1    2    0    0 -0.17808560671E+02 -0.30506662101E+01  0.36423949418E+02  0.50528985148E+02  0.30000380855E+02 0.  0.
         12    1    1    2    0    0  0.17808560671E+02  0.30506662101E+01 -0.36423949418E+02  0.40659014852E+02  0.00000000000E+00 0. -1.
         11    1    3    3    0    0 -0.61945197961E+01 -0.46857382105E+01 -0.32212195364E+01  0.84085952242E+01  0.51100000000E-03 0. -1.
        -11    1    3    3    0    0 -0.10741423128E+02  0.41312050086E+01  0.30436878669E+02  0.32539954042E+02  0.51100000000E-03 0.  1.
        -12    1    3    3    0    0 -0.87261774693E+00 -0.24961330082E+01  0.92082902852E+01  0.95804358827E+01  0.00000000000E+00 0.  1.
</event>
<event>
 7    1  0.6136531E-013  0.5052893E+02  0.7816164E-02  0.1300439E+00
        -11   -1    0    0    0    0  0.00000000000E+00  0.00000000000E+00  0.45593999997E+02  0.45594000000E+02  0.51100000000E-03 0.  1.
         11   -1    0    0    0    0 -0.00000000000E+00 -0.00000000000E+00 -0.45593999997E+02  0.45594000000E+02  0.51100000000E-03 0. -1.
    9900012    2    1    2    0    0  0.97246432155E+01 -0.21256700419E+02  0.33267767595E+02  0.50528925255E+02  0.30000198803E+02 0.  0.
         12    1    1    2    0    0 -0.97246432155E+01  0.21256700419E+02 -0.33267767595E+02  0.40659074745E+02  0.00000000000E+00 0. -1.
         11    1    3    3    0    0  0.10099516074E+02 -0.84605456300E+01  0.67919089219E+00  0.13192511429E+02  0.51100000000E-03 0. -1.
        -11    1    3    3    0    0 -0.75708394049E+00 -0.14843958891E+02  0.31812447981E+02  0.35113361253E+02  0.51100000000E-03 0.  1.
        -12    1    3    3    0    0  0.38221108242E+00  0.20478041013E+01  0.77612872139E+00  0.22230525727E+01  0.00000000000E+00 0.  1.
</event>
<event>
 7    1  0.6136531E-013  0.5052886E+02  0.7816164E-02  0.1300439E+00
        -11   -1    0    0    0    0  0.00000000000E+00  0.00000000000E+00  0.45593999997E+02  0.45594000000E+02  0.51100000000E-03 0.  1.
         11   -1    0    0    0    0 -0.00000000000E+00 -0.00000000000E+00 -0.45593999997E+02  0.45594000000E+02  0.51100000000E-03 0. -1.
    9900012    2    1    2    0    0 -0.24629004896E-01 -0.39299933103E+02  0.10424981311E+02  0.50528861004E+02  0.30000003509E+02 0.  0.
         12    1    1    2    0    0  0.24629004896E-01  0.39299933103E+02 -0.10424981311E+02  0.40659138996E+02  0.00000000000E+00 0. -1.
         11    1    3    3    0    0 -0.55013335053E+01  0.30832773992E+00  0.43232807522E+00  0.55269018589E+01  0.51100000000E-03 0. -1.
        -11    1    3    3    0    0  0.11438963546E+02 -0.16988652015E+02  0.50195377451E+01  0.21086961463E+02  0.51100000000E-03 0.  1.
        -12    1    3    3    0    0 -0.59622590459E+01 -0.22619608829E+02  0.49731154906E+01  0.23914997683E+02  0.00000000000E+00 0.  1.
</event>
<event>
 7    1  0.6136531E-013  0.5052886E+02  0.7816164E-02  0.1300439E+00
        -11   -1    0    0    0    0  0.00000000000E+00  0.00000000000E+00  0.45593999997E+02  0.45594000000E+02  0.51100000000E-03 0.  1.
         11   -1    0    0    0    0 -0.00000000000E+00 -0.00000000000E+00 -0.45593999997E+02  0.45594000000E+02  0.51100000000E-03 0. -1.
    9900012    2    1    2    0    0  0.18234838045E+02 -0.25717649033E+02  0.25676042109E+02  0.50528856764E+02  0.29999990619E+02 0.  0.
         12    1    1    2    0    0 -0.18234838045E+02  0.25717649033E+02 -0.25676042109E+02  0.40659143236E+02  0.00000000000E+00 0. -1.
         11    1    3    3    0    0  0.33278038527E+01 -0.91091789308E+01 -0.51539817930E+01  0.10982483684E+02  0.51100000000E-03 0. -1.
        -11    1    3    3    0    0  0.96814130563E+00 -0.31282300024E+01  0.12288507360E+02  0.12717332029E+02  0.51100000000E-03 0.  1.
         12    1    3    3    0    0  0.13938892887E+02 -0.13480240100E+02  0.18541516542E+02  0.26829041052E+02  0.00000000000E+00 0. -1.
</event>
<event>
 7    1  0.6136531E-013  0.5052887E+02  0.7816164E-02  0.1300439E+00
        -11   -1    0    0    0    0  0.00000000000E+00  0.00000000000E+00  0.45593999997E+02  0.45594000000E+02  0.51100000000E-03 0.  1.
         11   -1    0    0    0    0 -0.00000000000E+00 -0.00000000000E+00 -0.45593999997E+02  0.45594000000E+02  0.51100000000E-03 0. -1.
    9900012    2    1    2    0    0  0.38597451200E+01 -0.16476988808E+01  0.40441957914E+02  0.50528874285E+02  0.30000043877E+02 0.  0.
         12    1    1    2    0    0 -0.38597451200E+01  0.16476988808E+01 -0.40441957914E+02  0.40659125715E+02  0.00000000000E+00 0. -1.
         11    1    3    3    0    0 -0.66963893897E+01  0.24222455495E-01 -0.90014076450E+00  0.67566612497E+01  0.51100000000E-03 0. -1.
        -11    1    3    3    0    0  0.10061630889E+02  0.16191079119E+01  0.36505123481E+02  0.37900949424E+02  0.51100000000E-03 0.  1.
         12    1    3    3    0    0  0.49450362052E+00 -0.32910292482E+01  0.48369751969E+01  0.58712636118E+01  0.00000000000E+00 0. -1.
</event>
<event>
 7    1  0.6136531E-013  0.5052886E+02  0.7816164E-02  0.1300439E+00
        -11   -1    0    0    0    0  0.00000000000E+00  0.00000000000E+00  0.45593999997E+02  0.45594000000E+02  0.51100000000E-03 0.  1.
         11   -1    0    0    0    0 -0.00000000000E+00 -0.00000000000E+00 -0.45593999997E+02  0.45594000000E+02  0.51100000000E-03 0. -1.
    9900012    2    1    2    0    0 -0.28292662994E+02 -0.16265342660E+02  0.24251385062E+02  0.50528857995E+02  0.29999994362E+02 0.  0.
         12    1    1    2    0    0  0.28292662994E+02  0.16265342660E+02 -0.24251385062E+02  0.40659142005E+02  0.00000000000E+00 0. -1.
         11    1    3    3    0    0 -0.54804542821E+01 -0.96442807080E+01 -0.46277684288E+01  0.12019308233E+02  0.51100000000E-03 0. -1.
        -11    1    3    3    0    0 -0.97053347400E+01 -0.76068823236E+01  0.13985422418E+02  0.18645380703E+02  0.51100000000E-03 0.  1.
         12    1    3    3    0    0 -0.13106873972E+02  0.98582037110E+00  0.14893731073E+02  0.19864169059E+02  0.00000000000E+00 0. -1.
</event>
<event>
 7    1  0.6136531E-013  0.5052886E+02  0.7816164E-02  0.1300439E+00
        -11   -1    0    0    0    0  0.00000000000E+00  0.00000000000E+00  0.45593999997E+02  0.45594000000E+02  0.51100000000E-03 0. -1.
         11   -1    0    0    0    0 -0.00000000000E+00 -0.00000000000E+00 -0.45593999997E+02  0.45594000000E+02  0.51100000000E-03 0.  1.
    9900012    2    1    2    0    0  0.23222159156E+01  0.34164535042E+02 -0.21921622298E+02  0.50528860000E+02  0.30000000456E+02 0.  0.
         12    1    1    2    0    0 -0.23222159156E+01 -0.34164535042E+02  0.21921622298E+02  0.40659140000E+02  0.00000000000E+00 0. -1.
         11    1    3    3    0    0 -0.70683758314E+01 -0.35092706841E+00 -0.59181968016E+01  0.92255157224E+01  0.51100000000E-03 0. -1.
        -11    1    3    3    0    0  0.48065727809E+01  0.25589638553E+02 -0.17189234648E+02  0.31199399533E+02  0.51100000000E-03 0.  1.
         12    1    3    3    0    0  0.45840189661E+01  0.89258235576E+01  0.11858091519E+01  0.10103944745E+02  0.00000000000E+00 0. -1.
</event>
<event>
 7    1  0.6136531E-013  0.5052888E+02  0.7816164E-02  0.1300439E+00
        -11   -1    0    0    0    0  0.00000000000E+00  0.00000000000E+00  0.45593999997E+02  0.45594000000E+02  0.51100000000E-03 0.  1.
         11   -1    0    0    0    0 -0.00000000000E+00 -0.00000000000E+00 -0.45593999997E+02  0.45594000000E+02  0.51100000000E-03 0. -1.
    9900012    2    1    2    0    0  0.25091905696E+02  0.17289536029E+02  0.26919001130E+02  0.50528875448E+02  0.30000047411E+02 0.  0.
         12    1    1    2    0    0 -0.25091905696E+02 -0.17289536029E+02 -0.26919001130E+02  0.40659124552E+02  0.00000000000E+00 0. -1.
         11    1    3    3    0    0  0.11170784432E+02  0.22728927972E+02  0.99941039130E+01  0.27226323749E+02  0.51100000000E-03 0. -1.
        -11    1    3    3    0    0  0.49833705986E+01 -0.45770981958E+01  0.94298385522E+01  0.11606277000E+02  0.51100000000E-03 0.  1.
         12    1    3    3    0    0  0.89377506649E+01 -0.86229374732E+00  0.74950586643E+01  0.11696274699E+02  0.00000000000E+00 0. -1.
</event>
<event>
 7    1  0.6136531E-013  0.5052886E+02  0.7816164E-02  0.1300439E+00
        -11   -1    0    0    0    0  0.00000000000E+00  0.00000000000E+00  0.45593999997E+02  0.45594000000E+02  0.51100000000E-03 0.  1.
         11   -1    0    0    0    0 -0.00000000000E+00 -0.00000000000E+00 -0.45593999997E+02  0.45594000000E+02  0.51100000000E-03 0. -1.
    9900012    2    1    2    0    0 -0.26768126863E+02 -0.28284284461E+02  0.11688967877E+02  0.50528864086E+02  0.30000012877E+02 0.  0.
         12    1    1    2    0    0  0.26768126863E+02  0.28284284461E+02 -0.11688967877E+02  0.40659135914E+02  0.00000000000E+00 0. -1.
         11    1    3    3    0    0 -0.22776776192E+00 -0.46952648261E-01 -0.20435843755E+01  0.20567741892E+01  0.51100000000E-03 0. -1.
        -11    1    3    3    0    0 -0.17091668337E+02 -0.12678314257E+02  0.20016009937E+02  0.29214815299E+02  0.51100000000E-03 0.  1.
        -12    1    3    3    0    0 -0.94486907647E+01 -0.15559017556E+02 -0.62834576842E+01  0.19257274598E+02  0.00000000000E+00 0.  1.
</event>
<event>
 7    1  0.6136531E-013  0.5052888E+02  0.7816164E-02  0.1300439E+00
        -11   -1    0    0    0    0  0.00000000000E+00  0.00000000000E+00  0.45593999997E+02  0.45594000000E+02  0.51100000000E-03 0. -1.
         11   -1    0    0    0    0 -0.00000000000E+00 -0.00000000000E+00 -0.45593999997E+02  0.45594000000E+02  0.51100000000E-03 0.  1.
    9900012    2    1    2    0    0  0.27721168634E+02  0.96002548567E+01 -0.28152022278E+02  0.50528875045E+02  0.30000046187E+02 0.  0.
         12    1    1    2    0    0 -0.27721168634E+02 -0.96002548567E+01  0.28152022278E+02  0.40659124955E+02  0.00000000000E+00 0. -1.
         11    1    3    3    0    0  0.20587473242E+02  0.46205118559E+01 -0.28421447518E+01  0.21290161375E+02  0.51100000000E-03 0. -1.
        -11    1    3    3    0    0 -0.69564195707E+00 -0.23874418590E+01 -0.11349139636E+02  0.11618380572E+02  0.51100000000E-03 0.  1.
         12    1    3    3    0    0  0.78293373486E+01  0.73671848598E+01 -0.13960737890E+02  0.17620333099E+02  0.00000000000E+00 0. -1.
</event>
<event>
 7    1  0.6136531E-013  0.5052887E+02  0.7816164E-02  0.1300439E+00
        -11   -1    0    0    0    0  0.00000000000E+00  0.00000000000E+00  0.45593999997E+02  0.45594000000E+02  0.51100000000E-03 0.  1.
         11   -1    0    0    0    0 -0.00000000000E+00 -0.00000000000E+00 -0.45593999997E+02  0.45594000000E+02  0.51100000000E-03 0. -1.
    9900012    2    1    2    0    0  0.11987244280E+02 -0.28579488636E+02  0.26318879479E+02  0.50528872942E+02  0.30000039794E+02 0.  0.
         12    1    1    2    0    0 -0.11987244280E+02  0.28579488636E+02 -0.26318879479E+02  0.40659127058E+02  0.00000000000E+00 0. -1.
         11    1    3    3    0    0 -0.23300280533E+01 -0.20486116229E+02  0.10569566270E+02  0.23169499784E+02  0.51100000000E-03 0. -1.
        -11    1    3    3    0    0  0.17295065435E+02 -0.81827051072E+01  0.12057522531E+02  0.22615477026E+02  0.51100000000E-03 0.  1.
        -12    1    3    3    0    0 -0.29777931019E+01  0.89332700294E-01  0.36917906788E+01  0.47438961314E+01  0.00000000000E+00 0.  1.
</event>
<event>
 7    1  0.6136531E-013  0.5052884E+02  0.7816164E-02  0.1300439E+00
        -11   -1    0    0    0    0  0.00000000000E+00  0.00000000000E+00  0.45593999997E+02  0.45594000000E+02  0.51100000000E-03 0. -1.
         11   -1    0    0    0    0 -0.00000000000E+00 -0.00000000000E+00 -0.45593999997E+02  0.45594000000E+02  0.51100000000E-03 0.  1.
    9900012    2    1    2    0    0  0.48911555865E+01 -0.25766650536E+02 -0.31069662072E+02  0.50528836407E+02  0.29999928742E+02 0.  0.
         12    1    1    2    0    0 -0.48911555865E+01  0.25766650536E+02  0.31069662072E+02  0.40659163593E+02  0.00000000000E+00 0. -1.
         11    1    3    3    0    0  0.29011708970E+01 -0.23860226264E+02 -0.27216672088E+02  0.36310803211E+02  0.51100000000E-03 0. -1.
        -11    1    3    3    0    0 -0.63361377250E+00 -0.39461007742E+01  0.40223123124E+01  0.56702887345E+01  0.51100000000E-03 0.  1.
         12    1    3    3    0    0  0.26235984620E+01  0.20396765024E+01 -0.78753022962E+01  0.85477444616E+01  0.00000000000E+00 0. -1.
</event>
<event>
 7    1  0.6136531E-013  0.5052884E+02  0.7816164E-02  0.1300439E+00
        -11   -1    0    0    0    0  0.00000000000E+00  0.00000000000E+00  0.45593999997E+02  0.45594000000E+02  0.51100000000E-03 0. -1.
         11   -1    0    0    0    0 -0.00000000000E+00 -0.00000000000E+00 -0.45593999997E+02  0.45594000000E+02  0.51100000000E-03 0.  1.
    9900012    2    1    2    0    0 -0.48249259500E+01  0.34123636670E+02 -0.21574631324E+02  0.50528841046E+02  0.29999942844E+02 0.  0.
         12    1    1    2    0    0  0.48249259500E+01 -0.34123636670E+02  0.21574631324E+02  0.40659158954E+02  0.00000000000E+00 0. -1.
         11    1    3    3    0    0 -0.68993225457E+01  0.19246460414E+02  0.28914182272E+01  0.20649145011E+02  0.51100000000E-03 0. -1.
        -11    1    3    3    0    0  0.70494425662E-01  0.12461360058E+02 -0.13067352032E+02  0.18056748139E+02  0.51100000000E-03 0.  1.
         12    1    3    3    0    0  0.20039021700E+01  0.24158161978E+01 -0.11398697520E+02  0.11822947896E+02  0.00000000000E+00 0. -1.
</event>
<event>
 7    1  0.6136531E-013  0.5052886E+02  0.7816164E-02  0.1300439E+00
        -11   -1    0    0    0    0  0.00000000000E+00  0.00000000000E+00  0.45593999997E+02  0.45594000000E+02  0.51100000000E-03 0.  1.
         11   -1    0    0    0    0 -0.00000000000E+00 -0.00000000000E+00 -0.45593999997E+02  0.45594000000E+02  0.51100000000E-03 0. -1.
    9900012    2    1    2    0    0  0.12341620188E+02  0.18485079063E+02  0.34046320657E+02  0.50528859735E+02  0.29999999651E+02 0.  0.
         12    1    1    2    0    0 -0.12341620188E+02 -0.18485079063E+02 -0.34046320657E+02  0.40659140265E+02  0.00000000000E+00 0. -1.
         11    1    3    3    0    0 -0.37434813062E+01  0.15525031458E+02  0.26843646657E+02  0.31234942295E+02  0.51100000000E-03 0.  1.
        -11    1    3    3    0    0  0.24333978571E+01  0.68890738747E+00 -0.15050868431E+01  0.29430095457E+01  0.51100000000E-03 0. -1.
         12    1    3    3    0    0  0.13651703637E+02  0.22711402172E+01  0.87077608431E+01  0.16350907894E+02  0.00000000000E+00 0. -1.
</event>
<event>
 7    1  0.6136531E-013  0.5052886E+02  0.7816164E-02  0.1300439E+00
        -11   -1    0    0    0    0  0.00000000000E+00  0.00000000000E+00  0.45593999997E+02  0.45594000000E+02  0.51100000000E-03 0. -1.
         11   -1    0    0    0    0 -0.00000000000E+00 -0.00000000000E+00 -0.45593999997E+02  0.45594000000E+02  0.51100000000E-03 0.  1.
    9900012    2    1    2    0    0 -0.34089186931E+02  0.21737366017E+02  0.43104430717E+01  0.50528859989E+02  0.30000000423E+02 0.  0.
         12    1    1    2    0    0  0.34089186931E+02 -0.21737366017E+02 -0.43104430717E+01  0.40659140011E+02  0.00000000000E+00 0. -1.
         11    1    3    3    0    0 -0.22923078290E+02  0.12358233116E+02  0.16893609699E+02  0.31041705703E+02  0.51100000000E-03 0. -1.
        -11    1    3    3    0    0 -0.26794514021E+01  0.20160632350E+01 -0.13970681348E+01  0.36325983012E+01  0.51100000000E-03 0.  1.
         12    1    3    3    0    0 -0.84866572389E+01  0.73630696659E+01 -0.11186098493E+02  0.15854555985E+02  0.00000000000E+00 0. -1.
</event>
<event>
 7    1  0.6136531E-013  0.5052885E+02  0.7816164E-02  0.1300439E+00
        -11   -1    0    0    0    0  0.00000000000E+00  0.00000000000E+00  0.45593999997E+02  0.45594000000E+02  0.51100000000E-03 0. -1.
         11   -1    0    0    0    0 -0.00000000000E+00 -0.00000000000E+00 -0.45593999997E+02  0.45594000000E+02  0.51100000000E-03 0.  1.
    9900012    2    1    2    0    0 -0.77540352555E+01 -0.39910353685E+02  0.45274017578E+00  0.50528851366E+02  0.29999974212E+02 0.  0.
         12    1    1    2    0    0  0.77540352555E+01  0.39910353685E+02 -0.45274017578E+00  0.40659148634E+02  0.00000000000E+00 0. -1.
         11    1    3    3    0    0  0.34617989236E+01 -0.33978068392E+02  0.35072420126E+01  0.34333568562E+02  0.51100000000E-03 0. -1.
        -11    1    3    3    0    0 -0.66094761075E+01  0.16207029462E+01  0.91054454683E-01  0.68058903628E+01  0.51100000000E-03 0.  1.
        -12    1    3    3    0    0 -0.46063580716E+01 -0.75529882394E+01 -0.31455562915E+01  0.93893924410E+01  0.00000000000E+00 0.  1.
</event>
<event>
 7    1  0.6136531E-013  0.5052886E+02  0.7816164E-02  0.1300439E+00
        -11   -1    0    0    0    0  0.00000000000E+00  0.00000000000E+00  0.45593999997E+02  0.45594000000E+02  0.51100000000E-03 0.  1.
         11   -1    0    0    0    0 -0.00000000000E+00 -0.00000000000E+00 -0.45593999997E+02  0.45594000000E+02  0.51100000000E-03 0. -1.
    9900012    2    1    2    0    0  0.94949457138E+01  0.26852637579E+02  0.29016334056E+02  0.50528858579E+02  0.29999996136E+02 0.  0.
         12    1    1    2    0    0 -0.94949457138E+01 -0.26852637579E+02 -0.29016334056E+02  0.40659141421E+02  0.00000000000E+00 0. -1.
         11    1    3    3    0    0  0.14107677162E+02  0.91775264482E+01  0.22371961449E+01  0.16978179922E+02  0.51100000000E-03 0. -1.
        -11    1    3    3    0    0 -0.61167604406E+01  0.15659033490E+02  0.18973712153E+02  0.25349987007E+02  0.51100000000E-03 0.  1.
        -12    1    3    3    0    0  0.15040289920E+01  0.20160776409E+01  0.78054257587E+01  0.82006916499E+01  0.00000000000E+00 0.  1.
</event>
<event>
 7    1  0.6136531E-013  0.5052886E+02  0.7816164E-02  0.1300439E+00
        -11   -1    0    0    0    0  0.00000000000E+00  0.00000000000E+00  0.45593999997E+02  0.45594000000E+02  0.51100000000E-03 0.  1.
         11   -1    0    0    0    0 -0.00000000000E+00 -0.00000000000E+00 -0.45593999997E+02  0.45594000000E+02  0.51100000000E-03 0. -1.
    9900012    2    1    2    0    0  0.19425097258E+02  0.32719151948E+02  0.14327877988E+02  0.50528863323E+02  0.30000010556E+02 0.  0.
         12    1    1    2    0    0 -0.19425097258E+02 -0.32719151948E+02 -0.14327877988E+02  0.40659136677E+02  0.00000000000E+00 0. -1.
         11    1    3    3    0    0  0.59525342257E+01 -0.42947828767E+01  0.36052378026E+01  0.81777480726E+01  0.51100000000E-03 0. -1.
        -11    1    3    3    0    0  0.76286475291E+00  0.14584462094E+02  0.73550415887E+01  0.16351915308E+02  0.51100000000E-03 0.  1.
         12    1    3    3    0    0  0.12709698279E+02  0.22429472730E+02  0.33675985963E+01  0.25999199942E+02  0.00000000000E+00 0. -1.
</event>
<event>
 7    1  0.6136531E-013  0.5052886E+02  0.7816164E-02  0.1300439E+00
        -11   -1    0    0    0    0  0.00000000000E+00  0.00000000000E+00  0.45593999997E+02  0.45594000000E+02  0.51100000000E-03 0.  1.
         11   -1    0    0    0    0 -0.00000000000E+00 -0.00000000000E+00 -0.45593999997E+02  0.45594000000E+02  0.51100000000E-03 0. -1.
    9900012    2    1    2    0    0 -0.17098992616E+02  0.30624485643E+02  0.20565288219E+02  0.50528858975E+02  0.29999997339E+02 0.  0.
         12    1    1    2    0    0  0.17098992616E+02 -0.30624485643E+02 -0.20565288219E+02  0.40659141025E+02  0.00000000000E+00 0. -1.
         11    1    3    3    0    0  0.12766635583E+01 -0.23909952361E-01  0.12559352941E+02  0.12624095535E+02  0.51100000000E-03 0. -1.
        -11    1    3    3    0    0 -0.13014736444E+02  0.26305836545E+02  0.32574967367E+01  0.29529505351E+02  0.51100000000E-03 0.  1.
        -12    1    3    3    0    0 -0.53609197299E+01  0.43425590509E+01  0.47484385417E+01  0.83752580882E+01  0.00000000000E+00 0.  1.
</event>
<event>
 7    1  0.6136531E-013  0.5052891E+02  0.7816164E-02  0.1300439E+00
        -11   -1    0    0    0    0  0.00000000000E+00  0.00000000000E+00  0.45593999997E+02  0.45594000000E+02  0.51100000000E-03 0.  1.
         11   -1    0    0    0    0 -0.00000000000E+00 -0.00000000000E+00 -0.45593999997E+02  0.45594000000E+02  0.51100000000E-03 0. -1.
    9900012    2    1    2    0    0  0.11459397639E+02  0.55658459778E+01  0.38611725037E+02  0.50528908200E+02  0.30000146963E+02 0.  0.
         12    1    1    2    0    0 -0.11459397639E+02 -0.55658459778E+01 -0.38611725037E+02  0.40659091800E+02  0.00000000000E+00 0. -1.
         11    1    3    3    0    0  0.69297727564E+01  0.15817129032E+02  0.14715142355E+02  0.22687854373E+02  0.51100000000E-03 0. -1.
        -11    1    3    3    0    0 -0.17066628831E+01 -0.65722734087E+01  0.14194049394E+02  0.15734627876E+02  0.51100000000E-03 0.  1.
        -12    1    3    3    0    0  0.62362877662E+01 -0.36790096456E+01  0.97025332880E+01  0.12106425950E+02  0.00000000000E+00 0.  1.
</event>
<event>
 7    1  0.6136531E-013  0.5052886E+02  0.7816164E-02  0.1300439E+00
        -11   -1    0    0    0    0  0.00000000000E+00  0.00000000000E+00  0.45593999997E+02  0.45594000000E+02  0.51100000000E-03 0.  1.
         11   -1    0    0    0    0 -0.00000000000E+00 -0.00000000000E+00 -0.45593999997E+02  0.45594000000E+02  0.51100000000E-03 0. -1.
    9900012    2    1    2    0    0 -0.32839664756E+02 -0.19308750054E+02  0.14208946999E+02  0.50528860994E+02  0.30000003476E+02 0.  0.
         12    1    1    2    0    0  0.32839664756E+02  0.19308750054E+02 -0.14208946999E+02  0.40659139006E+02  0.00000000000E+00 0. -1.
         11    1    3    3    0    0 -0.32952498669E+01 -0.15142971687E+02 -0.12096157155E+01  0.15544498501E+02  0.51100000000E-03 0. -1.
        -11    1    3    3    0    0 -0.21243456494E+02 -0.72090831988E+01  0.12459079130E+02  0.25660942645E+02  0.51100000000E-03 0.  1.
         12    1    3    3    0    0 -0.83009583947E+01  0.30433048323E+01  0.29594835847E+01  0.93234198479E+01  0.00000000000E+00 0. -1.
</event>
<event>
 7    1  0.6136531E-013  0.5052886E+02  0.7816164E-02  0.1300439E+00
        -11   -1    0    0    0    0  0.00000000000E+00  0.00000000000E+00  0.45593999997E+02  0.45594000000E+02  0.51100000000E-03 0.  1.
         11   -1    0    0    0    0 -0.00000000000E+00 -0.00000000000E+00 -0.45593999997E+02  0.45594000000E+02  0.51100000000E-03 0. -1.
    9900012    2    1    2    0    0 -0.29640744699E+02  0.41106094615E+01  0.27526258628E+02  0.50528858709E+02  0.29999996533E+02 0.  0.
         12    1    1    2    0    0  0.29640744699E+02 -0.41106094615E+01 -0.27526258628E+02  0.40659141291E+02  0.00000000000E+00 0. -1.
         11    1    3    3    0    0 -0.18197993430E+01  0.17373282595E+01  0.80044738260E+01  0.83905649764E+01  0.51100000000E-03 0. -1.
        -11    1    3    3    0    0 -0.12203260276E+02  0.95977092761E+01 -0.75550247810E+00  0.15543692257E+02  0.51100000000E-03 0.  1.
        -12    1    3    3    0    0 -0.15617685079E+02 -0.72244280742E+01  0.20277287280E+02  0.26594601476E+02  0.00000000000E+00 0.  1.
</event>
<event>
 7    1  0.6136531E-013  0.5052883E+02  0.7816164E-02  0.1300439E+00
        -11   -1    0    0    0    0  0.00000000000E+00  0.00000000000E+00  0.45593999997E+02  0.45594000000E+02  0.51100000000E-03 0. -1.
         11   -1    0    0    0    0 -0.00000000000E+00 -0.00000000000E+00 -0.45593999997E+02  0.45594000000E+02  0.51100000000E-03 0.  1.
    9900012    2    1    2    0    0  0.19742419860E+02 -0.16715488112E+02 -0.31368727214E+02  0.50528834591E+02  0.29999923221E+02 0.  0.
         12    1    1    2    0    0 -0.19742419860E+02  0.16715488112E+02  0.31368727214E+02  0.40659165409E+02  0.00000000000E+00 0. -1.
         11    1    3    3    0    0  0.16835673007E+02 -0.16292818015E+02 -0.10504886968E+02  0.25675834065E+02  0.51100000000E-03 0. -1.
        -11    1    3    3    0    0 -0.52832780193E+01  0.55576767349E-02 -0.75208655275E+01  0.91911085328E+01  0.51100000000E-03 0.  1.
        -12    1    3    3    0    0  0.81900248721E+01 -0.42822777350E+00 -0.13342974719E+02  0.15661891993E+02  0.00000000000E+00 0.  1.
</event>
<event>
 7    1  0.6136531E-013  0.5052888E+02  0.7816164E-02  0.1300439E+00
        -11   -1    0    0    0    0  0.00000000000E+00  0.00000000000E+00  0.45593999997E+02  0.45594000000E+02  0.51100000000E-03 0.  1.
         11   -1    0    0    0    0 -0.00000000000E+00 -0.00000000000E+00 -0.45593999997E+02  0.45594000000E+02  0.51100000000E-03 0. -1.
    9900012    2    1    2    0    0  0.21130003488E+02 -0.24394968468E+01  0.34651636784E+02  0.50528878956E+02  0.30000058074E+02 0.  0.
         12    1    1    2    0    0 -0.21130003488E+02  0.24394968468E+01 -0.34651636784E+02  0.40659121044E+02  0.00000000000E+00 0. -1.
         11    1    3    3    0    0  0.32517134531E+01  0.61707325053E+00 -0.42092365145E+01  0.53546327674E+01  0.51100000000E-03 0. -1.
        -11    1    3    3    0    0  0.18903782400E+02 -0.19082595638E+01  0.39231946652E+02  0.43590596256E+02  0.51100000000E-03 0.  1.
        -12    1    3    3    0    0 -0.10254923659E+01 -0.11483105335E+01 -0.37107335331E+00  0.15836499321E+01  0.00000000000E+00 0.  1.
</event>
<event>
 7    1  0.6136531E-013  0.5052887E+02  0.7816164E-02  0.1300439E+00
        -11   -1    0    0    0    0  0.00000000000E+00  0.00000000000E+00  0.45593999997E+02  0.45594000000E+02  0.51100000000E-03 0.  1.
         11   -1    0    0    0    0 -0.00000000000E+00 -0.00000000000E+00 -0.45593999997E+02  0.45594000000E+02  0.51100000000E-03 0. -1.
    9900012    2    1    2    0    0 -0.30715096586E+02 -0.24463864891E+02  0.10548313122E+02  0.50528871216E+02  0.30000034549E+02 0.  0.
         12    1    1    2    0    0  0.30715096586E+02  0.24463864891E+02 -0.10548313122E+02  0.40659128784E+02  0.00000000000E+00 0. -1.
         11    1    3    3    0    0 -0.20886101327E+01 -0.91355169213E+01 -0.18306422355E+01  0.95483617946E+01  0.51100000000E-03 0. -1.
        -11    1    3    3    0    0 -0.91052772535E+01  0.50033161104E+01  0.52326412527E+00  0.10402550244E+02  0.51100000000E-03 0.  1.
        -12    1    3    3    0    0 -0.19521209200E+02 -0.20331664080E+02  0.11855691232E+02  0.30577959178E+02  0.00000000000E+00 0.  1.
</event>
<event>
 7    1  0.6136531E-013  0.5052879E+02  0.7816164E-02  0.1300439E+00
        -11   -1    0    0    0    0  0.00000000000E+00  0.00000000000E+00  0.45593999997E+02  0.45594000000E+02  0.51100000000E-03 0.  1.
         11   -1    0    0    0    0 -0.00000000000E+00 -0.00000000000E+00 -0.45593999997E+02  0.45594000000E+02  0.51100000000E-03 0. -1.
    9900012    2    1    2    0    0  0.58107787754E+01  0.35294807672E+02  0.19330884838E+02  0.50528785704E+02  0.29999774625E+02 0.  0.
         12    1    1    2    0    0 -0.58107787754E+01 -0.35294807672E+02 -0.19330884838E+02  0.40659214296E+02  0.00000000000E+00 0. -1.
         11    1    3    3    0    0  0.21597277403E+01  0.10330753880E+02  0.93876456390E+01  0.14125041258E+02  0.51100000000E-03 0.  1.
        -11    1    3    3    0    0 -0.61870438725E+01  0.23410917798E+02  0.33165532062E+01  0.24440746908E+02  0.51100000000E-03 0. -1.
        -12    1    3    3    0    0  0.98380949076E+01  0.15531359941E+01  0.66266859930E+01  0.11962997537E+02  0.00000000000E+00 0.  1.
</event>
<event>
 7    1  0.6136531E-013  0.5052885E+02  0.7816164E-02  0.1300439E+00
        -11   -1    0    0    0    0  0.00000000000E+00  0.00000000000E+00  0.45593999997E+02  0.45594000000E+02  0.51100000000E-03 0. -1.
         11   -1    0    0    0    0 -0.00000000000E+00 -0.00000000000E+00 -0.45593999997E+02  0.45594000000E+02  0.51100000000E-03 0.  1.
    9900012    2    1    2    0    0  0.27615516554E+02 -0.18121064941E+02 -0.23710263793E+02  0.50528851481E+02  0.29999974562E+02 0.  0.
         12    1    1    2    0    0 -0.27615516554E+02  0.18121064941E+02  0.23710263793E+02  0.40659148519E+02  0.00000000000E+00 0. -1.
         11    1    3    3    0    0  0.11485241876E+01 -0.93953509199E+01  0.35024757646E+01  0.10092525128E+02  0.51100000000E-03 0. -1.
        -11    1    3    3    0    0  0.10279558415E+02 -0.43896111312E+01 -0.18330936702E+02  0.21470008098E+02  0.51100000000E-03 0.  1.
        -12    1    3    3    0    0  0.16187433951E+02 -0.43361028903E+01 -0.88818028557E+01  0.18966318255E+02  0.00000000000E+00 0.  1.
</event>
<event>
 7    1  0.6136531E-013  0.5052886E+02  0.7816164E-02  0.1300439E+00
        -11   -1    0    0    0    0  0.00000000000E+00  0.00000000000E+00  0.45593999997E+02  0.45594000000E+02  0.51100000000E-03 0. -1.
         11   -1    0    0    0    0 -0.00000000000E+00 -0.00000000000E+00 -0.45593999997E+02  0.45594000000E+02  0.51100000000E-03 0.  1.
    9900012    2    1    2    0    0 -0.26537126850E+02 -0.29933179969E+02 -0.72767537141E+01  0.50528861924E+02  0.30000006304E+02 0.  0.
         12    1    1    2    0    0  0.26537126850E+02  0.29933179969E+02  0.72767537141E+01  0.40659138076E+02  0.00000000000E+00 0. -1.
         11    1    3    3    0    0 -0.80229976891E+00  0.24293584292E+01  0.55331851250E+01  0.60960319213E+01  0.51100000000E-03 0. -1.
        -11    1    3    3    0    0 -0.54535452808E+01 -0.64327451391E+01 -0.70953640946E+01  0.11021141413E+02  0.51100000000E-03 0.  1.
         12    1    3    3    0    0 -0.20281281800E+02 -0.25929793259E+02 -0.57145747445E+01  0.33411688589E+02  0.00000000000E+00 0. -1.
</event>
<event>
 7    1  0.6136531E-013  0.5052890E+02  0.7816164E-02  0.1300439E+00
        -11   -1    0    0    0    0  0.00000000000E+00  0.00000000000E+00  0.45593999997E+02  0.45594000000E+02  0.51100000000E-03 0. -1.
         11   -1    0    0    0    0 -0.00000000000E+00 -0.00000000000E+00 -0.45593999997E+02  0.45594000000E+02  0.51100000000E-03 0.  1.
    9900012    2    1    2    0    0 -0.12550816762E+02  0.11209382644E+02 -0.37013359373E+02  0.50528904674E+02  0.30000136248E+02 0.  0.
         12    1    1    2    0    0  0.12550816762E+02 -0.11209382644E+02  0.37013359373E+02  0.40659095326E+02  0.00000000000E+00 0. -1.
         11    1    3    3    0    0 -0.81814331022E+01 -0.75086398771E+01 -0.58241656331E+01  0.12539394961E+02  0.51100000000E-03 0. -1.
        -11    1    3    3    0    0  0.19758347467E+01  0.11318047100E+02 -0.12973428485E+02  0.17329511246E+02  0.51100000000E-03 0.  1.
         12    1    3    3    0    0 -0.63452184066E+01  0.73999754205E+01 -0.18215765255E+02  0.20659998467E+02  0.00000000000E+00 0. -1.
</event>
<event>
 7    1  0.6136531E-013  0.5052886E+02  0.7816164E-02  0.1300439E+00
        -11   -1    0    0    0    0  0.00000000000E+00  0.00000000000E+00  0.45593999997E+02  0.45594000000E+02  0.51100000000E-03 0. -1.
         11   -1    0    0    0    0 -0.00000000000E+00 -0.00000000000E+00 -0.45593999997E+02  0.45594000000E+02  0.51100000000E-03 0.  1.
    9900012    2    1    2    0    0 -0.40032737887E+02 -0.59125693952E+01  0.39480263000E+01  0.50528862144E+02  0.30000006972E+02 0.  0.
         12    1    1    2    0    0  0.40032737887E+02  0.59125693952E+01 -0.39480263000E+01  0.40659137856E+02  0.00000000000E+00 0. -1.
         11    1    3    3    0    0 -0.10271659093E+02  0.26719713376E+01  0.21384260772E+01  0.10826785197E+02  0.51100000000E-03 0. -1.
        -11    1    3    3    0    0 -0.11128659039E+02 -0.24447363754E+01 -0.11347415690E+02  0.16080660156E+02  0.51100000000E-03 0.  1.
        -12    1    3    3    0    0 -0.18632419755E+02 -0.61398043574E+01  0.13157015913E+02  0.23621416791E+02  0.00000000000E+00 0.  1.
</event>
<event>
 7    1  0.6136531E-013  0.5052886E+02  0.7816164E-02  0.1300439E+00
        -11   -1    0    0    0    0  0.00000000000E+00  0.00000000000E+00  0.45593999997E+02  0.45594000000E+02  0.51100000000E-03 0. -1.
         11   -1    0    0    0    0 -0.00000000000E+00 -0.00000000000E+00 -0.45593999997E+02  0.45594000000E+02  0.51100000000E-03 0.  1.
    9900012    2    1    2    0    0  0.92257925857E+01 -0.31388090062E+02 -0.24142034324E+02  0.50528864890E+02  0.30000015320E+02 0.  0.
         12    1    1    2    0    0 -0.92257925857E+01  0.31388090062E+02  0.24142034324E+02  0.40659135110E+02  0.00000000000E+00 0. -1.
         11    1    3    3    0    0 -0.76048240144E+01 -0.53587101470E+01 -0.45389392187E+00  0.93142440747E+01  0.51100000000E-03 0. -1.
        -11    1    3    3    0    0  0.12738217651E+02 -0.11839356295E+02 -0.65303282636E+01  0.18576268029E+02  0.51100000000E-03 0.  1.
         12    1    3    3    0    0  0.40923989495E+01 -0.14190023620E+02 -0.17157812138E+02  0.22638352786E+02  0.00000000000E+00 0. -1.
</event>
<event>
 7    1  0.6136531E-013  0.5052886E+02  0.7816164E-02  0.1300439E+00
        -11   -1    0    0    0    0  0.00000000000E+00  0.00000000000E+00  0.45593999997E+02  0.45594000000E+02  0.51100000000E-03 0.  1.
         11   -1    0    0    0    0 -0.00000000000E+00 -0.00000000000E+00 -0.45593999997E+02  0.45594000000E+02  0.51100000000E-03 0. -1.
    9900012    2    1    2    0    0  0.32327056180E+02  0.48427269703E+01  0.24180061045E+02  0.50528856897E+02  0.29999991023E+02 0.  0.
         12    1    1    2    0    0 -0.32327056180E+02 -0.48427269703E+01 -0.24180061045E+02  0.40659143103E+02  0.00000000000E+00 0. -1.
         11    1    3    3    0    0  0.40159393352E+01  0.42131886288E+01  0.14131295531E+02  0.15283070398E+02  0.51100000000E-03 0. -1.
        -11    1    3    3    0    0  0.23577675411E+02 -0.71383717435E+01  0.64648385881E+01  0.25468750797E+02  0.51100000000E-03 0.  1.
        -12    1    3    3    0    0  0.47334414342E+01  0.77679100850E+01  0.35839269259E+01  0.97770357016E+01  0.00000000000E+00 0.  1.
</event>
<event>
 7    1  0.6136531E-013  0.5052886E+02  0.7816164E-02  0.1300439E+00
        -11   -1    0    0    0    0  0.00000000000E+00  0.00000000000E+00  0.45593999997E+02  0.45594000000E+02  0.51100000000E-03 0.  1.
         11   -1    0    0    0    0 -0.00000000000E+00 -0.00000000000E+00 -0.45593999997E+02  0.45594000000E+02  0.51100000000E-03 0. -1.
    9900012    2    1    2    0    0  0.10438389266E+02 -0.18136776403E+02  0.34860620759E+02  0.50528861932E+02  0.30000006327E+02 0.  0.
         12    1    1    2    0    0 -0.10438389266E+02  0.18136776403E+02 -0.34860620759E+02  0.40659138068E+02  0.00000000000E+00 0. -1.
         11    1    3    3    0    0  0.79355153669E+01 -0.66576080859E+00  0.65492181256E+01  0.10310572240E+02  0.51100000000E-03 0. -1.
        -11    1    3    3    0    0 -0.64024575754E+01 -0.16269154033E+02  0.25275646009E+02  0.30733290052E+02  0.51100000000E-03 0.  1.
        -12    1    3    3    0    0  0.89053314748E+01 -0.12018615611E+01  0.30357566241E+01  0.94849996399E+01  0.00000000000E+00 0.  1.
</event>
<event>
 7    1  0.6136531E-013  0.5052883E+02  0.7816164E-02  0.1300439E+00
        -11   -1    0    0    0    0  0.00000000000E+00  0.00000000000E+00  0.45593999997E+02  0.45594000000E+02  0.51100000000E-03 0. -1.
         11   -1    0    0    0    0 -0.00000000000E+00 -0.00000000000E+00 -0.45593999997E+02  0.45594000000E+02  0.51100000000E-03 0.  1.
    9900012    2    1    2    0    0  0.34921319951E+02 -0.17409265462E+02  0.11427474546E+02  0.50528827781E+02  0.29999902523E+02 0.  0.
         12    1    1    2    0    0 -0.34921319951E+02  0.17409265462E+02 -0.11427474546E+02  0.40659172219E+02  0.00000000000E+00 0. -1.
         11    1    3    3    0    0  0.33309807564E+01  0.18285342210E+01  0.92285848780E+00  0.39103245705E+01  0.51100000000E-03 0. -1.
        -11    1    3    3    0    0 -0.10743053165E+01 -0.11513615807E+02  0.50267790116E+01  0.12608964603E+02  0.51100000000E-03 0.  1.
        -12    1    3    3    0    0  0.32664644511E+02 -0.77241838759E+01  0.54778370462E+01  0.34009538608E+02  0.00000000000E+00 0.  1.
</event>
<event>
 7    1  0.6136531E-013  0.5052886E+02  0.7816164E-02  0.1300439E+00
        -11   -1    0    0    0    0  0.00000000000E+00  0.00000000000E+00  0.45593999997E+02  0.45594000000E+02  0.51100000000E-03 0.  1.
         11   -1    0    0    0    0 -0.00000000000E+00 -0.00000000000E+00 -0.45593999997E+02  0.45594000000E+02  0.51100000000E-03 0. -1.
    9900012    2    1    2    0    0 -0.13497052090E+02 -0.19634450266E-01  0.38353551439E+02  0.50528859471E+02  0.29999998847E+02 0.  0.
         12    1    1    2    0    0  0.13497052090E+02  0.19634450266E-01 -0.38353551439E+02  0.40659140529E+02  0.00000000000E+00 0. -1.
         11    1    3    3    0    0 -0.10537929166E+02  0.54083469811E+00  0.47174105044E+00  0.10562338433E+02  0.51100000000E-03 0. -1.
        -11    1    3    3    0    0  0.92890586756E+00 -0.56689886417E+01  0.23909735219E+02  0.24590155283E+02  0.51100000000E-03 0.  1.
         12    1    3    3    0    0 -0.38880287914E+01  0.51085194934E+01  0.13972075169E+02  0.15376365755E+02  0.00000000000E+00 0. -1.
</event>
<event>
 7    1  0.6136531E-013  0.5052887E+02  0.7816164E-02  0.1300439E+00
        -11   -1    0    0    0    0  0.00000000000E+00  0.00000000000E+00  0.45593999997E+02  0.45594000000E+02  0.51100000000E-03 0.  1.
         11   -1    0    0    0    0 -0.00000000000E+00 -0.00000000000E+00 -0.45593999997E+02  0.45594000000E+02  0.51100000000E-03 0. -1.
    9900012    2    1    2    0    0 -0.36562040522E+02  0.67082389415E+00  0.17774488062E+02  0.50528865261E+02  0.30000016448E+02 0.  0.
         12    1    1    2    0    0  0.36562040522E+02 -0.67082389415E+00 -0.17774488062E+02  0.40659134739E+02  0.00000000000E+00 0. -1.
         11    1    3    3    0    0 -0.18597960862E+02 -0.66130976129E+01  0.71518917069E+01  0.20994446015E+02  0.51100000000E-03 0. -1.
        -11    1    3    3    0    0 -0.96446887951E+01  0.28444954551E+01  0.15836526313E+02  0.18759177548E+02  0.51100000000E-03 0.  1.
         12    1    3    3    0    0 -0.83193908653E+01  0.44394260519E+01 -0.52139299581E+01  0.10775241698E+02  0.00000000000E+00 0. -1.
</event>
<event>
 7    1  0.6136531E-013  0.5052886E+02  0.7816164E-02  0.1300439E+00
        -11   -1    0    0    0    0  0.00000000000E+00  0.00000000000E+00  0.45593999997E+02  0.45594000000E+02  0.51100000000E-03 0. -1.
         11   -1    0    0    0    0 -0.00000000000E+00 -0.00000000000E+00 -0.45593999997E+02  0.45594000000E+02  0.51100000000E-03 0.  1.
    9900012    2    1    2    0    0 -0.20863413894E+02  0.78633760059E+01 -0.34000746170E+02  0.50528862507E+02  0.30000008077E+02 0.  0.
         12    1    1    2    0    0  0.20863413894E+02 -0.78633760059E+01  0.34000746170E+02  0.40659137493E+02  0.00000000000E+00 0. -1.
         11    1    3    3    0    0 -0.16490067393E+02  0.70063556023E+01 -0.26294356710E+02  0.31818305053E+02  0.51100000000E-03 0.  1.
        -11    1    3    3    0    0 -0.25821247320E+00 -0.76063308263E+01 -0.39832244116E+01  0.85900535094E+01  0.51100000000E-03 0. -1.
        -12    1    3    3    0    0 -0.41151340285E+01  0.84633512298E+01 -0.37231650487E+01  0.10120503945E+02  0.00000000000E+00 0.  1.
</event>
<event>
 7    1  0.6136531E-013  0.5052889E+02  0.7816164E-02  0.1300439E+00
        -11   -1    0    0    0    0  0.00000000000E+00  0.00000000000E+00  0.45593999997E+02  0.45594000000E+02  0.51100000000E-03 0.  1.
         11   -1    0    0    0    0 -0.00000000000E+00 -0.00000000000E+00 -0.45593999997E+02  0.45594000000E+02  0.51100000000E-03 0. -1.
    9900012    2    1    2    0    0  0.84730188014E+01  0.57595204203E+01  0.39347161414E+02  0.50528889897E+02  0.30000091330E+02 0.  0.
         12    1    1    2    0    0 -0.84730188014E+01 -0.57595204203E+01 -0.39347161414E+02  0.40659110103E+02  0.00000000000E+00 0. -1.
         11    1    3    3    0    0 -0.17246983099E+01  0.14912168258E+02  0.13072580217E+02  0.19905770525E+02  0.51100000000E-03 0. -1.
        -11    1    3    3    0    0  0.25170941882E+01 -0.55313235183E+01  0.16974563588E+02  0.18029617641E+02  0.51100000000E-03 0.  1.
         12    1    3    3    0    0  0.76806229231E+01 -0.36213243195E+01  0.93000176087E+01  0.12593501731E+02  0.00000000000E+00 0. -1.
</event>
<event>
 7    1  0.6136531E-013  0.5052883E+02  0.7816164E-02  0.1300439E+00
        -11   -1    0    0    0    0  0.00000000000E+00  0.00000000000E+00  0.45593999997E+02  0.45594000000E+02  0.51100000000E-03 0.  1.
         11   -1    0    0    0    0 -0.00000000000E+00 -0.00000000000E+00 -0.45593999997E+02  0.45594000000E+02  0.51100000000E-03 0. -1.
    9900012    2    1    2    0    0  0.35819719912E+02  0.18856918374E+02  0.38121134349E+01  0.50528832350E+02  0.29999916410E+02 0.  0.
         12    1    1    2    0    0 -0.35819719912E+02 -0.18856918374E+02 -0.38121134349E+01  0.40659167650E+02  0.00000000000E+00 0. -1.
         11    1    3    3    0    0 -0.45355375458E+00  0.61113039805E+00  0.82408023977E+00  0.11217396643E+01  0.51100000000E-03 0. -1.
        -11    1    3    3    0    0  0.11508375849E+02  0.24551756279E+01 -0.11677750072E+02  0.16578312612E+02  0.51100000000E-03 0.  1.
        -12    1    3    3    0    0  0.24764897818E+02  0.15790612348E+02  0.14665783267E+02  0.32828780074E+02  0.00000000000E+00 0.  1.
</event>
<event>
 7    1  0.6136531E-013  0.5052890E+02  0.7816164E-02  0.1300439E+00
        -11   -1    0    0    0    0  0.00000000000E+00  0.00000000000E+00  0.45593999997E+02  0.45594000000E+02  0.51100000000E-03 0.  1.
         11   -1    0    0    0    0 -0.00000000000E+00 -0.00000000000E+00 -0.45593999997E+02  0.45594000000E+02  0.51100000000E-03 0. -1.
    9900012    2    1    2    0    0  0.10164578707E+02 -0.11234745406E+02  0.37730950146E+02  0.50528895687E+02  0.30000108931E+02 0.  0.
         12    1    1    2    0    0 -0.10164578707E+02  0.11234745406E+02 -0.37730950146E+02  0.40659104313E+02  0.00000000000E+00 0. -1.
         11    1    3    3    0    0  0.99279593652E+01  0.10837560073E+01  0.76901975206E+01  0.12604683352E+02  0.51100000000E-03 0. -1.
        -11    1    3    3    0    0 -0.20260050948E+01 -0.87667684544E+01  0.32027825390E+02  0.33267740009E+02  0.51100000000E-03 0.  1.
        -12    1    3    3    0    0  0.22626244364E+01 -0.35517329592E+01 -0.19870727655E+01  0.46564723266E+01  0.00000000000E+00 0.  1.
</event>
<event>
 7    1  0.6136531E-013  0.5052887E+02  0.7816164E-02  0.1300439E+00
        -11   -1    0    0    0    0  0.00000000000E+00  0.00000000000E+00  0.45593999997E+02  0.45594000000E+02  0.51100000000E-03 0.  1.
         11   -1    0    0    0    0 -0.00000000000E+00 -0.00000000000E+00 -0.45593999997E+02  0.45594000000E+02  0.51100000000E-03 0. -1.
    9900012    2    1    2    0    0 -0.15188289008E+02  0.26559692511E+02  0.26778037195E+02  0.50528872301E+02  0.30000037845E+02 0.  0.
         12    1    1    2    0    0  0.15188289008E+02 -0.26559692511E+02 -0.26778037195E+02  0.40659127699E+02  0.00000000000E+00 0. -1.
         11    1    3    3    0    0 -0.40828563701E+01  0.33206149149E+01 -0.36170068449E+01  0.63858388900E+01  0.51100000000E-03 0. -1.
        -11    1    3    3    0    0  0.33862348470E+01  0.14235432808E+02  0.17151334657E+02  0.22545119525E+02  0.51100000000E-03 0.  1.
        -12    1    3    3    0    0 -0.14491667485E+02  0.90036447890E+01  0.13243709383E+02  0.21597913885E+02  0.00000000000E+00 0.  1.
</event>
<event>
 7    1  0.6136531E-013  0.5052886E+02  0.7816164E-02  0.1300439E+00
        -11   -1    0    0    0    0  0.00000000000E+00  0.00000000000E+00  0.45593999997E+02  0.45594000000E+02  0.51100000000E-03 0.  1.
         11   -1    0    0    0    0 -0.00000000000E+00 -0.00000000000E+00 -0.45593999997E+02  0.45594000000E+02  0.51100000000E-03 0. -1.
    9900012    2    1    2    0    0 -0.18110675391E+01  0.26560336707E+01  0.40531856521E+02  0.50528857443E+02  0.29999992683E+02 0.  0.
         12    1    1    2    0    0  0.18110675391E+01 -0.26560336707E+01 -0.40531856521E+02  0.40659142557E+02  0.00000000000E+00 0. -1.
         11    1    3    3    0    0  0.11804788933E+01 -0.21952210073E+01 -0.94677536568E+00  0.26662538407E+01  0.51100000000E-03 0. -1.
        -11    1    3    3    0    0  0.12590076035E+01  0.48735899405E-01  0.41429887865E+02  0.41449042016E+02  0.51100000000E-03 0.  1.
        -12    1    3    3    0    0 -0.42505540360E+01  0.48025187786E+01  0.48744021512E-01  0.64135615855E+01  0.00000000000E+00 0.  1.
</event>
<event>
 7    1  0.6136531E-013  0.5052886E+02  0.7816164E-02  0.1300439E+00
        -11   -1    0    0    0    0  0.00000000000E+00  0.00000000000E+00  0.45593999997E+02  0.45594000000E+02  0.51100000000E-03 0. -1.
         11   -1    0    0    0    0 -0.00000000000E+00 -0.00000000000E+00 -0.45593999997E+02  0.45594000000E+02  0.51100000000E-03 0.  1.
    9900012    2    1    2    0    0 -0.35031812183E+01 -0.11046124191E+01 -0.40492880479E+02  0.50528858141E+02  0.29999994806E+02 0.  0.
         12    1    1    2    0    0  0.35031812183E+01  0.11046124191E+01  0.40492880479E+02  0.40659141859E+02  0.00000000000E+00 0. -1.
         11    1    3    3    0    0  0.89495701141E+01  0.51673940392E+01 -0.23873954126E+02  0.26014658412E+02  0.51100000000E-03 0. -1.
        -11    1    3    3    0    0 -0.85077918362E+01  0.15434458885E+01 -0.11448011990E+02  0.14346488278E+02  0.51100000000E-03 0.  1.
         12    1    3    3    0    0 -0.39449594962E+01 -0.78154523468E+01 -0.51709143627E+01  0.10167711451E+02  0.00000000000E+00 0. -1.
</event>
<event>
 7    1  0.6136531E-013  0.5052886E+02  0.7816164E-02  0.1300439E+00
        -11   -1    0    0    0    0  0.00000000000E+00  0.00000000000E+00  0.45593999997E+02  0.45594000000E+02  0.51100000000E-03 0.  1.
         11   -1    0    0    0    0 -0.00000000000E+00 -0.00000000000E+00 -0.45593999997E+02  0.45594000000E+02  0.51100000000E-03 0. -1.
    9900012    2    1    2    0    0  0.21274671735E+00  0.84039261175E+01  0.39780580843E+02  0.50528857761E+02  0.29999993651E+02 0.  0.
         12    1    1    2    0    0 -0.21274671735E+00 -0.84039261175E+01 -0.39780580843E+02  0.40659142239E+02  0.00000000000E+00 0. -1.
         11    1    3    3    0    0 -0.99866682343E+01  0.13477833855E+02  0.17890908698E+02  0.24524888626E+02  0.51100000000E-03 0. -1.
        -11    1    3    3    0    0  0.63167417468E+01 -0.29894107348E+01  0.20042020633E+02  0.21225465700E+02  0.51100000000E-03 0.  1.
         12    1    3    3    0    0  0.38826732049E+01 -0.20844970027E+01  0.18476515121E+01  0.47785034352E+01  0.00000000000E+00 0. -1.
</event>
<event>
 7    1  0.6136531E-013  0.5052886E+02  0.7816164E-02  0.1300439E+00
        -11   -1    0    0    0    0  0.00000000000E+00  0.00000000000E+00  0.45593999997E+02  0.45594000000E+02  0.51100000000E-03 0.  1.
         11   -1    0    0    0    0 -0.00000000000E+00 -0.00000000000E+00 -0.45593999997E+02  0.45594000000E+02  0.51100000000E-03 0. -1.
    9900012    2    1    2    0    0 -0.32834733201E+02  0.63934528465E+01  0.23112112415E+02  0.50528859773E+02  0.29999999767E+02 0.  0.
         12    1    1    2    0    0  0.32834733201E+02 -0.63934528465E+01 -0.23112112415E+02  0.40659140227E+02  0.00000000000E+00 0. -1.
         11    1    3    3    0    0 -0.30727246018E+02  0.71216599955E+01  0.86645912432E+01  0.32710194598E+02  0.51100000000E-03 0. -1.
        -11    1    3    3    0    0 -0.53739542023E+01 -0.26906333923E+01  0.11590386228E+02  0.13055877795E+02  0.51100000000E-03 0.  1.
         12    1    3    3    0    0  0.32664670190E+01  0.19624262433E+01  0.28571349441E+01  0.47627873809E+01  0.00000000000E+00 0. -1.
</event>
<event>
 7    1  0.6136531E-013  0.5052886E+02  0.7816164E-02  0.1300439E+00
        -11   -1    0    0    0    0  0.00000000000E+00  0.00000000000E+00  0.45593999997E+02  0.45594000000E+02  0.51100000000E-03 0.  1.
         11   -1    0    0    0    0 -0.00000000000E+00 -0.00000000000E+00 -0.45593999997E+02  0.45594000000E+02  0.51100000000E-03 0. -1.
    9900012    2    1    2    0    0 -0.12923390827E+02 -0.21555596981E+02 -0.31961036702E+02  0.50528860084E+02  0.30000000710E+02 0.  0.
         12    1    1    2    0    0  0.12923390827E+02  0.21555596981E+02  0.31961036702E+02  0.40659139916E+02  0.00000000000E+00 0. -1.
         11    1    3    3    0    0  0.39525930304E+01 -0.70589727742E+01 -0.11318206538E+02  0.13912364565E+02  0.51100000000E-03 0. -1.
        -11    1    3    3    0    0 -0.14938368140E+02 -0.17424129761E+02 -0.93362329984E+01  0.24777416884E+02  0.51100000000E-03 0.  1.
        -12    1    3    3    0    0 -0.19376157174E+01  0.29275055542E+01 -0.11306597166E+02  0.11839078634E+02  0.00000000000E+00 0.  1.
</event>
<event>
 7    1  0.6136531E-013  0.5052885E+02  0.7816164E-02  0.1300439E+00
        -11   -1    0    0    0    0  0.00000000000E+00  0.00000000000E+00  0.45593999997E+02  0.45594000000E+02  0.51100000000E-03 0. -1.
         11   -1    0    0    0    0 -0.00000000000E+00 -0.00000000000E+00 -0.45593999997E+02  0.45594000000E+02  0.51100000000E-03 0.  1.
    9900012    2    1    2    0    0 -0.16192608615E+02 -0.34397599396E+02  0.14414255580E+02  0.50528853650E+02  0.29999981156E+02 0.  0.
         12    1    1    2    0    0  0.16192608615E+02  0.34397599396E+02 -0.14414255580E+02  0.40659146350E+02  0.00000000000E+00 0. -1.
         11    1    3    3    0    0  0.21414056396E+01 -0.85955615564E+00 -0.39620518139E+01  0.45850092404E+01  0.51100000000E-03 0. -1.
        -11    1    3    3    0    0 -0.16313945817E+02 -0.11719354100E+02  0.10446888818E+02  0.22641236161E+02  0.51100000000E-03 0.  1.
        -12    1    3    3    0    0 -0.20200684379E+01 -0.21818689140E+02  0.79294185753E+01  0.23302608249E+02  0.00000000000E+00 0.  1.
</event>
<event>
 7    1  0.6136531E-013  0.5052886E+02  0.7816164E-02  0.1300439E+00
        -11   -1    0    0    0    0  0.00000000000E+00  0.00000000000E+00  0.45593999997E+02  0.45594000000E+02  0.51100000000E-03 0. -1.
         11   -1    0    0    0    0 -0.00000000000E+00 -0.00000000000E+00 -0.45593999997E+02  0.45594000000E+02  0.51100000000E-03 0.  1.
    9900012    2    1    2    0    0 -0.13648562788E+02 -0.28769999944E+02  0.25281798090E+02  0.50528862311E+02  0.30000007481E+02 0.  0.
         12    1    1    2    0    0  0.13648562788E+02  0.28769999944E+02 -0.25281798090E+02  0.40659137689E+02  0.00000000000E+00 0. -1.
         11    1    3    3    0    0  0.61309520598E+01 -0.71096284741E+01  0.29769714508E+01  0.98487435482E+01  0.51100000000E-03 0. -1.
        -11    1    3    3    0    0 -0.12510465728E+02 -0.22780772210E+02  0.20513826408E+02  0.33110306694E+02  0.51100000000E-03 0.  1.
         12    1    3    3    0    0 -0.72690491202E+01  0.11204007406E+01  0.17910002316E+01  0.75698120690E+01  0.00000000000E+00 0. -1.
</event>
<event>
 7    1  0.6136531E-013  0.5052884E+02  0.7816164E-02  0.1300439E+00
        -11   -1    0    0    0    0  0.00000000000E+00  0.00000000000E+00  0.45593999997E+02  0.45594000000E+02  0.51100000000E-03 0.  1.
         11   -1    0    0    0    0 -0.00000000000E+00 -0.00000000000E+00 -0.45593999997E+02  0.45594000000E+02  0.51100000000E-03 0. -1.
    9900012    2    1    2    0    0  0.10285979577E+02 -0.38778416160E+02  0.66030513715E+01  0.50528840846E+02  0.29999942235E+02 0.  0.
         12    1    1    2    0    0 -0.10285979577E+02  0.38778416160E+02 -0.66030513715E+01  0.40659159154E+02  0.00000000000E+00 0. -1.
         11    1    3    3    0    0  0.69612589944E+01 -0.76016190346E+01 -0.75343109351E+01  0.12767520521E+02  0.51100000000E-03 0. -1.
        -11    1    3    3    0    0  0.15018367208E+01 -0.14307193385E+02  0.14984663940E+02  0.20772372271E+02  0.51100000000E-03 0.  1.
        -12    1    3    3    0    0  0.18228838614E+01 -0.16869603740E+02 -0.84730163315E+00  0.16988948054E+02  0.00000000000E+00 0.  1.
</event>
<event>
 7    1  0.6136531E-013  0.5052886E+02  0.7816164E-02  0.1300439E+00
        -11   -1    0    0    0    0  0.00000000000E+00  0.00000000000E+00  0.45593999997E+02  0.45594000000E+02  0.51100000000E-03 0.  1.
         11   -1    0    0    0    0 -0.00000000000E+00 -0.00000000000E+00 -0.45593999997E+02  0.45594000000E+02  0.51100000000E-03 0. -1.
    9900012    2    1    2    0    0  0.16189707369E+02 -0.27634150017E+02  0.25048203365E+02  0.50528863712E+02  0.30000011739E+02 0.  0.
         12    1    1    2    0    0 -0.16189707369E+02  0.27634150017E+02 -0.25048203365E+02  0.40659136288E+02  0.00000000000E+00 0. -1.
         11    1    3    3    0    0  0.44504267797E+00 -0.26563892667E+02  0.14274926484E+02  0.30159774253E+02  0.51100000000E-03 0. -1.
        -11    1    3    3    0    0  0.58217710601E+01 -0.23447375595E+01  0.76360270437E+01  0.98843169603E+01  0.51100000000E-03 0.  1.
         12    1    3    3    0    0  0.99228936305E+01  0.12744802094E+01  0.31372498380E+01  0.10484772499E+02  0.00000000000E+00 0. -1.
</event>
<event>
 7    1  0.6136531E-013  0.5052886E+02  0.7816164E-02  0.1300439E+00
        -11   -1    0    0    0    0  0.00000000000E+00  0.00000000000E+00  0.45593999997E+02  0.45594000000E+02  0.51100000000E-03 0.  1.
         11   -1    0    0    0    0 -0.00000000000E+00 -0.00000000000E+00 -0.45593999997E+02  0.45594000000E+02  0.51100000000E-03 0. -1.
    9900012    2    1    2    0    0  0.19709652223E+02  0.17881969613E+02  0.30739723121E+02  0.50528858278E+02  0.29999995222E+02 0.  0.
         12    1    1    2    0    0 -0.19709652223E+02 -0.17881969613E+02 -0.30739723121E+02  0.40659141722E+02  0.00000000000E+00 0. -1.
         11    1    3    3    0    0  0.70081402146E+01 -0.33062078498E+01  0.16236297062E+02  0.17990619283E+02  0.51100000000E-03 0. -1.
        -11    1    3    3    0    0  0.15034001174E+02  0.12403231404E+02  0.12725700659E+02  0.23276700756E+02  0.51100000000E-03 0.  1.
         12    1    3    3    0    0 -0.23324891655E+01  0.87849460589E+01  0.17777254001E+01  0.92615382396E+01  0.00000000000E+00 0. -1.
</event>
<event>
 7    1  0.6136531E-013  0.5052886E+02  0.7816164E-02  0.1300439E+00
        -11   -1    0    0    0    0  0.00000000000E+00  0.00000000000E+00  0.45593999997E+02  0.45594000000E+02  0.51100000000E-03 0.  1.
         11   -1    0    0    0    0 -0.00000000000E+00 -0.00000000000E+00 -0.45593999997E+02  0.45594000000E+02  0.51100000000E-03 0. -1.
    9900012    2    1    2    0    0 -0.48940897225E+01  0.24097691183E+02  0.32380782269E+02  0.50528857179E+02  0.29999991882E+02 0.  0.
         12    1    1    2    0    0  0.48940897225E+01 -0.24097691183E+02 -0.32380782269E+02  0.40659142821E+02  0.00000000000E+00 0. -1.
         11    1    3    3    0    0 -0.66959746406E+00  0.24925560620E+02  0.15822624535E+02  0.29531125621E+02  0.51100000000E-03 0. -1.
        -11    1    3    3    0    0 -0.49649566447E+01  0.24607440437E+01  0.16728592074E+02  0.17622481345E+02  0.51100000000E-03 0.  1.
         12    1    3    3    0    0  0.74046438629E+00 -0.32886134812E+01 -0.17043433929E+00  0.33752502129E+01  0.00000000000E+00 0. -1.
</event>
<event>
 7    1  0.6136531E-013  0.5052883E+02  0.7816164E-02  0.1300439E+00
        -11   -1    0    0    0    0  0.00000000000E+00  0.00000000000E+00  0.45593999997E+02  0.45594000000E+02  0.51100000000E-03 0. -1.
         11   -1    0    0    0    0 -0.00000000000E+00 -0.00000000000E+00 -0.45593999997E+02  0.45594000000E+02  0.51100000000E-03 0.  1.
    9900012    2    1    2    0    0 -0.26330890034E+02  0.26371758642E+02 -0.16259856423E+02  0.50528826930E+02  0.29999899936E+02 0.  0.
         12    1    1    2    0    0  0.26330890034E+02 -0.26371758642E+02  0.16259856423E+02  0.40659173070E+02  0.00000000000E+00 0. -1.
         11    1    3    3    0    0  0.31281313690E+01  0.11486455452E+01 -0.68801883049E+00  0.34026405368E+01  0.51100000000E-03 0. -1.
        -11    1    3    3    0    0 -0.17490714340E+02  0.10674224441E+02 -0.19039284387E+02  0.27970672244E+02  0.51100000000E-03 0.  1.
        -12    1    3    3    0    0 -0.11968307063E+02  0.14548888655E+02  0.34674467941E+01  0.19155514149E+02  0.00000000000E+00 0.  1.
</event>
<event>
 7    1  0.6136531E-013  0.5052886E+02  0.7816164E-02  0.1300439E+00
        -11   -1    0    0    0    0  0.00000000000E+00  0.00000000000E+00  0.45593999997E+02  0.45594000000E+02  0.51100000000E-03 0.  1.
         11   -1    0    0    0    0 -0.00000000000E+00 -0.00000000000E+00 -0.45593999997E+02  0.45594000000E+02  0.51100000000E-03 0. -1.
    9900012    2    1    2    0    0  0.18866590809E+01  0.29485169490E+02  0.27932617602E+02  0.50528857997E+02  0.29999994368E+02 0.  0.
         12    1    1    2    0    0 -0.18866590809E+01 -0.29485169490E+02 -0.27932617602E+02  0.40659142003E+02  0.00000000000E+00 0. -1.
         11    1    3    3    0    0  0.80604415689E+01  0.26763540693E+02  0.12568540167E+02  0.30646794791E+02  0.51100000000E-03 0. -1.
        -11    1    3    3    0    0 -0.29305330882E+01  0.12573892207E+00  0.15451003058E+02  0.15726961887E+02  0.51100000000E-03 0.  1.
        -12    1    3    3    0    0 -0.32432493998E+01  0.25958898744E+01 -0.86925623367E-01  0.41551013192E+01  0.00000000000E+00 0.  1.
</event>
<event>
 7    1  0.6136531E-013  0.5052885E+02  0.7816164E-02  0.1300439E+00
        -11   -1    0    0    0    0  0.00000000000E+00  0.00000000000E+00  0.45593999997E+02  0.45594000000E+02  0.51100000000E-03 0. -1.
         11   -1    0    0    0    0 -0.00000000000E+00 -0.00000000000E+00 -0.45593999997E+02  0.45594000000E+02  0.51100000000E-03 0.  1.
    9900012    2    1    2    0    0  0.40451473693E+02  0.37051436128E+01 -0.17655055779E+01  0.50528845765E+02  0.29999957187E+02 0.  0.
         12    1    1    2    0    0 -0.40451473693E+02 -0.37051436128E+01  0.17655055779E+01  0.40659154235E+02  0.00000000000E+00 0. -1.
         11    1    3    3    0    0 -0.40046327297E+00 -0.33146982700E+01 -0.62399736236E+01  0.70770662381E+01  0.51100000000E-03 0. -1.
        -11    1    3    3    0    0  0.36877445268E+02  0.60328733566E+01 -0.25064781985E-01  0.37367661941E+02  0.51100000000E-03 0.  1.
         12    1    3    3    0    0  0.39744916981E+01  0.98696852608E+00  0.44995328277E+01  0.60841175858E+01  0.00000000000E+00 0. -1.
</event>
<event>
 7    1  0.6136531E-013  0.5052887E+02  0.7816164E-02  0.1300439E+00
        -11   -1    0    0    0    0  0.00000000000E+00  0.00000000000E+00  0.45593999997E+02  0.45594000000E+02  0.51100000000E-03 0. -1.
         11   -1    0    0    0    0 -0.00000000000E+00 -0.00000000000E+00 -0.45593999997E+02  0.45594000000E+02  0.51100000000E-03 0.  1.
    9900012    2    1    2    0    0 -0.31658451268E+00  0.36251687872E+02 -0.18408695082E+02  0.50528866291E+02  0.30000019578E+02 0.  0.
         12    1    1    2    0    0  0.31658451268E+00 -0.36251687872E+02  0.18408695082E+02  0.40659133709E+02  0.00000000000E+00 0. -1.
         11    1    3    3    0    0 -0.22524294207E+01 -0.84170077226E+00  0.42581198599E+01  0.48901414589E+01  0.51100000000E-03 0. -1.
        -11    1    3    3    0    0  0.23575356235E+01  0.36337198073E+02 -0.24309078347E+02  0.43782202187E+02  0.51100000000E-03 0.  1.
        -12    1    3    3    0    0 -0.42169071547E+00  0.75619057161E+00  0.16422634049E+01  0.18565226450E+01  0.00000000000E+00 0.  1.
</event>
<event>
 7    1  0.6136531E-013  0.5052892E+02  0.7816164E-02  0.1300439E+00
        -11   -1    0    0    0    0  0.00000000000E+00  0.00000000000E+00  0.45593999997E+02  0.45594000000E+02  0.51100000000E-03 0.  1.
         11   -1    0    0    0    0 -0.00000000000E+00 -0.00000000000E+00 -0.45593999997E+02  0.45594000000E+02  0.51100000000E-03 0. -1.
    9900012    2    1    2    0    0 -0.10877689923E+02 -0.16888766966E+02  0.35349767382E+02  0.50528921780E+02  0.30000188242E+02 0.  0.
         12    1    1    2    0    0  0.10877689923E+02  0.16888766966E+02 -0.35349767382E+02  0.40659078220E+02  0.00000000000E+00 0. -1.
         11    1    3    3    0    0 -0.18736447247E+02 -0.13204603704E+02  0.19862535016E+02  0.30330451891E+02  0.51100000000E-03 0.  1.
        -11    1    3    3    0    0  0.74114803694E+01 -0.47562572428E+01  0.60366447862E+01  0.10676755348E+02  0.51100000000E-03 0. -1.
        -12    1    3    3    0    0  0.44727695456E+00  0.10720939801E+01  0.94505875805E+01  0.95217145406E+01  0.00000000000E+00 0.  1.
</event>
<event>
 7    1  0.6136531E-013  0.5052882E+02  0.7816164E-02  0.1300439E+00
        -11   -1    0    0    0    0  0.00000000000E+00  0.00000000000E+00  0.45593999997E+02  0.45594000000E+02  0.51100000000E-03 0. -1.
         11   -1    0    0    0    0 -0.00000000000E+00 -0.00000000000E+00 -0.45593999997E+02  0.45594000000E+02  0.51100000000E-03 0.  1.
    9900012    2    1    2    0    0 -0.21261790753E+02 -0.27238334913E+02 -0.21428445500E+02  0.50528820084E+02  0.29999879128E+02 0.  0.
         12    1    1    2    0    0  0.21261790753E+02  0.27238334913E+02  0.21428445500E+02  0.40659179916E+02  0.00000000000E+00 0. -1.
         11    1    3    3    0    0 -0.78405269917E+00 -0.16283448623E+02  0.64556584024E+00  0.16315090966E+02  0.51100000000E-03 0. -1.
        -11    1    3    3    0    0 -0.97118812717E+01 -0.86890050414E+01 -0.51163628935E+01  0.13999879141E+02  0.51100000000E-03 0.  1.
         12    1    3    3    0    0 -0.10765856782E+02 -0.22658812487E+01 -0.16957648446E+02  0.20213849978E+02  0.00000000000E+00 0. -1.
</event>
<event>
 7    1  0.6136531E-013  0.5052886E+02  0.7816164E-02  0.1300439E+00
        -11   -1    0    0    0    0  0.00000000000E+00  0.00000000000E+00  0.45593999997E+02  0.45594000000E+02  0.51100000000E-03 0.  1.
         11   -1    0    0    0    0 -0.00000000000E+00 -0.00000000000E+00 -0.45593999997E+02  0.45594000000E+02  0.51100000000E-03 0. -1.
    9900012    2    1    2    0    0  0.35356715128E+02 -0.63600360749E+01  0.19042530008E+02  0.50528864339E+02  0.30000013646E+02 0.  0.
         12    1    1    2    0    0 -0.35356715128E+02  0.63600360749E+01 -0.19042530008E+02  0.40659135661E+02  0.00000000000E+00 0. -1.
         11    1    3    3    0    0 -0.91483542025E+00 -0.63587226415E-02 -0.46330857016E+01  0.47225467344E+01  0.51100000000E-03 0. -1.
        -11    1    3    3    0    0  0.15172210705E+02  0.22454911942E+01  0.14920684132E+02  0.21397780811E+02  0.51100000000E-03 0.  1.
         12    1    3    3    0    0  0.21099339843E+02 -0.85991685464E+01  0.87549315780E+01  0.24408536794E+02  0.00000000000E+00 0. -1.
</event>
<event>
 7    1  0.6136531E-013  0.5052886E+02  0.7816164E-02  0.1300439E+00
        -11   -1    0    0    0    0  0.00000000000E+00  0.00000000000E+00  0.45593999997E+02  0.45594000000E+02  0.51100000000E-03 0.  1.
         11   -1    0    0    0    0 -0.00000000000E+00 -0.00000000000E+00 -0.45593999997E+02  0.45594000000E+02  0.51100000000E-03 0. -1.
    9900012    2    1    2    0    0  0.16301298180E+02  0.28542686187E+02 -0.23932167764E+02  0.50528856981E+02  0.29999991280E+02 0.  0.
         12    1    1    2    0    0 -0.16301298180E+02 -0.28542686187E+02  0.23932167764E+02  0.40659143019E+02  0.00000000000E+00 0. -1.
         11    1    3    3    0    0  0.63778088004E+01 -0.19566150113E+01 -0.78395811122E+01  0.10293872919E+02  0.51100000000E-03 0. -1.
        -11    1    3    3    0    0  0.25311079485E+01  0.26668577397E+02 -0.17201208798E+02  0.31835532228E+02  0.51100000000E-03 0.  1.
        -12    1    3    3    0    0  0.73923814313E+01  0.38307238007E+01  0.11086221457E+01  0.83994518348E+01  0.00000000000E+00 0.  1.
</event>
<event>
 7    1  0.6136531E-013  0.5052886E+02  0.7816164E-02  0.1300439E+00
        -11   -1    0    0    0    0  0.00000000000E+00  0.00000000000E+00  0.45593999997E+02  0.45594000000E+02  0.51100000000E-03 0.  1.
         11   -1    0    0    0    0 -0.00000000000E+00 -0.00000000000E+00 -0.45593999997E+02  0.45594000000E+02  0.51100000000E-03 0. -1.
    9900012    2    1    2    0    0 -0.13978326842E+02 -0.12853123558E+02  0.35952324755E+02  0.50528855127E+02  0.29999985645E+02 0.  0.
         12    1    1    2    0    0  0.13978326842E+02  0.12853123558E+02 -0.35952324755E+02  0.40659144873E+02  0.00000000000E+00 0. -1.
         11    1    3    3    0    0 -0.52648951068E+01  0.80657127486E+01  0.13679985866E+02  0.16730715950E+02  0.51100000000E-03 0. -1.
        -11    1    3    3    0    0 -0.10810345579E+02 -0.13435053993E+02  0.12430174608E+02  0.21257316114E+02  0.51100000000E-03 0.  1.
         12    1    3    3    0    0  0.20969138439E+01 -0.74837823131E+01  0.98421642809E+01  0.12540823064E+02  0.00000000000E+00 0. -1.
</event>
<event>
 7    1  0.6136531E-013  0.5052886E+02  0.7816164E-02  0.1300439E+00
        -11   -1    0    0    0    0  0.00000000000E+00  0.00000000000E+00  0.45593999997E+02  0.45594000000E+02  0.51100000000E-03 0. -1.
         11   -1    0    0    0    0 -0.00000000000E+00 -0.00000000000E+00 -0.45593999997E+02  0.45594000000E+02  0.51100000000E-03 0.  1.
    9900012    2    1    2    0    0 -0.13720585561E+00  0.40585462947E+02 -0.24427750664E+01  0.50528858616E+02  0.29999996248E+02 0.  0.
         12    1    1    2    0    0  0.13720585561E+00 -0.40585462947E+02  0.24427750664E+01  0.40659141384E+02  0.00000000000E+00 0. -1.
         11    1    3    3    0    0 -0.53253835976E+01  0.53188460961E+01 -0.71094334586E+01  0.10353447668E+02  0.51100000000E-03 0.  1.
        -11    1    3    3    0    0  0.71315247911E+01  0.24833669977E+02  0.10702887458E+02  0.27966437216E+02  0.51100000000E-03 0. -1.
         12    1    3    3    0    0 -0.19433470491E+01  0.10432946874E+02 -0.60362290659E+01  0.12208973731E+02  0.00000000000E+00 0. -1.
</event>
<event>
 7    1  0.6136531E-013  0.5052883E+02  0.7816164E-02  0.1300439E+00
        -11   -1    0    0    0    0  0.00000000000E+00  0.00000000000E+00  0.45593999997E+02  0.45594000000E+02  0.51100000000E-03 0.  1.
         11   -1    0    0    0    0 -0.00000000000E+00 -0.00000000000E+00 -0.45593999997E+02  0.45594000000E+02  0.51100000000E-03 0. -1.
    9900012    2    1    2    0    0 -0.27815939227E+02  0.14372938401E+02  0.25939549098E+02  0.50528830791E+02  0.29999911673E+02 0.  0.
         12    1    1    2    0    0  0.27815939227E+02 -0.14372938401E+02 -0.25939549098E+02  0.40659169209E+02  0.00000000000E+00 0. -1.
         11    1    3    3    0    0 -0.24631525179E+02  0.20929042020E+02  0.27214055137E+02  0.42253303181E+02  0.51100000000E-03 0. -1.
        -11    1    3    3    0    0 -0.17751852850E+01 -0.39911492083E+01  0.11026419131E+01  0.45051497476E+01  0.51100000000E-03 0.  1.
         12    1    3    3    0    0 -0.14092287634E+01 -0.25649544113E+01 -0.23771479517E+01  0.37703778622E+01  0.00000000000E+00 0. -1.
</event>
<event>
 7    1  0.6136531E-013  0.5052885E+02  0.7816164E-02  0.1300439E+00
        -11   -1    0    0    0    0  0.00000000000E+00  0.00000000000E+00  0.45593999997E+02  0.45594000000E+02  0.51100000000E-03 0.  1.
         11   -1    0    0    0    0 -0.00000000000E+00 -0.00000000000E+00 -0.45593999997E+02  0.45594000000E+02  0.51100000000E-03 0. -1.
    9900012    2    1    2    0    0  0.21040434986E+02  0.24754635742E+01  0.34703581895E+02  0.50528850715E+02  0.29999972232E+02 0.  0.
         12    1    1    2    0    0 -0.21040434986E+02 -0.24754635742E+01 -0.34703581895E+02  0.40659149285E+02  0.00000000000E+00 0. -1.
         11    1    3    3    0    0  0.21759833449E+02  0.28230125576E+01  0.11369436847E+02  0.24712827562E+02  0.51100000000E-03 0. -1.
        -11    1    3    3    0    0  0.24625840281E+01 -0.22894194570E+01  0.21311106452E+02  0.21574731054E+02  0.51100000000E-03 0.  1.
         12    1    3    3    0    0 -0.31819824914E+01  0.19418704736E+01  0.20230385955E+01  0.42412920992E+01  0.00000000000E+00 0. -1.
</event>
<event>
 7    1  0.6136531E-013  0.5052886E+02  0.7816164E-02  0.1300439E+00
        -11   -1    0    0    0    0  0.00000000000E+00  0.00000000000E+00  0.45593999997E+02  0.45594000000E+02  0.51100000000E-03 0. -1.
         11   -1    0    0    0    0 -0.00000000000E+00 -0.00000000000E+00 -0.45593999997E+02  0.45594000000E+02  0.51100000000E-03 0.  1.
    9900012    2    1    2    0    0 -0.21372360684E+02  0.11359724054E+02 -0.32670236891E+02  0.50528861909E+02  0.30000006258E+02 0.  0.
         12    1    1    2    0    0  0.21372360684E+02 -0.11359724054E+02  0.32670236891E+02  0.40659138091E+02  0.00000000000E+00 0. -1.
         11    1    3    3    0    0 -0.42424850543E+01 -0.27126068979E+01 -0.22621564688E+02  0.23175247676E+02  0.51100000000E-03 0. -1.
        -11    1    3    3    0    0 -0.16071546379E+02  0.69888510218E+01 -0.39928932518E+01  0.17974477417E+02  0.51100000000E-03 0.  1.
        -12    1    3    3    0    0 -0.10583292505E+01  0.70834799298E+01 -0.60557789512E+01  0.93791368166E+01  0.00000000000E+00 0.  1.
</event>
<event>
 7    1  0.6136531E-013  0.5052886E+02  0.7816164E-02  0.1300439E+00
        -11   -1    0    0    0    0  0.00000000000E+00  0.00000000000E+00  0.45593999997E+02  0.45594000000E+02  0.51100000000E-03 0. -1.
         11   -1    0    0    0    0 -0.00000000000E+00 -0.00000000000E+00 -0.45593999997E+02  0.45594000000E+02  0.51100000000E-03 0.  1.
    9900012    2    1    2    0    0 -0.68066041130E+01 -0.16121473855E+02 -0.36700599518E+02  0.50528858546E+02  0.29999996037E+02 0.  0.
         12    1    1    2    0    0  0.68066041130E+01  0.16121473855E+02  0.36700599518E+02  0.40659141454E+02  0.00000000000E+00 0. -1.
         11    1    3    3    0    0  0.33018622694E+01 -0.10929962527E+02 -0.42984216432E+01  0.12200114924E+02  0.51100000000E-03 0.  1.
        -11    1    3    3    0    0  0.13016843034E+01  0.31218878297E+01 -0.17411083822E+02  0.17736583824E+02  0.51100000000E-03 0. -1.
         12    1    3    3    0    0 -0.11410150686E+02 -0.83133991578E+01 -0.14991094053E+02  0.20592159798E+02  0.00000000000E+00 0. -1.
</event>
<event>
 7    1  0.6136531E-013  0.5052886E+02  0.7816164E-02  0.1300439E+00
        -11   -1    0    0    0    0  0.00000000000E+00  0.00000000000E+00  0.45593999997E+02  0.45594000000E+02  0.51100000000E-03 0.  1.
         11   -1    0    0    0    0 -0.00000000000E+00 -0.00000000000E+00 -0.45593999997E+02  0.45594000000E+02  0.51100000000E-03 0. -1.
    9900012    2    1    2    0    0 -0.26398359225E+02  0.30615735781E+02  0.43553094210E+01  0.50528863667E+02  0.30000011601E+02 0.  0.
         12    1    1    2    0    0  0.26398359225E+02 -0.30615735781E+02 -0.43553094210E+01  0.40659136333E+02  0.00000000000E+00 0. -1.
         11    1    3    3    0    0 -0.59936878589E+01 -0.51503818643E+00 -0.69034700812E+00  0.60552570330E+01  0.51100000000E-03 0. -1.
        -11    1    3    3    0    0 -0.12964525893E+02  0.29326397086E+02  0.11896520658E+02  0.34200054119E+02  0.51100000000E-03 0.  1.
        -12    1    3    3    0    0 -0.74401454731E+01  0.18043768819E+01 -0.68508642292E+01  0.10273552515E+02  0.00000000000E+00 0.  1.
</event>
<event>
 7    1  0.6136531E-013  0.5052886E+02  0.7816164E-02  0.1300439E+00
        -11   -1    0    0    0    0  0.00000000000E+00  0.00000000000E+00  0.45593999997E+02  0.45594000000E+02  0.51100000000E-03 0. -1.
         11   -1    0    0    0    0 -0.00000000000E+00 -0.00000000000E+00 -0.45593999997E+02  0.45594000000E+02  0.51100000000E-03 0.  1.
    9900012    2    1    2    0    0 -0.40075910264E+02 -0.67033483215E+01  0.14669073717E+01  0.50528864748E+02  0.30000014887E+02 0.  0.
         12    1    1    2    0    0  0.40075910264E+02  0.67033483215E+01 -0.14669073717E+01  0.40659135252E+02  0.00000000000E+00 0. -1.
         11    1    3    3    0    0 -0.34606038702E+02  0.61447275111E+01  0.43818986600E+01  0.35419438547E+02  0.51100000000E-03 0. -1.
        -11    1    3    3    0    0 -0.47393420710E+01 -0.49999958718E+01 -0.71542753445E+00  0.69262658628E+01  0.51100000000E-03 0.  1.
         12    1    3    3    0    0 -0.73052949085E+00 -0.78480799607E+01 -0.21995637539E+01  0.81831603378E+01  0.00000000000E+00 0. -1.
</event>
<event>
 7    1  0.6136531E-013  0.5052886E+02  0.7816164E-02  0.1300439E+00
        -11   -1    0    0    0    0  0.00000000000E+00  0.00000000000E+00  0.45593999997E+02  0.45594000000E+02  0.51100000000E-03 0.  1.
         11   -1    0    0    0    0 -0.00000000000E+00 -0.00000000000E+00 -0.45593999997E+02  0.45594000000E+02  0.51100000000E-03 0. -1.
    9900012    2    1    2    0    0 -0.49656433308E+01  0.14510689436E+02  0.37655654466E+02  0.50528855458E+02  0.29999986650E+02 0.  0.
         12    1    1    2    0    0  0.49656433308E+01 -0.14510689436E+02 -0.37655654466E+02  0.40659144542E+02  0.00000000000E+00 0. -1.
         11    1    3    3    0    0  0.36063356402E+01  0.19138624203E+01  0.39631521161E+01  0.56899122199E+01  0.51100000000E-03 0. -1.
        -11    1    3    3    0    0 -0.14958457895E+02  0.85855011880E+01  0.33037863957E+02  0.37268844205E+02  0.51100000000E-03 0.  1.
        -12    1    3    3    0    0  0.63864789241E+01  0.40113258280E+01  0.65463839299E+00  0.75700990332E+01  0.00000000000E+00 0.  1.
</event>
<event>
 7    1  0.6136531E-013  0.5052886E+02  0.7816164E-02  0.1300439E+00
        -11   -1    0    0    0    0  0.00000000000E+00  0.00000000000E+00  0.45593999997E+02  0.45594000000E+02  0.51100000000E-03 0.  1.
         11   -1    0    0    0    0 -0.00000000000E+00 -0.00000000000E+00 -0.45593999997E+02  0.45594000000E+02  0.51100000000E-03 0. -1.
    9900012    2    1    2    0    0  0.38215058414E+02  0.63476353396E+01  0.12348367982E+02  0.50528863809E+02  0.30000012034E+02 0.  0.
         12    1    1    2    0    0 -0.38215058414E+02 -0.63476353396E+01 -0.12348367982E+02  0.40659136191E+02  0.00000000000E+00 0. -1.
         11    1    3    3    0    0  0.11166653451E+02 -0.67279901495E-01 -0.88208149130E+01  0.14230441029E+02  0.51100000000E-03 0. -1.
        -11    1    3    3    0    0  0.15446164880E+02  0.34354471088E+01  0.58919468545E+01  0.16884944310E+02  0.51100000000E-03 0.  1.
         12    1    3    3    0    0  0.11602240082E+02  0.29794681323E+01  0.15277236041E+02  0.19413478470E+02  0.00000000000E+00 0. -1.
</event>
<event>
 7    1  0.6136531E-013  0.5052887E+02  0.7816164E-02  0.1300439E+00
        -11   -1    0    0    0    0  0.00000000000E+00  0.00000000000E+00  0.45593999997E+02  0.45594000000E+02  0.51100000000E-03 0. -1.
         11   -1    0    0    0    0 -0.00000000000E+00 -0.00000000000E+00 -0.45593999997E+02  0.45594000000E+02  0.51100000000E-03 0.  1.
    9900012    2    1    2    0    0  0.24241643311E+02  0.11548554461E+02 -0.30530938066E+02  0.50528873599E+02  0.30000041791E+02 0.  0.
         12    1    1    2    0    0 -0.24241643311E+02 -0.11548554461E+02  0.30530938066E+02  0.40659126401E+02  0.00000000000E+00 0. -1.
         11    1    3    3    0    0  0.47985413373E+01  0.93916339120E+01  0.23300817134E+01  0.10800836428E+02  0.51100000000E-03 0. -1.
        -11    1    3    3    0    0  0.49532611186E+01  0.47529706439E+01 -0.15592042671E+02  0.17036352913E+02  0.51100000000E-03 0.  1.
         12    1    3    3    0    0  0.14489840855E+02 -0.25960500948E+01 -0.17268977108E+02  0.22691684257E+02  0.00000000000E+00 0. -1.
</event>
<event>
 7    1  0.6136531E-013  0.5052885E+02  0.7816164E-02  0.1300439E+00
        -11   -1    0    0    0    0  0.00000000000E+00  0.00000000000E+00  0.45593999997E+02  0.45594000000E+02  0.51100000000E-03 0. -1.
         11   -1    0    0    0    0 -0.00000000000E+00 -0.00000000000E+00 -0.45593999997E+02  0.45594000000E+02  0.51100000000E-03 0.  1.
    9900012    2    1    2    0    0 -0.82513356220E+01  0.37154911030E+02 -0.14303646728E+02  0.50528852654E+02  0.29999978127E+02 0.  0.
         12    1    1    2    0    0  0.82513356220E+01 -0.37154911030E+02  0.14303646728E+02  0.40659147346E+02  0.00000000000E+00 0. -1.
         11    1    3    3    0    0  0.37381661781E+01  0.18238829066E+02  0.54727510013E+01  0.19405663500E+02  0.51100000000E-03 0. -1.
        -11    1    3    3    0    0 -0.11128696865E+02  0.15201260637E+02 -0.11660541058E+02  0.22156137680E+02  0.51100000000E-03 0.  1.
         12    1    3    3    0    0 -0.86080493465E+00  0.37148213262E+01 -0.81158566718E+01  0.89670514740E+01  0.00000000000E+00 0. -1.
</event>
<event>
 7    1  0.6136531E-013  0.5052898E+02  0.7816164E-02  0.1300438E+00
        -11   -1    0    0    0    0  0.00000000000E+00  0.00000000000E+00  0.45593999997E+02  0.45594000000E+02  0.51100000000E-03 0. -1.
         11   -1    0    0    0    0 -0.00000000000E+00 -0.00000000000E+00 -0.45593999997E+02  0.45594000000E+02  0.51100000000E-03 0.  1.
    9900012    2    1    2    0    0  0.11285729056E+02  0.19281874482E+02 -0.33970545057E+02  0.50528975229E+02  0.30000350705E+02 0.  0.
         12    1    1    2    0    0 -0.11285729056E+02 -0.19281874482E+02  0.33970545057E+02  0.40659024771E+02  0.00000000000E+00 0. -1.
         11    1    3    3    0    0  0.14751219905E+02  0.80125878400E+01 -0.19253094241E+02  0.25543721160E+02  0.51100000000E-03 0. -1.
        -11    1    3    3    0    0 -0.10919222602E+01  0.60142166213E+01  0.26673091811E+01  0.66691554427E+01  0.51100000000E-03 0.  1.
         12    1    3    3    0    0 -0.23735685887E+01  0.52550700205E+01 -0.17384759997E+02  0.18316098627E+02  0.00000000000E+00 0. -1.
</event>
<event>
 7    1  0.6136531E-013  0.5052886E+02  0.7816164E-02  0.1300439E+00
        -11   -1    0    0    0    0  0.00000000000E+00  0.00000000000E+00  0.45593999997E+02  0.45594000000E+02  0.51100000000E-03 0.  1.
         11   -1    0    0    0    0 -0.00000000000E+00 -0.00000000000E+00 -0.45593999997E+02  0.45594000000E+02  0.51100000000E-03 0. -1.
    9900012    2    1    2    0    0 -0.12973609160E+02  0.15375694457E+02  0.35333256768E+02  0.50528861439E+02  0.30000004830E+02 0.  0.
         12    1    1    2    0    0  0.12973609160E+02 -0.15375694457E+02 -0.35333256768E+02  0.40659138561E+02  0.00000000000E+00 0. -1.
         11    1    3    3    0    0  0.22008390362E+00 -0.54867945214E+01  0.78804706484E+01  0.96049554370E+01  0.51100000000E-03 0. -1.
        -11    1    3    3    0    0  0.55604164197E+00  0.13868153779E+02  0.18364579785E+02  0.23019397527E+02  0.51100000000E-03 0.  1.
        -12    1    3    3    0    0 -0.13749734706E+02  0.69943351994E+01  0.90882063344E+01  0.17904508475E+02  0.00000000000E+00 0.  1.
</event>
<event>
 7    1  0.6136531E-013  0.5052885E+02  0.7816164E-02  0.1300439E+00
        -11   -1    0    0    0    0  0.00000000000E+00  0.00000000000E+00  0.45593999997E+02  0.45594000000E+02  0.51100000000E-03 0.  1.
         11   -1    0    0    0    0 -0.00000000000E+00 -0.00000000000E+00 -0.45593999997E+02  0.45594000000E+02  0.51100000000E-03 0. -1.
    9900012    2    1    2    0    0 -0.26539917053E+02 -0.58807779392E+01  0.30236005132E+02  0.50528846631E+02  0.29999959820E+02 0.  0.
         12    1    1    2    0    0  0.26539917053E+02  0.58807779392E+01 -0.30236005132E+02  0.40659153369E+02  0.00000000000E+00 0. -1.
         11    1    3    3    0    0  0.44582792003E+01  0.18377291247E+01  0.41628243052E+01  0.63704480392E+01  0.51100000000E-03 0. -1.
        -11    1    3    3    0    0 -0.17635140075E+02 -0.10551561772E+02  0.21527528372E+02  0.29761856450E+02  0.51100000000E-03 0.  1.
         12    1    3    3    0    0 -0.13363056179E+02  0.28330547076E+01  0.45456524549E+01  0.14396542142E+02  0.00000000000E+00 0. -1.
</event>
<event>
 7    1  0.6136531E-013  0.5052886E+02  0.7816164E-02  0.1300439E+00
        -11   -1    0    0    0    0  0.00000000000E+00  0.00000000000E+00  0.45593999997E+02  0.45594000000E+02  0.51100000000E-03 0.  1.
         11   -1    0    0    0    0 -0.00000000000E+00 -0.00000000000E+00 -0.45593999997E+02  0.45594000000E+02  0.51100000000E-03 0. -1.
    9900012    2    1    2    0    0  0.27225959216E+02 -0.27358781920E+02  0.12783189235E+02  0.50528859202E+02  0.29999998032E+02 0.  0.
         12    1    1    2    0    0 -0.27225959216E+02  0.27358781920E+02 -0.12783189235E+02  0.40659140798E+02  0.00000000000E+00 0. -1.
         11    1    3    3    0    0  0.27222212638E+01  0.12613497502E+01 -0.46738823373E+01  0.55539776887E+01  0.51100000000E-03 0. -1.
        -11    1    3    3    0    0  0.27185718900E+02 -0.25637782032E+02  0.14966656028E+02  0.40253695142E+02  0.51100000000E-03 0.  1.
        -12    1    3    3    0    0 -0.26819809485E+01 -0.29823496382E+01  0.24904155439E+01  0.47211863715E+01  0.00000000000E+00 0.  1.
</event>
<event>
 7    1  0.6136531E-013  0.5052891E+02  0.7816164E-02  0.1300439E+00
        -11   -1    0    0    0    0  0.00000000000E+00  0.00000000000E+00  0.45593999997E+02  0.45594000000E+02  0.51100000000E-03 0.  1.
         11   -1    0    0    0    0 -0.00000000000E+00 -0.00000000000E+00 -0.45593999997E+02  0.45594000000E+02  0.51100000000E-03 0. -1.
    9900012    2    1    2    0    0 -0.40061540026E+02 -0.35353952087E+01  0.59779062925E+01  0.50528912797E+02  0.30000160937E+02 0.  0.
         12    1    1    2    0    0  0.40061540026E+02  0.35353952087E+01 -0.59779062925E+01  0.40659087203E+02  0.00000000000E+00 0. -1.
         11    1    3    3    0    0  0.13349472532E+01  0.61140736059E+01  0.30809910430E+01  0.69754201519E+01  0.51100000000E-03 0. -1.
        -11    1    3    3    0    0 -0.11498440690E+02 -0.25886295268E+00  0.40516070238E+01  0.12194124325E+02  0.51100000000E-03 0.  1.
         12    1    3    3    0    0 -0.29898046590E+02 -0.93906058619E+01 -0.11546917743E+01  0.31359368320E+02  0.00000000000E+00 0. -1.
</event>
<event>
 7    1  0.6136531E-013  0.5052880E+02  0.7816164E-02  0.1300439E+00
        -11   -1    0    0    0    0  0.00000000000E+00  0.00000000000E+00  0.45593999997E+02  0.45594000000E+02  0.51100000000E-03 0.  1.
         11   -1    0    0    0    0 -0.00000000000E+00 -0.00000000000E+00 -0.45593999997E+02  0.45594000000E+02  0.51100000000E-03 0. -1.
    9900012    2    1    2    0    0  0.26970317302E+02  0.11726512317E+02  0.28075991621E+02  0.50528801631E+02  0.29999823037E+02 0.  0.
         12    1    1    2    0    0 -0.26970317302E+02 -0.11726512317E+02 -0.28075991621E+02  0.40659198369E+02  0.00000000000E+00 0. -1.
         11    1    3    3    0    0 -0.12252686138E+01  0.56612592583E+00 -0.32371342959E+01  0.35072525501E+01  0.51100000000E-03 0. -1.
        -11    1    3    3    0    0  0.14106730978E+02  0.13717440482E+02  0.23703061795E+02  0.30805895069E+02  0.51100000000E-03 0.  1.
        -12    1    3    3    0    0  0.14088854938E+02 -0.25570540914E+01  0.76100641217E+01  0.16215654012E+02  0.00000000000E+00 0.  1.
</event>
<event>
 7    1  0.6136531E-013  0.5052885E+02  0.7816164E-02  0.1300439E+00
        -11   -1    0    0    0    0  0.00000000000E+00  0.00000000000E+00  0.45593999997E+02  0.45594000000E+02  0.51100000000E-03 0. -1.
         11   -1    0    0    0    0 -0.00000000000E+00 -0.00000000000E+00 -0.45593999997E+02  0.45594000000E+02  0.51100000000E-03 0.  1.
    9900012    2    1    2    0    0  0.35170434593E+02 -0.44016467456E+01 -0.19920647297E+02  0.50528854015E+02  0.29999982263E+02 0.  0.
         12    1    1    2    0    0 -0.35170434593E+02  0.44016467456E+01  0.19920647297E+02  0.40659145985E+02  0.00000000000E+00 0. -1.
         11    1    3    3    0    0  0.15382311597E+02 -0.25438811784E+00  0.46513475625E+01  0.16072188955E+02  0.51100000000E-03 0. -1.
        -11    1    3    3    0    0  0.19682786104E+02 -0.63210194346E+01 -0.17590842937E+02  0.27144154269E+02  0.51100000000E-03 0.  1.
        -12    1    3    3    0    0  0.10533689212E+00  0.21737608068E+01 -0.69811519224E+01  0.73125107910E+01  0.00000000000E+00 0.  1.
</event>
<event>
 7    1  0.6136531E-013  0.5052886E+02  0.7816164E-02  0.1300439E+00
        -11   -1    0    0    0    0  0.00000000000E+00  0.00000000000E+00  0.45593999997E+02  0.45594000000E+02  0.51100000000E-03 0. -1.
         11   -1    0    0    0    0 -0.00000000000E+00 -0.00000000000E+00 -0.45593999997E+02  0.45594000000E+02  0.51100000000E-03 0.  1.
    9900012    2    1    2    0    0  0.26605233431E+02  0.17823395260E+02 -0.25053020380E+02  0.50528859642E+02  0.29999999367E+02 0.  0.
         12    1    1    2    0    0 -0.26605233431E+02 -0.17823395260E+02  0.25053020380E+02  0.40659140358E+02  0.00000000000E+00 0. -1.
         11    1    3    3    0    0  0.11813212275E+01  0.52087673285E+00 -0.82320629009E+01  0.83326881785E+01  0.51100000000E-03 0. -1.
        -11    1    3    3    0    0  0.17327578039E+02  0.58019735663E+01  0.23453751987E+01  0.18423046519E+02  0.51100000000E-03 0.  1.
        -12    1    3    3    0    0  0.80963341650E+01  0.11500544961E+02 -0.19166332678E+02  0.23773124944E+02  0.00000000000E+00 0.  1.
</event>
<event>
 7    1  0.6136531E-013  0.5052885E+02  0.7816164E-02  0.1300439E+00
        -11   -1    0    0    0    0  0.00000000000E+00  0.00000000000E+00  0.45593999997E+02  0.45594000000E+02  0.51100000000E-03 0.  1.
         11   -1    0    0    0    0 -0.00000000000E+00 -0.00000000000E+00 -0.45593999997E+02  0.45594000000E+02  0.51100000000E-03 0. -1.
    9900012    2    1    2    0    0 -0.76782700357E+01 -0.21806902584E+02  0.33446513593E+02  0.50528854626E+02  0.29999984120E+02 0.  0.
         12    1    1    2    0    0  0.76782700357E+01  0.21806902584E+02 -0.33446513593E+02  0.40659145374E+02  0.00000000000E+00 0. -1.
         11    1    3    3    0    0 -0.89510887055E+01 -0.12848467081E+02  0.38731172687E+01  0.16130906143E+02  0.51100000000E-03 0. -1.
        -11    1    3    3    0    0 -0.35596790507E+01  0.24872265360E+01  0.12854687090E+02  0.13568367301E+02  0.51100000000E-03 0.  1.
         12    1    3    3    0    0  0.48324977205E+01 -0.11445662039E+02  0.16718709235E+02  0.20829581182E+02  0.00000000000E+00 0. -1.
</event>
<event>
 7    1  0.6136531E-013  0.5052886E+02  0.7816164E-02  0.1300439E+00
        -11   -1    0    0    0    0  0.00000000000E+00  0.00000000000E+00  0.45593999997E+02  0.45594000000E+02  0.51100000000E-03 0.  1.
         11   -1    0    0    0    0 -0.00000000000E+00 -0.00000000000E+00 -0.45593999997E+02  0.45594000000E+02  0.51100000000E-03 0. -1.
    9900012    2    1    2    0    0  0.18119609609E+02  0.30308153161E+02  0.20155928801E+02  0.50528857532E+02  0.29999992954E+02 0.  0.
         12    1    1    2    0    0 -0.18119609609E+02 -0.30308153161E+02 -0.20155928801E+02  0.40659142468E+02  0.00000000000E+00 0. -1.
         11    1    3    3    0    0  0.17473746690E+02  0.87082249561E+01  0.20753673561E+02  0.28493507538E+02  0.51100000000E-03 0. -1.
        -11    1    3    3    0    0 -0.70273961300E+00  0.71962213151E+01 -0.19969204388E+01  0.75011422917E+01  0.51100000000E-03 0.  1.
         12    1    3    3    0    0  0.13486025326E+01  0.14403706889E+02  0.13991756786E+01  0.14534207702E+02  0.00000000000E+00 0. -1.
</event>
<event>
 7    1  0.6136531E-013  0.5052885E+02  0.7816164E-02  0.1300439E+00
        -11   -1    0    0    0    0  0.00000000000E+00  0.00000000000E+00  0.45593999997E+02  0.45594000000E+02  0.51100000000E-03 0. -1.
         11   -1    0    0    0    0 -0.00000000000E+00 -0.00000000000E+00 -0.45593999997E+02  0.45594000000E+02  0.51100000000E-03 0.  1.
    9900012    2    1    2    0    0  0.40079428494E+02 -0.63190391632E+01  0.26222090625E+01  0.50528845745E+02  0.29999957126E+02 0.  0.
         12    1    1    2    0    0 -0.40079428494E+02  0.63190391632E+01 -0.26222090625E+01  0.40659154255E+02  0.00000000000E+00 0. -1.
         11    1    3    3    0    0  0.26722858153E+02 -0.21364868964E+00  0.14304707362E+02  0.30311407862E+02  0.51100000000E-03 0. -1.
        -11    1    3    3    0    0  0.12632242953E+02 -0.38973975349E+01 -0.69273365863E+01  0.14924853835E+02  0.51100000000E-03 0.  1.
         12    1    3    3    0    0  0.72432738902E+00 -0.22079929387E+01 -0.47551617132E+01  0.52925840477E+01  0.00000000000E+00 0. -1.
</event>
<event>
 7    1  0.6136531E-013  0.5052886E+02  0.7816164E-02  0.1300439E+00
        -11   -1    0    0    0    0  0.00000000000E+00  0.00000000000E+00  0.45593999997E+02  0.45594000000E+02  0.51100000000E-03 0.  1.
         11   -1    0    0    0    0 -0.00000000000E+00 -0.00000000000E+00 -0.45593999997E+02  0.45594000000E+02  0.51100000000E-03 0. -1.
    9900012    2    1    2    0    0  0.17452724056E+01  0.17375448287E+02  0.36718027449E+02  0.50528859347E+02  0.29999998470E+02 0.  0.
         12    1    1    2    0    0 -0.17452724056E+01 -0.17375448287E+02 -0.36718027449E+02  0.40659140653E+02  0.00000000000E+00 0. -1.
         11    1    3    3    0    0 -0.46493096111E+01 -0.27567368580E+01  0.55837814892E+00  0.54339179587E+01  0.51100000000E-03 0. -1.
        -11    1    3    3    0    0  0.87565246329E+01  0.16884469733E+02  0.16971428031E+02  0.25491006482E+02  0.51100000000E-03 0.  1.
         12    1    3    3    0    0 -0.23619426162E+01  0.32477154120E+01  0.19188221269E+02  0.19603934906E+02  0.00000000000E+00 0. -1.
</event>
<event>
 7    1  0.6136531E-013  0.5052886E+02  0.7816164E-02  0.1300439E+00
        -11   -1    0    0    0    0  0.00000000000E+00  0.00000000000E+00  0.45593999997E+02  0.45594000000E+02  0.51100000000E-03 0.  1.
         11   -1    0    0    0    0 -0.00000000000E+00 -0.00000000000E+00 -0.45593999997E+02  0.45594000000E+02  0.51100000000E-03 0. -1.
    9900012    2    1    2    0    0  0.85163320900E+01  0.39239834219E+02 -0.63931825238E+01  0.50528864685E+02  0.30000014697E+02 0.  0.
         12    1    1    2    0    0 -0.85163320900E+01 -0.39239834219E+02  0.63931825238E+01  0.40659135315E+02  0.00000000000E+00 0. -1.
         11    1    3    3    0    0  0.21887579333E+01  0.77077892084E+01 -0.10743676984E+02  0.13402509883E+02  0.51100000000E-03 0. -1.
        -11    1    3    3    0    0  0.23484780790E+01  0.86170325314E+01  0.97785271258E+01  0.13243420704E+02  0.51100000000E-03 0.  1.
        -12    1    3    3    0    0  0.39790960776E+01  0.22915012479E+02 -0.54280326655E+01  0.23882934098E+02  0.00000000000E+00 0.  1.
</event>
<event>
 7    1  0.6136531E-013  0.5052890E+02  0.7816164E-02  0.1300439E+00
        -11   -1    0    0    0    0  0.00000000000E+00  0.00000000000E+00  0.45593999997E+02  0.45594000000E+02  0.51100000000E-03 0.  1.
         11   -1    0    0    0    0 -0.00000000000E+00 -0.00000000000E+00 -0.45593999997E+02  0.45594000000E+02  0.51100000000E-03 0. -1.
    9900012    2    1    2    0    0  0.13753334963E+02 -0.29132994411E+02  0.24804782277E+02  0.50528895118E+02  0.30000107202E+02 0.  0.
         12    1    1    2    0    0 -0.13753334963E+02  0.29132994411E+02 -0.24804782277E+02  0.40659104882E+02  0.00000000000E+00 0. -1.
         11    1    3    3    0    0  0.13103763476E+02 -0.15823565557E+02 -0.10057692050E+01  0.20569526395E+02  0.51100000000E-03 0. -1.
        -11    1    3    3    0    0 -0.76775767569E+00 -0.13100777616E+02  0.19613799663E+02  0.23599172940E+02  0.51100000000E-03 0.  1.
         12    1    3    3    0    0  0.14173291628E+01 -0.20865123875E+00  0.61967518187E+01  0.63601957830E+01  0.00000000000E+00 0. -1.
</event>
<event>
 7    1  0.6136531E-013  0.5052886E+02  0.7816164E-02  0.1300439E+00
        -11   -1    0    0    0    0  0.00000000000E+00  0.00000000000E+00  0.45593999997E+02  0.45594000000E+02  0.51100000000E-03 0.  1.
         11   -1    0    0    0    0 -0.00000000000E+00 -0.00000000000E+00 -0.45593999997E+02  0.45594000000E+02  0.51100000000E-03 0. -1.
    9900012    2    1    2    0    0 -0.29757623341E+02  0.18464196289E+02  0.20657272921E+02  0.50528860609E+02  0.30000002306E+02 0.  0.
         12    1    1    2    0    0  0.29757623341E+02 -0.18464196289E+02 -0.20657272921E+02  0.40659139391E+02  0.00000000000E+00 0. -1.
         11    1    3    3    0    0 -0.14110157058E+02  0.23010426574E+02  0.14446127127E+02  0.30614814266E+02  0.51100000000E-03 0. -1.
        -11    1    3    3    0    0 -0.15232739884E+02 -0.57632544103E+01  0.76420515621E+01  0.17990342356E+02  0.51100000000E-03 0.  1.
         12    1    3    3    0    0 -0.41472639955E+00  0.12170241257E+01 -0.14309057682E+01  0.19237039862E+01  0.00000000000E+00 0. -1.
</event>
<event>
 7    1  0.6136531E-013  0.5052886E+02  0.7816164E-02  0.1300439E+00
        -11   -1    0    0    0    0  0.00000000000E+00  0.00000000000E+00  0.45593999997E+02  0.45594000000E+02  0.51100000000E-03 0.  1.
         11   -1    0    0    0    0 -0.00000000000E+00 -0.00000000000E+00 -0.45593999997E+02  0.45594000000E+02  0.51100000000E-03 0. -1.
    9900012    2    1    2    0    0 -0.11083369694E+02  0.22207175571E+02  0.32205066680E+02  0.50528855266E+02  0.29999986068E+02 0.  0.
         12    1    1    2    0    0  0.11083369694E+02 -0.22207175571E+02 -0.32205066680E+02  0.40659144734E+02  0.00000000000E+00 0. -1.
         11    1    3    3    0    0 -0.11447917522E+02 -0.69457315774E+00  0.54130892997E+01  0.12682223129E+02  0.51100000000E-03 0. -1.
        -11    1    3    3    0    0 -0.50962747393E+01  0.19404772235E+02  0.18245441837E+02  0.27118505670E+02  0.51100000000E-03 0.  1.
         12    1    3    3    0    0  0.54608225675E+01  0.34969764941E+01  0.85465355431E+01  0.10728126467E+02  0.00000000000E+00 0. -1.
</event>
<event>
 7    1  0.6136531E-013  0.5052884E+02  0.7816164E-02  0.1300439E+00
        -11   -1    0    0    0    0  0.00000000000E+00  0.00000000000E+00  0.45593999997E+02  0.45594000000E+02  0.51100000000E-03 0.  1.
         11   -1    0    0    0    0 -0.00000000000E+00 -0.00000000000E+00 -0.45593999997E+02  0.45594000000E+02  0.51100000000E-03 0. -1.
    9900012    2    1    2    0    0 -0.59866408199E+01  0.31197991473E+02  0.25377409447E+02  0.50528838049E+02  0.29999933735E+02 0.  0.
         12    1    1    2    0    0  0.59866408199E+01 -0.31197991473E+02 -0.25377409447E+02  0.40659161951E+02  0.00000000000E+00 0. -1.
         11    1    3    3    0    0  0.41165774110E+01  0.75069353932E+01  0.20316663755E+02  0.22046929831E+02  0.51100000000E-03 0. -1.
        -11    1    3    3    0    0 -0.66655270443E+01  0.11838461232E+02  0.80394989054E+01  0.15786448556E+02  0.51100000000E-03 0.  1.
         12    1    3    3    0    0 -0.34376911865E+01  0.11852594848E+02 -0.29787532129E+01  0.12695459662E+02  0.00000000000E+00 0. -1.
</event>
<event>
 7    1  0.6136531E-013  0.5052886E+02  0.7816164E-02  0.1300439E+00
        -11   -1    0    0    0    0  0.00000000000E+00  0.00000000000E+00  0.45593999997E+02  0.45594000000E+02  0.51100000000E-03 0.  1.
         11   -1    0    0    0    0 -0.00000000000E+00 -0.00000000000E+00 -0.45593999997E+02  0.45594000000E+02  0.51100000000E-03 0. -1.
    9900012    2    1    2    0    0 -0.37527809147E+02 -0.71439229769E+01  0.13920973336E+02  0.50528860886E+02  0.30000003149E+02 0.  0.
         12    1    1    2    0    0  0.37527809147E+02  0.71439229769E+01 -0.13920973336E+02  0.40659139114E+02  0.00000000000E+00 0. -1.
         11    1    3    3    0    0 -0.36573126991E+02 -0.13495006198E+02  0.66827934522E+01  0.39552099044E+02  0.51100000000E-03 0. -1.
        -11    1    3    3    0    0 -0.19164671492E+01  0.66792770016E+01  0.71279540497E+01  0.99545626119E+01  0.51100000000E-03 0.  1.
        -12    1    3    3    0    0  0.96178499329E+00 -0.32819378007E+00  0.11022583353E+00  0.10221992296E+01  0.00000000000E+00 0.  1.
</event>
<event>
 7    1  0.6136531E-013  0.5052892E+02  0.7816164E-02  0.1300439E+00
        -11   -1    0    0    0    0  0.00000000000E+00  0.00000000000E+00  0.45593999997E+02  0.45594000000E+02  0.51100000000E-03 0.  1.
         11   -1    0    0    0    0 -0.00000000000E+00 -0.00000000000E+00 -0.45593999997E+02  0.45594000000E+02  0.51100000000E-03 0. -1.
    9900012    2    1    2    0    0  0.21880968137E+02 -0.33214494778E+02  0.84368887002E+01  0.50528923265E+02  0.30000192756E+02 0.  0.
         12    1    1    2    0    0 -0.21880968137E+02  0.33214494778E+02 -0.84368887002E+01  0.40659076735E+02  0.00000000000E+00 0. -1.
         11    1    3    3    0    0  0.62461424080E+01 -0.12873577366E+02 -0.57209859099E-01  0.14308967902E+02  0.51100000000E-03 0. -1.
        -11    1    3    3    0    0 -0.45018136519E+01 -0.20827273941E+01 -0.39348319126E+01  0.63314281166E+01  0.51100000000E-03 0.  1.
        -12    1    3    3    0    0  0.20136639381E+02 -0.18258190018E+02  0.12428930472E+02  0.29888527247E+02  0.00000000000E+00 0.  1.
</event>
<event>
 7    1  0.6136531E-013  0.5052886E+02  0.7816164E-02  0.1300439E+00
        -11   -1    0    0    0    0  0.00000000000E+00  0.00000000000E+00  0.45593999997E+02  0.45594000000E+02  0.51100000000E-03 0. -1.
         11   -1    0    0    0    0 -0.00000000000E+00 -0.00000000000E+00 -0.45593999997E+02  0.45594000000E+02  0.51100000000E-03 0.  1.
    9900012    2    1    2    0    0  0.11503200648E+01 -0.17878644463E+02 -0.36499268523E+02  0.50528858755E+02  0.29999996672E+02 0.  0.
         12    1    1    2    0    0 -0.11503200648E+01  0.17878644463E+02  0.36499268523E+02  0.40659141245E+02  0.00000000000E+00 0. -1.
         11    1    3    3    0    0  0.38301973183E+01 -0.84666318326E+01  0.28410820917E+01  0.97173048629E+01  0.51100000000E-03 0. -1.
        -11    1    3    3    0    0 -0.14524575184E+01 -0.12657180347E+01 -0.14810194770E+02  0.14934977214E+02  0.51100000000E-03 0.  1.
         12    1    3    3    0    0 -0.12274197351E+01 -0.81462945953E+01 -0.24530155844E+02  0.25876576678E+02  0.00000000000E+00 0. -1.
</event>
<event>
 7    1  0.6136531E-013  0.5052886E+02  0.7816164E-02  0.1300439E+00
        -11   -1    0    0    0    0  0.00000000000E+00  0.00000000000E+00  0.45593999997E+02  0.45594000000E+02  0.51100000000E-03 0.  1.
         11   -1    0    0    0    0 -0.00000000000E+00 -0.00000000000E+00 -0.45593999997E+02  0.45594000000E+02  0.51100000000E-03 0. -1.
    9900012    2    1    2    0    0 -0.42325594297E+01  0.25184139582E+02  0.31638747628E+02  0.50528858380E+02  0.29999995532E+02 0.  0.
         12    1    1    2    0    0  0.42325594297E+01 -0.25184139582E+02 -0.31638747628E+02  0.40659141620E+02  0.00000000000E+00 0. -1.
         11    1    3    3    0    0 -0.64918145752E+01  0.24526913189E+02  0.10723438496E+02  0.27544604925E+02  0.51100000000E-03 0. -1.
        -11    1    3    3    0    0  0.36511317486E+01  0.30137019938E+01  0.19152219067E+02  0.19728676038E+02  0.51100000000E-03 0.  1.
         12    1    3    3    0    0 -0.13918766031E+01 -0.23564756012E+01  0.17630900656E+01  0.32555774168E+01  0.00000000000E+00 0. -1.
</event>
<event>
 7    1  0.6136531E-013  0.5052872E+02  0.7816164E-02  0.1300439E+00
        -11   -1    0    0    0    0  0.00000000000E+00  0.00000000000E+00  0.45593999997E+02  0.45594000000E+02  0.51100000000E-03 0.  1.
         11   -1    0    0    0    0 -0.00000000000E+00 -0.00000000000E+00 -0.45593999997E+02  0.45594000000E+02  0.51100000000E-03 0. -1.
    9900012    2    1    2    0    0  0.21047007434E+02 -0.22082956800E+02  0.26880175919E+02  0.50528716185E+02  0.29999563313E+02 0.  0.
         12    1    1    2    0    0 -0.21047007434E+02  0.22082956800E+02 -0.26880175919E+02  0.40659283815E+02  0.00000000000E+00 0. -1.
         11    1    3    3    0    0  0.92144388879E+01  0.44764738284E+01  0.14758501967E+02  0.17965469171E+02  0.51100000000E-03 0. -1.
        -11    1    3    3    0    0  0.88152217819E+01 -0.18179257605E+02  0.41835691322E+01  0.20632396687E+02  0.51100000000E-03 0.  1.
        -12    1    3    3    0    0  0.30173467638E+01 -0.83801730235E+01  0.79381048192E+01  0.11930850327E+02  0.00000000000E+00 0.  1.
</event>
<event>
 7    1  0.6136531E-013  0.5052886E+02  0.7816164E-02  0.1300439E+00
        -11   -1    0    0    0    0  0.00000000000E+00  0.00000000000E+00  0.45593999997E+02  0.45594000000E+02  0.51100000000E-03 0. -1.
         11   -1    0    0    0    0 -0.00000000000E+00 -0.00000000000E+00 -0.45593999997E+02  0.45594000000E+02  0.51100000000E-03 0.  1.
    9900012    2    1    2    0    0 -0.42688175605E+01  0.24554565177E+02 -0.32125007690E+02  0.50528860886E+02  0.30000003150E+02 0.  0.
         12    1    1    2    0    0  0.42688175605E+01 -0.24554565177E+02  0.32125007690E+02  0.40659139114E+02  0.00000000000E+00 0. -1.
         11    1    3    3    0    0  0.18401173304E+01  0.40174743304E+00  0.30408817525E+01  0.35769253394E+01  0.51100000000E-03 0. -1.
        -11    1    3    3    0    0  0.22013362861E+01  0.40802494015E+01 -0.19816737356E+02  0.20351840121E+02  0.51100000000E-03 0.  1.
        -12    1    3    3    0    0 -0.83102711770E+01  0.20072568342E+02 -0.15349152087E+02  0.26600095426E+02  0.00000000000E+00 0.  1.
</event>
<event>
 7    1  0.6136531E-013  0.5052886E+02  0.7816164E-02  0.1300439E+00
        -11   -1    0    0    0    0  0.00000000000E+00  0.00000000000E+00  0.45593999997E+02  0.45594000000E+02  0.51100000000E-03 0.  1.
         11   -1    0    0    0    0 -0.00000000000E+00 -0.00000000000E+00 -0.45593999997E+02  0.45594000000E+02  0.51100000000E-03 0. -1.
    9900012    2    1    2    0    0 -0.99939544034E+01  0.21554113168E+02  0.32995556135E+02  0.50528860268E+02  0.30000001270E+02 0.  0.
         12    1    1    2    0    0  0.99939544034E+01 -0.21554113168E+02 -0.32995556135E+02  0.40659139732E+02  0.00000000000E+00 0. -1.
         11    1    3    3    0    0  0.50179902093E+01  0.12363353789E+02  0.22057622085E+02  0.25779283057E+02  0.51100000000E-03 0. -1.
        -11    1    3    3    0    0 -0.10930471013E+02  0.12182572894E+01  0.11322573918E+02  0.15784803697E+02  0.51100000000E-03 0.  1.
         12    1    3    3    0    0 -0.40814735998E+01  0.79725020898E+01 -0.38463986692E+00  0.89647735133E+01  0.00000000000E+00 0. -1.
</event>
<event>
 7    1  0.6136531E-013  0.5052885E+02  0.7816164E-02  0.1300439E+00
        -11   -1    0    0    0    0  0.00000000000E+00  0.00000000000E+00  0.45593999997E+02  0.45594000000E+02  0.51100000000E-03 0.  1.
         11   -1    0    0    0    0 -0.00000000000E+00 -0.00000000000E+00 -0.45593999997E+02  0.45594000000E+02  0.51100000000E-03 0. -1.
    9900012    2    1    2    0    0 -0.87037682286E+01  0.28301118591E+02  0.27864983285E+02  0.50528853571E+02  0.29999980913E+02 0.  0.
         12    1    1    2    0    0  0.87037682286E+01 -0.28301118591E+02 -0.27864983285E+02  0.40659146429E+02  0.00000000000E+00 0. -1.
         11    1    3    3    0    0 -0.12753779824E+02  0.16527582788E+02  0.13960659891E+02  0.25114137801E+02  0.51100000000E-03 0. -1.
        -11    1    3    3    0    0  0.92519198326E+01  0.74122193297E+01  0.14348004230E+02  0.18611938148E+02  0.51100000000E-03 0.  1.
         12    1    3    3    0    0 -0.52019082374E+01  0.43613164730E+01 -0.44368083595E+00  0.68027776219E+01  0.00000000000E+00 0. -1.
</event>
<event>
 7    1  0.6136531E-013  0.5052886E+02  0.7816164E-02  0.1300439E+00
        -11   -1    0    0    0    0  0.00000000000E+00  0.00000000000E+00  0.45593999997E+02  0.45594000000E+02  0.51100000000E-03 0.  1.
         11   -1    0    0    0    0 -0.00000000000E+00 -0.00000000000E+00 -0.45593999997E+02  0.45594000000E+02  0.51100000000E-03 0. -1.
    9900012    2    1    2    0    0 -0.22594597361E+01 -0.34639216326E+02  0.21170387706E+02  0.50528858572E+02  0.29999996117E+02 0.  0.
         12    1    1    2    0    0  0.22594597361E+01  0.34639216326E+02 -0.21170387706E+02  0.40659141428E+02  0.00000000000E+00 0. -1.
         11    1    3    3    0    0 -0.13411702376E+01  0.21311614586E+01  0.47884927611E+01  0.54101986981E+01  0.51100000000E-03 0. -1.
        -11    1    3    3    0    0 -0.87867190052E+01 -0.25774418918E+02  0.55431650877E+01  0.27789454491E+02  0.51100000000E-03 0.  1.
         12    1    3    3    0    0  0.78684295067E+01 -0.10995958867E+02  0.10838729857E+02  0.17329205384E+02  0.00000000000E+00 0. -1.
</event>
<event>
 7    1  0.6136531E-013  0.5052884E+02  0.7816164E-02  0.1300439E+00
        -11   -1    0    0    0    0  0.00000000000E+00  0.00000000000E+00  0.45593999997E+02  0.45594000000E+02  0.51100000000E-03 0.  1.
         11   -1    0    0    0    0 -0.00000000000E+00 -0.00000000000E+00 -0.45593999997E+02  0.45594000000E+02  0.51100000000E-03 0. -1.
    9900012    2    1    2    0    0 -0.27775151665E+02 -0.14512449235E+02  0.25905539172E+02  0.50528841222E+02  0.29999943377E+02 0.  0.
         12    1    1    2    0    0  0.27775151665E+02  0.14512449235E+02 -0.25905539172E+02  0.40659158778E+02  0.00000000000E+00 0. -1.
         11    1    3    3    0    0 -0.16669700405E+01 -0.87030606589E+01 -0.39774540931E+01  0.97129910569E+01  0.51100000000E-03 0. -1.
        -11    1    3    3    0    0 -0.13843462064E+02 -0.47711231081E+01  0.21149380275E+02  0.25723556207E+02  0.51100000000E-03 0.  1.
         12    1    3    3    0    0 -0.12264719560E+02 -0.10382654677E+01  0.87336129900E+01  0.15092293958E+02  0.00000000000E+00 0. -1.
</event>
<event>
 7    1  0.6136531E-013  0.5052888E+02  0.7816164E-02  0.1300439E+00
        -11   -1    0    0    0    0  0.00000000000E+00  0.00000000000E+00  0.45593999997E+02  0.45594000000E+02  0.51100000000E-03 0.  1.
         11   -1    0    0    0    0 -0.00000000000E+00 -0.00000000000E+00 -0.45593999997E+02  0.45594000000E+02  0.51100000000E-03 0. -1.
    9900012    2    1    2    0    0  0.36216831072E+02  0.13067085122E+02  0.13067379801E+02  0.50528880711E+02  0.30000063409E+02 0.  0.
         12    1    1    2    0    0 -0.36216831072E+02 -0.13067085122E+02 -0.13067379801E+02  0.40659119289E+02  0.00000000000E+00 0. -1.
         11    1    3    3    0    0 -0.11546449956E+01 -0.94283943251E+00  0.10098666157E+01  0.18005505003E+01  0.51100000000E-03 0. -1.
        -11    1    3    3    0    0  0.35480360021E+02  0.63858476529E+01  0.16562512619E+02  0.39673061666E+02  0.51100000000E-03 0.  1.
        -12    1    3    3    0    0  0.18911160470E+01  0.76240769017E+01 -0.45049994343E+01  0.90552685443E+01  0.00000000000E+00 0.  1.
</event>
<event>
 7    1  0.6136531E-013  0.5052887E+02  0.7816164E-02  0.1300439E+00
        -11   -1    0    0    0    0  0.00000000000E+00  0.00000000000E+00  0.45593999997E+02  0.45594000000E+02  0.51100000000E-03 0.  1.
         11   -1    0    0    0    0 -0.00000000000E+00 -0.00000000000E+00 -0.45593999997E+02  0.45594000000E+02  0.51100000000E-03 0. -1.
    9900012    2    1    2    0    0  0.38456835130E+02  0.12713476239E+02  0.35502346051E+01  0.50528870495E+02  0.30000032357E+02 0.  0.
         12    1    1    2    0    0 -0.38456835130E+02 -0.12713476239E+02 -0.35502346051E+01  0.40659129505E+02  0.00000000000E+00 0. -1.
         11    1    3    3    0    0  0.37890993186E+01  0.76022741411E+01 -0.44580430954E+01  0.95930179957E+01  0.51100000000E-03 0. -1.
        -11    1    3    3    0    0  0.10804410569E+02 -0.15223648902E+01  0.11580924260E+02  0.15911338396E+02  0.51100000000E-03 0.  1.
        -12    1    3    3    0    0  0.23863325243E+02  0.66335669883E+01 -0.35726465594E+01  0.25024514103E+02  0.00000000000E+00 0.  1.
</event>
<event>
 7    1  0.6136531E-013  0.5052886E+02  0.7816164E-02  0.1300439E+00
        -11   -1    0    0    0    0  0.00000000000E+00  0.00000000000E+00  0.45593999997E+02  0.45594000000E+02  0.51100000000E-03 0.  1.
         11   -1    0    0    0    0 -0.00000000000E+00 -0.00000000000E+00 -0.45593999997E+02  0.45594000000E+02  0.51100000000E-03 0. -1.
    9900012    2    1    2    0    0 -0.38561480991E+02 -0.28140664029E+00  0.12887915000E+02  0.50528863770E+02  0.30000011915E+02 0.  0.
         12    1    1    2    0    0  0.38561480991E+02  0.28140664029E+00 -0.12887915000E+02  0.40659136230E+02  0.00000000000E+00 0. -1.
         11    1    3    3    0    0 -0.14988902121E+02 -0.88184027368E+01  0.14407384065E+02  0.22583271009E+02  0.51100000000E-03 0. -1.
        -11    1    3    3    0    0 -0.23580670473E+02  0.98745434539E+01  0.44547807067E+00  0.25568595568E+02  0.51100000000E-03 0.  1.
         12    1    3    3    0    0  0.80916024122E-02 -0.13375473574E+01 -0.19649471356E+01  0.23769971924E+01  0.00000000000E+00 0. -1.
</event>
<event>
 7    1  0.6136531E-013  0.5052891E+02  0.7816164E-02  0.1300439E+00
        -11   -1    0    0    0    0  0.00000000000E+00  0.00000000000E+00  0.45593999997E+02  0.45594000000E+02  0.51100000000E-03 0.  1.
         11   -1    0    0    0    0 -0.00000000000E+00 -0.00000000000E+00 -0.45593999997E+02  0.45594000000E+02  0.51100000000E-03 0. -1.
    9900012    2    1    2    0    0  0.32303648212E+02 -0.86600427156E+01  0.23122272725E+02  0.50528910935E+02  0.30000155277E+02 0.  0.
         12    1    1    2    0    0 -0.32303648212E+02  0.86600427156E+01 -0.23122272725E+02  0.40659089065E+02  0.00000000000E+00 0. -1.
         11    1    3    3    0    0 -0.31118863738E+01  0.37757151061E+01 -0.80011131423E+00  0.49578261105E+01  0.51100000000E-03 0. -1.
        -11    1    3    3    0    0  0.29408562745E+02 -0.82472777279E+01  0.22905469090E+02  0.38177764041E+02  0.51100000000E-03 0.  1.
         12    1    3    3    0    0  0.60069718403E+01 -0.41884800938E+01  0.10169149491E+01  0.73933207830E+01  0.00000000000E+00 0. -1.
</event>
<event>
 7    1  0.6136531E-013  0.5052895E+02  0.7816164E-02  0.1300438E+00
        -11   -1    0    0    0    0  0.00000000000E+00  0.00000000000E+00  0.45593999997E+02  0.45594000000E+02  0.51100000000E-03 0. -1.
         11   -1    0    0    0    0 -0.00000000000E+00 -0.00000000000E+00 -0.45593999997E+02  0.45594000000E+02  0.51100000000E-03 0.  1.
    9900012    2    1    2    0    0  0.19645227333E+02  0.24026881927E+02 -0.26266566601E+02  0.50528947710E+02  0.30000267058E+02 0.  0.
         12    1    1    2    0    0 -0.19645227333E+02 -0.24026881927E+02  0.26266566601E+02  0.40659052290E+02  0.00000000000E+00 0. -1.
         11    1    3    3    0    0  0.19604611607E+02  0.23813117299E+02 -0.90846110235E+01  0.32154867586E+02  0.51100000000E-03 0. -1.
        -11    1    3    3    0    0 -0.29064366308E+01 -0.39191055793E+00 -0.12255901665E+02  0.12601908334E+02  0.51100000000E-03 0.  1.
         12    1    3    3    0    0  0.29470523569E+01  0.60567518589E+00 -0.49260539122E+01  0.57721717898E+01  0.00000000000E+00 0. -1.
</event>
<event>
 7    1  0.6136531E-013  0.5052886E+02  0.7816164E-02  0.1300439E+00
        -11   -1    0    0    0    0  0.00000000000E+00  0.00000000000E+00  0.45593999997E+02  0.45594000000E+02  0.51100000000E-03 0. -1.
         11   -1    0    0    0    0 -0.00000000000E+00 -0.00000000000E+00 -0.45593999997E+02  0.45594000000E+02  0.51100000000E-03 0.  1.
    9900012    2    1    2    0    0  0.13910445574E+01  0.20284517535E+01 -0.40584678070E+02  0.50528859385E+02  0.29999998587E+02 0.  0.
         12    1    1    2    0    0 -0.13910445574E+01 -0.20284517535E+01  0.40584678070E+02  0.40659140615E+02  0.00000000000E+00 0. -1.
         11    1    3    3    0    0 -0.19024077489E+01 -0.48962820664E+01  0.23548906603E+01  0.57565826321E+01  0.51100000000E-03 0. -1.
        -11    1    3    3    0    0  0.63904107144E+01  0.25098722517E+01 -0.18203553197E+02  0.19455234696E+02  0.51100000000E-03 0.  1.
         12    1    3    3    0    0 -0.30969584081E+01  0.44148615682E+01 -0.24736015534E+02  0.25317042057E+02  0.00000000000E+00 0. -1.
</event>
<event>
 7    1  0.6136531E-013  0.5052886E+02  0.7816164E-02  0.1300439E+00
        -11   -1    0    0    0    0  0.00000000000E+00  0.00000000000E+00  0.45593999997E+02  0.45594000000E+02  0.51100000000E-03 0. -1.
         11   -1    0    0    0    0 -0.00000000000E+00 -0.00000000000E+00 -0.45593999997E+02  0.45594000000E+02  0.51100000000E-03 0.  1.
    9900012    2    1    2    0    0  0.23509788118E+02  0.41869910430E+01 -0.32907817412E+02  0.50528862304E+02  0.30000007458E+02 0.  0.
         12    1    1    2    0    0 -0.23509788118E+02 -0.41869910430E+01  0.32907817412E+02  0.40659137696E+02  0.00000000000E+00 0. -1.
         11    1    3    3    0    0  0.82717525421E+00  0.53270319668E+01  0.41745899222E+01  0.68182614907E+01  0.51100000000E-03 0. -1.
        -11    1    3    3    0    0  0.10572969066E+02 -0.13948138747E+01 -0.21254255877E+02  0.23779751339E+02  0.51100000000E-03 0.  1.
         12    1    3    3    0    0  0.12109643799E+02  0.25477295097E+00 -0.15828151457E+02  0.19930849474E+02  0.00000000000E+00 0. -1.
</event>
<event>
 7    1  0.6136531E-013  0.5052886E+02  0.7816164E-02  0.1300439E+00
        -11   -1    0    0    0    0  0.00000000000E+00  0.00000000000E+00  0.45593999997E+02  0.45594000000E+02  0.51100000000E-03 0.  1.
         11   -1    0    0    0    0 -0.00000000000E+00 -0.00000000000E+00 -0.45593999997E+02  0.45594000000E+02  0.51100000000E-03 0. -1.
    9900012    2    1    2    0    0 -0.10576044936E+02  0.33158258834E+01  0.39119285091E+02  0.50528857193E+02  0.29999991923E+02 0.  0.
         12    1    1    2    0    0  0.10576044936E+02 -0.33158258834E+01 -0.39119285091E+02  0.40659142807E+02  0.00000000000E+00 0. -1.
         11    1    3    3    0    0 -0.17635473766E+01  0.57020174668E+01  0.35886606532E+02  0.36379549629E+02  0.51100000000E-03 0.  1.
        -11    1    3    3    0    0 -0.36643875288E+01  0.18995264917E+01 -0.29184131155E+01  0.50550046714E+01  0.51100000000E-03 0. -1.
        -12    1    3    3    0    0 -0.51481100310E+01 -0.42857180751E+01  0.61510916749E+01  0.90943028926E+01  0.00000000000E+00 0.  1.
</event>
<event>
 7    1  0.6136531E-013  0.5052886E+02  0.7816164E-02  0.1300439E+00
        -11   -1    0    0    0    0  0.00000000000E+00  0.00000000000E+00  0.45593999997E+02  0.45594000000E+02  0.51100000000E-03 0.  1.
         11   -1    0    0    0    0 -0.00000000000E+00 -0.00000000000E+00 -0.45593999997E+02  0.45594000000E+02  0.51100000000E-03 0. -1.
    9900012    2    1    2    0    0 -0.32107039446E+02 -0.10119682496E+02  0.22801223072E+02  0.50528859215E+02  0.29999998069E+02 0.  0.
         12    1    1    2    0    0  0.32107039446E+02  0.10119682496E+02 -0.22801223072E+02  0.40659140785E+02  0.00000000000E+00 0. -1.
         11    1    3    3    0    0 -0.93354817369E+00 -0.55066938568E+01  0.37855340370E+01  0.67472555629E+01  0.51100000000E-03 0. -1.
        -11    1    3    3    0    0 -0.18563090632E+02  0.22754820693E+01 -0.14690650366E+01  0.18759645647E+02  0.51100000000E-03 0.  1.
        -12    1    3    3    0    0 -0.12610400640E+02 -0.68884707081E+01  0.20484754072E+02  0.25021958005E+02  0.00000000000E+00 0.  1.
</event>
<event>
 7    1  0.6136531E-013  0.5052888E+02  0.7816164E-02  0.1300439E+00
        -11   -1    0    0    0    0  0.00000000000E+00  0.00000000000E+00  0.45593999997E+02  0.45594000000E+02  0.51100000000E-03 0.  1.
         11   -1    0    0    0    0 -0.00000000000E+00 -0.00000000000E+00 -0.45593999997E+02  0.45594000000E+02  0.51100000000E-03 0. -1.
    9900012    2    1    2    0    0 -0.35961815432E+01  0.82032351328E+01  0.39660290391E+02  0.50528877749E+02  0.30000054406E+02 0.  0.
         12    1    1    2    0    0  0.35961815432E+01 -0.82032351328E+01 -0.39660290391E+02  0.40659122251E+02  0.00000000000E+00 0. -1.
         11    1    3    3    0    0 -0.56639113264E+01 -0.90803006836E+01  0.26770883717E+02  0.28830746908E+02  0.51100000000E-03 0. -1.
        -11    1    3    3    0    0  0.13973873867E+01  0.13379623368E+02  0.10567622661E+02  0.17106772400E+02  0.51100000000E-03 0.  1.
         12    1    3    3    0    0  0.67034239648E+00  0.39039124482E+01  0.23217840129E+01  0.45913584410E+01  0.00000000000E+00 0. -1.
</event>
<event>
 7    1  0.6136531E-013  0.5052887E+02  0.7816164E-02  0.1300439E+00
        -11   -1    0    0    0    0  0.00000000000E+00  0.00000000000E+00  0.45593999997E+02  0.45594000000E+02  0.51100000000E-03 0. -1.
         11   -1    0    0    0    0 -0.00000000000E+00 -0.00000000000E+00 -0.45593999997E+02  0.45594000000E+02  0.51100000000E-03 0.  1.
    9900012    2    1    2    0    0 -0.23570682864E+02 -0.23573579552E+02 -0.23278195040E+02  0.50528866858E+02  0.30000021301E+02 0.  0.
         12    1    1    2    0    0  0.23570682864E+02  0.23573579552E+02  0.23278195040E+02  0.40659133142E+02  0.00000000000E+00 0. -1.
         11    1    3    3    0    0  0.79629384953E+00 -0.29899884496E+01  0.31278604129E+01  0.43997302017E+01  0.51100000000E-03 0. -1.
        -11    1    3    3    0    0 -0.25179153272E+02 -0.16925448141E+02 -0.14459338280E+02  0.33608525972E+02  0.51100000000E-03 0.  1.
        -12    1    3    3    0    0  0.81217655890E+00 -0.36581429620E+01 -0.11946717173E+02  0.12520610684E+02  0.00000000000E+00 0.  1.
</event>
<event>
 7    1  0.6136531E-013  0.5052886E+02  0.7816164E-02  0.1300439E+00
        -11   -1    0    0    0    0  0.00000000000E+00  0.00000000000E+00  0.45593999997E+02  0.45594000000E+02  0.51100000000E-03 0. -1.
         11   -1    0    0    0    0 -0.00000000000E+00 -0.00000000000E+00 -0.45593999997E+02  0.45594000000E+02  0.51100000000E-03 0.  1.
    9900012    2    1    2    0    0 -0.21192250492E+02  0.33834007673E+02  0.77015898606E+01  0.50528855364E+02  0.29999986365E+02 0.  0.
         12    1    1    2    0    0  0.21192250492E+02 -0.33834007673E+02 -0.77015898606E+01  0.40659144636E+02  0.00000000000E+00 0. -1.
         11    1    3    3    0    0  0.18722059066E+01  0.18257536834E+01 -0.46062351250E+01  0.52967852285E+01  0.51100000000E-03 0. -1.
        -11    1    3    3    0    0 -0.19525065582E+02  0.14593736516E+02  0.12639592020E+02  0.27458416163E+02  0.51100000000E-03 0.  1.
        -12    1    3    3    0    0 -0.35393908171E+01  0.17414517473E+02 -0.33176703429E+00  0.17773653973E+02  0.00000000000E+00 0.  1.
</event>
<event>
 7    1  0.6136531E-013  0.5052886E+02  0.7816164E-02  0.1300439E+00
        -11   -1    0    0    0    0  0.00000000000E+00  0.00000000000E+00  0.45593999997E+02  0.45594000000E+02  0.51100000000E-03 0.  1.
         11   -1    0    0    0    0 -0.00000000000E+00 -0.00000000000E+00 -0.45593999997E+02  0.45594000000E+02  0.51100000000E-03 0. -1.
    9900012    2    1    2    0    0 -0.88060915378E+01 -0.16708647092E+02  0.36006108021E+02  0.50528856494E+02  0.29999989799E+02 0.  0.
         12    1    1    2    0    0  0.88060915378E+01  0.16708647092E+02 -0.36006108021E+02  0.40659143506E+02  0.00000000000E+00 0. -1.
         11    1    3    3    0    0  0.85349927607E+01 -0.16911556872E+01  0.65390394135E+01  0.10884169500E+02  0.51100000000E-03 0. -1.
        -11    1    3    3    0    0 -0.17760272376E+02 -0.15751305194E+02  0.22767729340E+02  0.32892254252E+02  0.51100000000E-03 0.  1.
        -12    1    3    3    0    0  0.41918807769E+00  0.73381378931E+00  0.66993392673E+01  0.67524327424E+01  0.00000000000E+00 0.  1.
</event>
<event>
 7    1  0.6136531E-013  0.5052887E+02  0.7816164E-02  0.1300439E+00
        -11   -1    0    0    0    0  0.00000000000E+00  0.00000000000E+00  0.45593999997E+02  0.45594000000E+02  0.51100000000E-03 0.  1.
         11   -1    0    0    0    0 -0.00000000000E+00 -0.00000000000E+00 -0.45593999997E+02  0.45594000000E+02  0.51100000000E-03 0. -1.
    9900012    2    1    2    0    0 -0.76436466746E+00  0.30142091135E+02  0.27277007580E+02  0.50528867522E+02  0.30000023321E+02 0.  0.
         12    1    1    2    0    0  0.76436466746E+00 -0.30142091135E+02 -0.27277007580E+02  0.40659132478E+02  0.00000000000E+00 0. -1.
         11    1    3    3    0    0 -0.57209889194E+01  0.14078598150E+00 -0.42862043807E-01  0.57228814704E+01  0.51100000000E-03 0. -1.
        -11    1    3    3    0    0  0.27092663119E+01  0.13050131769E+02  0.93037930253E+00  0.13360825912E+02  0.51100000000E-03 0.  1.
         12    1    3    3    0    0  0.22473579400E+01  0.16951173384E+02  0.26389490321E+02  0.31445160140E+02  0.00000000000E+00 0. -1.
</event>
<event>
 7    1  0.6136531E-013  0.5052884E+02  0.7816164E-02  0.1300439E+00
        -11   -1    0    0    0    0  0.00000000000E+00  0.00000000000E+00  0.45593999997E+02  0.45594000000E+02  0.51100000000E-03 0.  1.
         11   -1    0    0    0    0 -0.00000000000E+00 -0.00000000000E+00 -0.45593999997E+02  0.45594000000E+02  0.51100000000E-03 0. -1.
    9900012    2    1    2    0    0  0.38386845280E+02  0.53446958377E+01  0.12290293136E+02  0.50528843965E+02  0.29999951715E+02 0.  0.
         12    1    1    2    0    0 -0.38386845280E+02 -0.53446958377E+01 -0.12290293136E+02  0.40659156035E+02  0.00000000000E+00 0. -1.
         11    1    3    3    0    0 -0.16059260516E+01  0.20758711735E+01 -0.42644557189E+01  0.50073768034E+01  0.51100000000E-03 0. -1.
        -11    1    3    3    0    0  0.13414234782E+02  0.10071149740E+01  0.12827640913E+02  0.18587747228E+02  0.51100000000E-03 0.  1.
         12    1    3    3    0    0  0.26578536550E+02  0.22617096903E+01  0.37271079420E+01  0.26933719934E+02  0.00000000000E+00 0. -1.
</event>
<event>
 7    1  0.6136531E-013  0.5052886E+02  0.7816164E-02  0.1300439E+00
        -11   -1    0    0    0    0  0.00000000000E+00  0.00000000000E+00  0.45593999997E+02  0.45594000000E+02  0.51100000000E-03 0.  1.
         11   -1    0    0    0    0 -0.00000000000E+00 -0.00000000000E+00 -0.45593999997E+02  0.45594000000E+02  0.51100000000E-03 0. -1.
    9900012    2    1    2    0    0  0.36744801993E+02  0.30969370048E+01  0.17128755147E+02  0.50528859020E+02  0.29999997478E+02 0.  0.
         12    1    1    2    0    0 -0.36744801993E+02 -0.30969370048E+01 -0.17128755147E+02  0.40659140980E+02  0.00000000000E+00 0. -1.
         11    1    3    3    0    0 -0.10365016196E+01  0.39373062300E+01 -0.21934030505E+01  0.46246873580E+01  0.51100000000E-03 0. -1.
        -11    1    3    3    0    0  0.35422611167E+02 -0.26517046528E+01  0.22099382492E+02  0.41835100409E+02  0.51100000000E-03 0.  1.
         12    1    3    3    0    0  0.23586924455E+01  0.18113354276E+01 -0.27772242942E+01  0.40690712532E+01  0.00000000000E+00 0. -1.
</event>
<event>
 7    1  0.6136531E-013  0.5052886E+02  0.7816164E-02  0.1300439E+00
        -11   -1    0    0    0    0  0.00000000000E+00  0.00000000000E+00  0.45593999997E+02  0.45594000000E+02  0.51100000000E-03 0.  1.
         11   -1    0    0    0    0 -0.00000000000E+00 -0.00000000000E+00 -0.45593999997E+02  0.45594000000E+02  0.51100000000E-03 0. -1.
    9900012    2    1    2    0    0  0.68699660279E+01 -0.30324994367E+02  0.26198553814E+02  0.50528856643E+02  0.29999990251E+02 0.  0.
         12    1    1    2    0    0 -0.68699660279E+01  0.30324994367E+02 -0.26198553814E+02  0.40659143357E+02  0.00000000000E+00 0. -1.
         11    1    3    3    0    0  0.51276033061E+01 -0.17389390783E+02  0.30925679330E+02  0.35848024629E+02  0.51100000000E-03 0. -1.
        -11    1    3    3    0    0 -0.63297183127E+00 -0.10953756726E+01 -0.18925862188E+01  0.22764850230E+01  0.51100000000E-03 0.  1.
         12    1    3    3    0    0  0.23753345531E+01 -0.11840227911E+02 -0.28345392976E+01  0.12404346991E+02  0.00000000000E+00 0. -1.
</event>
<event>
 7    1  0.6136531E-013  0.5052886E+02  0.7816164E-02  0.1300439E+00
        -11   -1    0    0    0    0  0.00000000000E+00  0.00000000000E+00  0.45593999997E+02  0.45594000000E+02  0.51100000000E-03 0.  1.
         11   -1    0    0    0    0 -0.00000000000E+00 -0.00000000000E+00 -0.45593999997E+02  0.45594000000E+02  0.51100000000E-03 0. -1.
    9900012    2    1    2    0    0 -0.29299785419E+02 -0.27384571374E+02  0.66913220085E+01  0.50528856315E+02  0.29999989256E+02 0.  0.
         12    1    1    2    0    0  0.29299785419E+02  0.27384571374E+02 -0.66913220085E+01  0.40659143685E+02  0.00000000000E+00 0. -1.
         11    1    3    3    0    0  0.59349039407E+01 -0.63814606830E+01  0.53729542970E+00  0.87312548854E+01  0.51100000000E-03 0. -1.
        -11    1    3    3    0    0 -0.20016138197E+02 -0.14581956155E+02  0.47916271332E+01  0.25223776967E+02  0.51100000000E-03 0.  1.
         12    1    3    3    0    0 -0.15218551163E+02 -0.64211545361E+01  0.13623994456E+01  0.16573824463E+02  0.00000000000E+00 0. -1.
</event>
<event>
 7    1  0.6136531E-013  0.5052886E+02  0.7816164E-02  0.1300439E+00
        -11   -1    0    0    0    0  0.00000000000E+00  0.00000000000E+00  0.45593999997E+02  0.45594000000E+02  0.51100000000E-03 0. -1.
         11   -1    0    0    0    0 -0.00000000000E+00 -0.00000000000E+00 -0.45593999997E+02  0.45594000000E+02  0.51100000000E-03 0.  1.
    9900012    2    1    2    0    0 -0.21323750665E+02 -0.10353224185E+02 -0.33034441099E+02  0.50528857213E+02  0.29999991984E+02 0.  0.
         12    1    1    2    0    0  0.21323750665E+02  0.10353224185E+02  0.33034441099E+02  0.40659142787E+02  0.00000000000E+00 0. -1.
         11    1    3    3    0    0 -0.30481733653E+01 -0.48142453960E+01 -0.62009883817E+01  0.84214355528E+01  0.51100000000E-03 0. -1.
        -11    1    3    3    0    0 -0.99777296594E+01  0.70225658473E+00  0.30616948150E+01  0.10460508060E+02  0.51100000000E-03 0.  1.
        -12    1    3    3    0    0 -0.82978476406E+01 -0.62412353737E+01 -0.29895147532E+02  0.31646913600E+02  0.00000000000E+00 0.  1.
</event>
<event>
 7    1  0.6136531E-013  0.5052886E+02  0.7816164E-02  0.1300439E+00
        -11   -1    0    0    0    0  0.00000000000E+00  0.00000000000E+00  0.45593999997E+02  0.45594000000E+02  0.51100000000E-03 0.  1.
         11   -1    0    0    0    0 -0.00000000000E+00 -0.00000000000E+00 -0.45593999997E+02  0.45594000000E+02  0.51100000000E-03 0. -1.
    9900012    2    1    2    0    0  0.57743669410E+01  0.40164472563E+02 -0.25763788489E+01  0.50528857144E+02  0.29999991774E+02 0.  0.
         12    1    1    2    0    0 -0.57743669410E+01 -0.40164472563E+02  0.25763788489E+01  0.40659142856E+02  0.00000000000E+00 0. -1.
         11    1    3    3    0    0 -0.76309180762E+01  0.32475999413E+01 -0.21531762301E+01  0.85681960881E+01  0.51100000000E-03 0. -1.
        -11    1    3    3    0    0  0.16475521322E+02  0.27544219961E+02 -0.26461396915E+00  0.32096680155E+02  0.51100000000E-03 0.  1.
        -12    1    3    3    0    0 -0.30702363052E+01  0.93726526602E+01 -0.15858864972E+00  0.98639809011E+01  0.00000000000E+00 0.  1.
</event>
<event>
 7    1  0.6136531E-013  0.5052886E+02  0.7816164E-02  0.1300439E+00
        -11   -1    0    0    0    0  0.00000000000E+00  0.00000000000E+00  0.45593999997E+02  0.45594000000E+02  0.51100000000E-03 0. -1.
         11   -1    0    0    0    0 -0.00000000000E+00 -0.00000000000E+00 -0.45593999997E+02  0.45594000000E+02  0.51100000000E-03 0.  1.
    9900012    2    1    2    0    0 -0.49726697421E+01 -0.31101233004E+02 -0.25712871539E+02  0.50528857098E+02  0.29999991635E+02 0.  0.
         12    1    1    2    0    0  0.49726697421E+01  0.31101233004E+02  0.25712871539E+02  0.40659142902E+02  0.00000000000E+00 0. -1.
         11    1    3    3    0    0 -0.34954718243E+01  0.33862187568E+01 -0.47534960149E+01  0.68029791538E+01  0.51100000000E-03 0. -1.
        -11    1    3    3    0    0 -0.52340684949E+01 -0.26292480508E+02 -0.80700251840E+01  0.27996701788E+02  0.51100000000E-03 0.  1.
         12    1    3    3    0    0  0.37568705772E+01 -0.81949712532E+01 -0.12889350340E+02  0.15729176156E+02  0.00000000000E+00 0. -1.
</event>
<event>
 7    1  0.6136531E-013  0.5052886E+02  0.7816164E-02  0.1300439E+00
        -11   -1    0    0    0    0  0.00000000000E+00  0.00000000000E+00  0.45593999997E+02  0.45594000000E+02  0.51100000000E-03 0.  1.
         11   -1    0    0    0    0 -0.00000000000E+00 -0.00000000000E+00 -0.45593999997E+02  0.45594000000E+02  0.51100000000E-03 0. -1.
    9900012    2    1    2    0    0  0.27827931549E+02 -0.27612662161E+02  0.10784839006E+02  0.50528860335E+02  0.30000001475E+02 0.  0.
         12    1    1    2    0    0 -0.27827931549E+02  0.27612662161E+02 -0.10784839006E+02  0.40659139665E+02  0.00000000000E+00 0. -1.
         11    1    3    3    0    0  0.21488922108E+02 -0.13766737995E+02  0.18645550946E+02  0.31606224367E+02  0.51100000000E-03 0. -1.
        -11    1    3    3    0    0  0.81844167674E+01 -0.12335168838E+02 -0.71100214684E+01  0.16422346776E+02  0.51100000000E-03 0.  1.
        -12    1    3    3    0    0 -0.18454073265E+01 -0.15107553283E+01 -0.75069047226E+00  0.25002891928E+01  0.00000000000E+00 0.  1.
</event>
<event>
 7    1  0.6136531E-013  0.5052886E+02  0.7816164E-02  0.1300439E+00
        -11   -1    0    0    0    0  0.00000000000E+00  0.00000000000E+00  0.45593999997E+02  0.45594000000E+02  0.51100000000E-03 0.  1.
         11   -1    0    0    0    0 -0.00000000000E+00 -0.00000000000E+00 -0.45593999997E+02  0.45594000000E+02  0.51100000000E-03 0. -1.
    9900012    2    1    2    0    0 -0.25500572034E+02  0.77231252951E+01  0.30712208748E+02  0.50528860750E+02  0.30000002736E+02 0.  0.
         12    1    1    2    0    0  0.25500572034E+02 -0.77231252951E+01 -0.30712208748E+02  0.40659139250E+02  0.00000000000E+00 0. -1.
         11    1    3    3    0    0 -0.14343334972E+02 -0.79470070506E+01  0.11084017728E+02  0.19792463930E+02  0.51100000000E-03 0. -1.
        -11    1    3    3    0    0 -0.36646313336E+01  0.12403072814E+02  0.18370277475E+02  0.22466259876E+02  0.51100000000E-03 0.  1.
        -12    1    3    3    0    0 -0.74926057288E+01  0.32670595319E+01  0.12579135450E+01  0.82701369444E+01  0.00000000000E+00 0.  1.
</event>
<event>
 7    1  0.6136531E-013  0.5052887E+02  0.7816164E-02  0.1300439E+00
        -11   -1    0    0    0    0  0.00000000000E+00  0.00000000000E+00  0.45593999997E+02  0.45594000000E+02  0.51100000000E-03 0.  1.
         11   -1    0    0    0    0 -0.00000000000E+00 -0.00000000000E+00 -0.45593999997E+02  0.45594000000E+02  0.51100000000E-03 0. -1.
    9900012    2    1    2    0    0  0.18526176433E+02  0.17277712518E+02  0.31802931661E+02  0.50528867873E+02  0.30000024387E+02 0.  0.
         12    1    1    2    0    0 -0.18526176433E+02 -0.17277712518E+02 -0.31802931661E+02  0.40659132127E+02  0.00000000000E+00 0. -1.
         11    1    3    3    0    0  0.41006076494E+01 -0.26309871205E+01  0.30452068069E+01  0.57454643920E+01  0.51100000000E-03 0. -1.
        -11    1    3    3    0    0  0.13990107992E+00  0.19983425699E+02  0.18068213450E+02  0.26940995017E+02  0.51100000000E-03 0.  1.
        -12    1    3    3    0    0  0.14285667704E+02 -0.74726060340E-01  0.10689511404E+02  0.17842408464E+02  0.00000000000E+00 0.  1.
</event>
<event>
 7    1  0.6136531E-013  0.5052885E+02  0.7816164E-02  0.1300439E+00
        -11   -1    0    0    0    0  0.00000000000E+00  0.00000000000E+00  0.45593999997E+02  0.45594000000E+02  0.51100000000E-03 0. -1.
         11   -1    0    0    0    0 -0.00000000000E+00 -0.00000000000E+00 -0.45593999997E+02  0.45594000000E+02  0.51100000000E-03 0.  1.
    9900012    2    1    2    0    0 -0.39274496237E+02  0.10425775142E+01 -0.10468682855E+02  0.50528851666E+02  0.29999975124E+02 0.  0.
         12    1    1    2    0    0  0.39274496237E+02 -0.10425775142E+01  0.10468682855E+02  0.40659148334E+02  0.00000000000E+00 0. -1.
         11    1    3    3    0    0 -0.92209920348E+01 -0.71712659737E+01  0.47416396075E+01  0.12607017736E+02  0.51100000000E-03 0. -1.
        -11    1    3    3    0    0 -0.30268963886E+02  0.66382164595E+01 -0.17146884628E+02  0.35415981494E+02  0.51100000000E-03 0.  1.
        -12    1    3    3    0    0  0.21545968440E+00  0.15756270283E+01  0.19365621654E+01  0.25058524355E+01  0.00000000000E+00 0.  1.
</event>
<event>
 7    1  0.6136531E-013  0.5052886E+02  0.7816164E-02  0.1300439E+00
        -11   -1    0    0    0    0  0.00000000000E+00  0.00000000000E+00  0.45593999997E+02  0.45594000000E+02  0.51100000000E-03 0. -1.
         11   -1    0    0    0    0 -0.00000000000E+00 -0.00000000000E+00 -0.45593999997E+02  0.45594000000E+02  0.51100000000E-03 0.  1.
    9900012    2    1    2    0    0 -0.25153568909E+02  0.24486551973E+02 -0.20515165650E+02  0.50528864766E+02  0.30000014941E+02 0.  0.
         12    1    1    2    0    0  0.25153568909E+02 -0.24486551973E+02  0.20515165650E+02  0.40659135234E+02  0.00000000000E+00 0. -1.
         11    1    3    3    0    0 -0.76513005342E+01 -0.80460112896E+00  0.16943310327E+00  0.76953551367E+01  0.51100000000E-03 0. -1.
        -11    1    3    3    0    0 -0.34953515602E+01  0.20568082978E+02 -0.18513977298E+02  0.27893204828E+02  0.51100000000E-03 0.  1.
        -12    1    3    3    0    0 -0.14006916814E+02  0.47230701235E+01 -0.21706214551E+01  0.14940304801E+02  0.00000000000E+00 0.  1.
</event>
<event>
 7    1  0.6136531E-013  0.5052885E+02  0.7816164E-02  0.1300439E+00
        -11   -1    0    0    0    0  0.00000000000E+00  0.00000000000E+00  0.45593999997E+02  0.45594000000E+02  0.51100000000E-03 0.  1.
         11   -1    0    0    0    0 -0.00000000000E+00 -0.00000000000E+00 -0.45593999997E+02  0.45594000000E+02  0.51100000000E-03 0. -1.
    9900012    2    1    2    0    0 -0.10204488784E+02  0.15962681552E+02  0.35975370926E+02  0.50528854572E+02  0.29999983957E+02 0.  0.
         12    1    1    2    0    0  0.10204488784E+02 -0.15962681552E+02 -0.35975370926E+02  0.40659145428E+02  0.00000000000E+00 0. -1.
         11    1    3    3    0    0 -0.49433112383E+01  0.18213226427E+02  0.10647498698E+02  0.21668575672E+02  0.51100000000E-03 0. -1.
        -11    1    3    3    0    0 -0.77469404641E+01 -0.38609820476E+01  0.98986914816E+01  0.13149386382E+02  0.51100000000E-03 0.  1.
         12    1    3    3    0    0  0.24857629181E+01  0.16104371720E+01  0.15429180747E+02  0.15710892517E+02  0.00000000000E+00 0. -1.
</event>
<event>
 7    1  0.6136531E-013  0.5052886E+02  0.7816164E-02  0.1300439E+00
        -11   -1    0    0    0    0  0.00000000000E+00  0.00000000000E+00  0.45593999997E+02  0.45594000000E+02  0.51100000000E-03 0.  1.
         11   -1    0    0    0    0 -0.00000000000E+00 -0.00000000000E+00 -0.45593999997E+02  0.45594000000E+02  0.51100000000E-03 0. -1.
    9900012    2    1    2    0    0  0.31639686726E+02 -0.15866268092E+02  0.20008928163E+02  0.50528862706E+02  0.30000008680E+02 0.  0.
         12    1    1    2    0    0 -0.31639686726E+02  0.15866268092E+02 -0.20008928163E+02  0.40659137294E+02  0.00000000000E+00 0. -1.
         11    1    3    3    0    0  0.10946812126E+02 -0.57727086459E+01 -0.54985245617E+01  0.13542179790E+02  0.51100000000E-03 0. -1.
        -11    1    3    3    0    0  0.14900170009E+02 -0.92810038606E+01  0.25712889481E+02  0.31133659995E+02  0.51100000000E-03 0.  1.
        -12    1    3    3    0    0  0.57927045911E+01 -0.81255558527E+00 -0.20543675614E+00  0.58530229215E+01  0.00000000000E+00 0.  1.
</event>
<event>
 7    1  0.6136531E-013  0.5052887E+02  0.7816164E-02  0.1300439E+00
        -11   -1    0    0    0    0  0.00000000000E+00  0.00000000000E+00  0.45593999997E+02  0.45594000000E+02  0.51100000000E-03 0. -1.
         11   -1    0    0    0    0 -0.00000000000E+00 -0.00000000000E+00 -0.45593999997E+02  0.45594000000E+02  0.51100000000E-03 0.  1.
    9900012    2    1    2    0    0  0.16677781366E+02 -0.29921136300E+02 -0.21903005988E+02  0.50528874824E+02  0.30000045515E+02 0.  0.
         12    1    1    2    0    0 -0.16677781366E+02  0.29921136300E+02  0.21903005988E+02  0.40659125176E+02  0.00000000000E+00 0. -1.
         11    1    3    3    0    0 -0.67756696948E+00  0.32772328708E+01 -0.63763718050E-02  0.33465494479E+01  0.51100000000E-03 0. -1.
        -11    1    3    3    0    0  0.20820824475E+02 -0.31456896992E+02 -0.18448524244E+02  0.41992751127E+02  0.51100000000E-03 0.  1.
        -12    1    3    3    0    0 -0.34654761396E+01 -0.17414721785E+01 -0.34481053726E+01  0.51895742488E+01  0.00000000000E+00 0.  1.
</event>
<event>
 7    1  0.6136531E-013  0.5052877E+02  0.7816164E-02  0.1300439E+00
        -11   -1    0    0    0    0  0.00000000000E+00  0.00000000000E+00  0.45593999997E+02  0.45594000000E+02  0.51100000000E-03 0.  1.
         11   -1    0    0    0    0 -0.00000000000E+00 -0.00000000000E+00 -0.45593999997E+02  0.45594000000E+02  0.51100000000E-03 0. -1.
    9900012    2    1    2    0    0 -0.24327679999E+02  0.19137454991E+01  0.32521902789E+02  0.50528774761E+02  0.29999741364E+02 0.  0.
         12    1    1    2    0    0  0.24327679999E+02 -0.19137454991E+01 -0.32521902789E+02  0.40659225239E+02  0.00000000000E+00 0. -1.
         11    1    3    3    0    0 -0.86408143359E+01  0.10874728026E+02  0.87331803881E+01  0.16407066221E+02  0.51100000000E-03 0. -1.
        -11    1    3    3    0    0 -0.41722950678E+01 -0.65614092617E+01  0.20475236700E+02  0.21901950960E+02  0.51100000000E-03 0.  1.
        -12    1    3    3    0    0 -0.11514570595E+02 -0.23995732657E+01  0.33134857010E+01  0.12219757581E+02  0.00000000000E+00 0.  1.
</event>
<event>
 7    1  0.6136531E-013  0.5052887E+02  0.7816164E-02  0.1300439E+00
        -11   -1    0    0    0    0  0.00000000000E+00  0.00000000000E+00  0.45593999997E+02  0.45594000000E+02  0.51100000000E-03 0.  1.
         11   -1    0    0    0    0 -0.00000000000E+00 -0.00000000000E+00 -0.45593999997E+02  0.45594000000E+02  0.51100000000E-03 0. -1.
    9900012    2    1    2    0    0  0.34373323971E+02  0.35264093898E+01  0.21429051648E+02  0.50528865497E+02  0.30000017165E+02 0.  0.
         12    1    1    2    0    0 -0.34373323971E+02 -0.35264093898E+01 -0.21429051648E+02  0.40659134503E+02  0.00000000000E+00 0. -1.
         11    1    3    3    0    0  0.10060358445E+02  0.64751654820E+01  0.29896549391E+01  0.12331934843E+02  0.51100000000E-03 0. -1.
        -11    1    3    3    0    0 -0.42325305061E+01 -0.19470724709E+01  0.11145821088E+01  0.47903756878E+01  0.51100000000E-03 0.  1.
        -12    1    3    3    0    0  0.28545496032E+02 -0.10016836213E+01  0.17324814600E+02  0.33406554966E+02  0.00000000000E+00 0.  1.
</event>
<event>
 7    1  0.6136531E-013  0.5052886E+02  0.7816164E-02  0.1300439E+00
        -11   -1    0    0    0    0  0.00000000000E+00  0.00000000000E+00  0.45593999997E+02  0.45594000000E+02  0.51100000000E-03 0. -1.
         11   -1    0    0    0    0 -0.00000000000E+00 -0.00000000000E+00 -0.45593999997E+02  0.45594000000E+02  0.51100000000E-03 0.  1.
    9900012    2    1    2    0    0  0.36790373585E+02  0.13363538676E+02 -0.11002269636E+02  0.50528859679E+02  0.29999999481E+02 0.  0.
         12    1    1    2    0    0 -0.36790373585E+02 -0.13363538676E+02  0.11002269636E+02  0.40659140321E+02  0.00000000000E+00 0. -1.
         11    1    3    3    0    0  0.17363767193E+02  0.70669864469E+01  0.41458414435E+01  0.19199758074E+02  0.51100000000E-03 0. -1.
        -11    1    3    3    0    0  0.73258856302E+01 -0.98088790611E+00 -0.15534580667E+02  0.17203311835E+02  0.51100000000E-03 0.  1.
        -12    1    3    3    0    0  0.12100720762E+02  0.72774401350E+01  0.38646958723E+00  0.14125789770E+02  0.00000000000E+00 0.  1.
</event>
<event>
 7    1  0.6136531E-013  0.5052886E+02  0.7816164E-02  0.1300439E+00
        -11   -1    0    0    0    0  0.00000000000E+00  0.00000000000E+00  0.45593999997E+02  0.45594000000E+02  0.51100000000E-03 0.  1.
         11   -1    0    0    0    0 -0.00000000000E+00 -0.00000000000E+00 -0.45593999997E+02  0.45594000000E+02  0.51100000000E-03 0. -1.
    9900012    2    1    2    0    0 -0.17813724736E+02 -0.36322406369E+02  0.40644710754E+01  0.50528856889E+02  0.29999991001E+02 0.  0.
         12    1    1    2    0    0  0.17813724736E+02  0.36322406369E+02 -0.40644710754E+01  0.40659143111E+02  0.00000000000E+00 0. -1.
         11    1    3    3    0    0 -0.28440041063E+01  0.37539208257E+01  0.55938384162E+01  0.73124079078E+01  0.51100000000E-03 0. -1.
        -11    1    3    3    0    0 -0.52397989700E+01 -0.18107075369E+02 -0.32473002187E+01  0.19127640488E+02  0.51100000000E-03 0.  1.
         12    1    3    3    0    0 -0.97299216595E+01 -0.21969251825E+02  0.17179328779E+01  0.24088808493E+02  0.00000000000E+00 0. -1.
</event>
<event>
 7    1  0.6136531E-013  0.5052886E+02  0.7816164E-02  0.1300439E+00
        -11   -1    0    0    0    0  0.00000000000E+00  0.00000000000E+00  0.45593999997E+02  0.45594000000E+02  0.51100000000E-03 0.  1.
         11   -1    0    0    0    0 -0.00000000000E+00 -0.00000000000E+00 -0.45593999997E+02  0.45594000000E+02  0.51100000000E-03 0. -1.
    9900012    2    1    2    0    0 -0.40206157987E+02 -0.44356046113E+01  0.41177915498E+01  0.50528856679E+02  0.29999990362E+02 0.  0.
         12    1    1    2    0    0  0.40206157987E+02  0.44356046113E+01 -0.41177915498E+01  0.40659143321E+02  0.00000000000E+00 0. -1.
         11    1    3    3    0    0 -0.35714928674E+02  0.22137661213E+01 -0.13950656767E+01  0.35810656223E+02  0.51100000000E-03 0.  1.
        -11    1    3    3    0    0 -0.52363651118E+01 -0.93372782634E+01  0.52301121334E+01  0.11914627906E+02  0.51100000000E-03 0. -1.
        -12    1    3    3    0    0  0.74513579934E+00  0.26879075308E+01  0.28274509315E+00  0.28035725496E+01  0.00000000000E+00 0.  1.
</event>
<event>
 7    1  0.6136531E-013  0.5052885E+02  0.7816164E-02  0.1300439E+00
        -11   -1    0    0    0    0  0.00000000000E+00  0.00000000000E+00  0.45593999997E+02  0.45594000000E+02  0.51100000000E-03 0.  1.
         11   -1    0    0    0    0 -0.00000000000E+00 -0.00000000000E+00 -0.45593999997E+02  0.45594000000E+02  0.51100000000E-03 0. -1.
    9900012    2    1    2    0    0  0.19213455336E+02 -0.16425592782E+02  0.31846659739E+02  0.50528847270E+02  0.29999961762E+02 0.  0.
         12    1    1    2    0    0 -0.19213455336E+02  0.16425592782E+02 -0.31846659739E+02  0.40659152730E+02  0.00000000000E+00 0. -1.
         11    1    3    3    0    0 -0.78055427390E+00  0.92396521463E+00 -0.17788531785E+01  0.21511149630E+01  0.51100000000E-03 0. -1.
        -11    1    3    3    0    0  0.21106955289E+02 -0.66816518069E+01  0.29505222746E+02  0.36887751382E+02  0.51100000000E-03 0.  1.
        -12    1    3    3    0    0 -0.11129456800E+01 -0.10667906190E+02  0.41202901716E+01  0.11489980925E+02  0.00000000000E+00 0.  1.
</event>
<event>
 7    1  0.6136531E-013  0.5052887E+02  0.7816164E-02  0.1300439E+00
        -11   -1    0    0    0    0  0.00000000000E+00  0.00000000000E+00  0.45593999997E+02  0.45594000000E+02  0.51100000000E-03 0.  1.
         11   -1    0    0    0    0 -0.00000000000E+00 -0.00000000000E+00 -0.45593999997E+02  0.45594000000E+02  0.51100000000E-03 0. -1.
    9900012    2    1    2    0    0 -0.28022255369E+02 -0.20440031175E+02  0.21216100389E+02  0.50528873274E+02  0.30000040803E+02 0.  0.
         12    1    1    2    0    0  0.28022255369E+02  0.20440031175E+02 -0.21216100389E+02  0.40659126726E+02  0.00000000000E+00 0. -1.
         11    1    3    3    0    0 -0.81518693392E+01  0.54531491753E+01  0.72186944047E+01  0.12177822417E+02  0.51100000000E-03 0. -1.
        -11    1    3    3    0    0 -0.17131905864E+02 -0.16753968577E+02  0.15716559067E+02  0.28656725054E+02  0.51100000000E-03 0.  1.
         12    1    3    3    0    0 -0.27384801662E+01 -0.91392117733E+01 -0.17191530834E+01  0.96943258034E+01  0.00000000000E+00 0. -1.
</event>
<event>
 7    1  0.6136531E-013  0.5052885E+02  0.7816164E-02  0.1300439E+00
        -11   -1    0    0    0    0  0.00000000000E+00  0.00000000000E+00  0.45593999997E+02  0.45594000000E+02  0.51100000000E-03 0.  1.
         11   -1    0    0    0    0 -0.00000000000E+00 -0.00000000000E+00 -0.45593999997E+02  0.45594000000E+02  0.51100000000E-03 0. -1.
    9900012    2    1    2    0    0  0.21198099653E+02  0.62419980648E+01  0.34129820138E+02  0.50528848614E+02  0.29999965847E+02 0.  0.
         12    1    1    2    0    0 -0.21198099653E+02 -0.62419980648E+01 -0.34129820138E+02  0.40659151386E+02  0.00000000000E+00 0. -1.
         11    1    3    3    0    0 -0.32751443322E+00  0.98255647408E+01  0.90966180465E+01  0.13393933266E+02  0.51100000000E-03 0. -1.
        -11    1    3    3    0    0  0.18651408729E+02 -0.25251797289E+01  0.27415598964E+02  0.33254573325E+02  0.51100000000E-03 0.  1.
        -12    1    3    3    0    0  0.28742053572E+01 -0.10583869472E+01 -0.23823968715E+01  0.38803420235E+01  0.00000000000E+00 0.  1.
</event>
<event>
 7    1  0.6136531E-013  0.5052886E+02  0.7816164E-02  0.1300439E+00
        -11   -1    0    0    0    0  0.00000000000E+00  0.00000000000E+00  0.45593999997E+02  0.45594000000E+02  0.51100000000E-03 0.  1.
         11   -1    0    0    0    0 -0.00000000000E+00 -0.00000000000E+00 -0.45593999997E+02  0.45594000000E+02  0.51100000000E-03 0. -1.
    9900012    2    1    2    0    0 -0.38628613901E+02  0.12649321551E+02 -0.99533496238E+00  0.50528857864E+02  0.29999993962E+02 0.  0.
         12    1    1    2    0    0  0.38628613901E+02 -0.12649321551E+02  0.99533496238E+00  0.40659142136E+02  0.00000000000E+00 0. -1.
         11    1    3    3    0    0 -0.35383692936E+02  0.13396028392E+02 -0.38481868007E+01  0.38029828350E+02  0.51100000000E-03 0.  1.
        -11    1    3    3    0    0 -0.16178333518E+01 -0.53361773061E+01  0.46984799226E+01  0.72916312881E+01  0.51100000000E-03 0. -1.
         12    1    3    3    0    0 -0.16270876134E+01  0.45894704650E+01 -0.18456280843E+01  0.52073982253E+01  0.00000000000E+00 0. -1.
</event>
<event>
 7    1  0.6136531E-013  0.5052885E+02  0.7816164E-02  0.1300439E+00
        -11   -1    0    0    0    0  0.00000000000E+00  0.00000000000E+00  0.45593999997E+02  0.45594000000E+02  0.51100000000E-03 0. -1.
         11   -1    0    0    0    0 -0.00000000000E+00 -0.00000000000E+00 -0.45593999997E+02  0.45594000000E+02  0.51100000000E-03 0.  1.
    9900012    2    1    2    0    0 -0.27920588018E+02 -0.26555943443E+02 -0.12976470025E+02  0.50528854144E+02  0.29999982657E+02 0.  0.
         12    1    1    2    0    0  0.27920588018E+02  0.26555943443E+02  0.12976470025E+02  0.40659145856E+02  0.00000000000E+00 0. -1.
         11    1    3    3    0    0 -0.39698826871E+01  0.57217199441E+00  0.75778182168E+01  0.85738368615E+01  0.51100000000E-03 0. -1.
        -11    1    3    3    0    0 -0.52492837252E+01 -0.45418832201E+01 -0.61969107637E+01  0.93051268711E+01  0.51100000000E-03 0.  1.
         12    1    3    3    0    0 -0.18701421606E+02 -0.22586232217E+02 -0.14357377478E+02  0.32649890412E+02  0.00000000000E+00 0. -1.
</event>
<event>
 7    1  0.6136531E-013  0.5052886E+02  0.7816164E-02  0.1300439E+00
        -11   -1    0    0    0    0  0.00000000000E+00  0.00000000000E+00  0.45593999997E+02  0.45594000000E+02  0.51100000000E-03 0. -1.
         11   -1    0    0    0    0 -0.00000000000E+00 -0.00000000000E+00 -0.45593999997E+02  0.45594000000E+02  0.51100000000E-03 0.  1.
    9900012    2    1    2    0    0  0.17585394213E+02  0.36058218938E+02 -0.66124589329E+01  0.50528857661E+02  0.29999993347E+02 0.  0.
         12    1    1    2    0    0 -0.17585394213E+02 -0.36058218938E+02  0.66124589329E+01  0.40659142339E+02  0.00000000000E+00 0. -1.
         11    1    3    3    0    0  0.91132921186E+01  0.12314342460E+02  0.67731637735E+01  0.16750249885E+02  0.51100000000E-03 0. -1.
        -11    1    3    3    0    0  0.14163666456E+02  0.16741524462E+02 -0.10430241591E+02  0.24283287024E+02  0.51100000000E-03 0.  1.
         12    1    3    3    0    0 -0.56915643622E+01  0.70023520156E+01 -0.29553811158E+01  0.94953207518E+01  0.00000000000E+00 0. -1.
</event>
<event>
 7    1  0.6136531E-013  0.5052886E+02  0.7816164E-02  0.1300439E+00
        -11   -1    0    0    0    0  0.00000000000E+00  0.00000000000E+00  0.45593999997E+02  0.45594000000E+02  0.51100000000E-03 0. -1.
         11   -1    0    0    0    0 -0.00000000000E+00 -0.00000000000E+00 -0.45593999997E+02  0.45594000000E+02  0.51100000000E-03 0.  1.
    9900012    2    1    2    0    0 -0.25365361480E+02  0.12789315414E+02 -0.29089479042E+02  0.50528856591E+02  0.29999990095E+02 0.  0.
         12    1    1    2    0    0  0.25365361480E+02 -0.12789315414E+02  0.29089479042E+02  0.40659143409E+02  0.00000000000E+00 0. -1.
         11    1    3    3    0    0  0.23206484027E+01  0.14461383001E+01 -0.43050954652E+01  0.51000560994E+01  0.51100000000E-03 0. -1.
        -11    1    3    3    0    0 -0.24436117691E+02  0.25895290917E+00 -0.93824043266E+01  0.26176715142E+02  0.51100000000E-03 0.  1.
        -12    1    3    3    0    0 -0.32498921918E+01  0.11084224205E+02 -0.15401979251E+02  0.19252085350E+02  0.00000000000E+00 0.  1.
</event>
<event>
 7    1  0.6136531E-013  0.5052888E+02  0.7816164E-02  0.1300439E+00
        -11   -1    0    0    0    0  0.00000000000E+00  0.00000000000E+00  0.45593999997E+02  0.45594000000E+02  0.51100000000E-03 0.  1.
         11   -1    0    0    0    0 -0.00000000000E+00 -0.00000000000E+00 -0.45593999997E+02  0.45594000000E+02  0.51100000000E-03 0. -1.
    9900012    2    1    2    0    0  0.31617073674E+01  0.39194413178E+02  0.10342412893E+02  0.50528881438E+02  0.30000065618E+02 0.  0.
         12    1    1    2    0    0 -0.31617073674E+01 -0.39194413178E+02 -0.10342412893E+02  0.40659118562E+02  0.00000000000E+00 0. -1.
         11    1    3    3    0    0  0.14794176316E+01  0.97493833677E+01 -0.50323993591E+01  0.11070871517E+02  0.51100000000E-03 0. -1.
        -11    1    3    3    0    0  0.36842995623E+01  0.17173242702E+02  0.19606931331E+02  0.26323489219E+02  0.51100000000E-03 0.  1.
        -12    1    3    3    0    0 -0.20020098265E+01  0.12271787108E+02 -0.42321190791E+01  0.13134520702E+02  0.00000000000E+00 0.  1.
</event>
<event>
 7    1  0.6136531E-013  0.5052886E+02  0.7816164E-02  0.1300439E+00
        -11   -1    0    0    0    0  0.00000000000E+00  0.00000000000E+00  0.45593999997E+02  0.45594000000E+02  0.51100000000E-03 0.  1.
         11   -1    0    0    0    0 -0.00000000000E+00 -0.00000000000E+00 -0.45593999997E+02  0.45594000000E+02  0.51100000000E-03 0. -1.
    9900012    2    1    2    0    0  0.15754417382E+02 -0.35777416962E+02  0.11177688082E+02  0.50528856596E+02  0.29999990108E+02 0.  0.
         12    1    1    2    0    0 -0.15754417382E+02  0.35777416962E+02 -0.11177688082E+02  0.40659143404E+02  0.00000000000E+00 0. -1.
         11    1    3    3    0    0 -0.23600924245E+01 -0.15899999941E+02 -0.53407376081E+01  0.16938226379E+02  0.51100000000E-03 0. -1.
        -11    1    3    3    0    0  0.66350969251E+01 -0.12801742067E+02  0.34797685178E+01  0.14833000382E+02  0.51100000000E-03 0.  1.
         12    1    3    3    0    0  0.11479412882E+02 -0.70756749537E+01  0.13038657173E+02  0.18757629835E+02  0.00000000000E+00 0. -1.
</event>
<event>
 7    1  0.6136531E-013  0.5052885E+02  0.7816164E-02  0.1300439E+00
        -11   -1    0    0    0    0  0.00000000000E+00  0.00000000000E+00  0.45593999997E+02  0.45594000000E+02  0.51100000000E-03 0.  1.
         11   -1    0    0    0    0 -0.00000000000E+00 -0.00000000000E+00 -0.45593999997E+02  0.45594000000E+02  0.51100000000E-03 0. -1.
    9900012    2    1    2    0    0 -0.29844791432E+02 -0.20760174686E+02  0.18206308413E+02  0.50528854723E+02  0.29999984416E+02 0.  0.
         12    1    1    2    0    0  0.29844791432E+02  0.20760174686E+02 -0.18206308413E+02  0.40659145277E+02  0.00000000000E+00 0. -1.
         11    1    3    3    0    0 -0.25895697375E+02 -0.17159878477E+02  0.23445510298E+02  0.38919667589E+02  0.51100000000E-03 0.  1.
        -11    1    3    3    0    0 -0.34848553241E+01  0.22492410733E+01 -0.73602699362E+00  0.42124859682E+01  0.51100000000E-03 0. -1.
         12    1    3    3    0    0 -0.46423873289E+00 -0.58495372831E+01 -0.45031748917E+01  0.73967011656E+01  0.00000000000E+00 0. -1.
</event>
<event>
 7    1  0.6136531E-013  0.5052886E+02  0.7816164E-02  0.1300439E+00
        -11   -1    0    0    0    0  0.00000000000E+00  0.00000000000E+00  0.45593999997E+02  0.45594000000E+02  0.51100000000E-03 0.  1.
         11   -1    0    0    0    0 -0.00000000000E+00 -0.00000000000E+00 -0.45593999997E+02  0.45594000000E+02  0.51100000000E-03 0. -1.
    9900012    2    1    2    0    0  0.23874090727E+02 -0.27939279781E+02  0.17395120239E+02  0.50528858705E+02  0.29999996519E+02 0.  0.
         12    1    1    2    0    0 -0.23874090727E+02  0.27939279781E+02 -0.17395120239E+02  0.40659141295E+02  0.00000000000E+00 0. -1.
         11    1    3    3    0    0 -0.27615160045E+01 -0.12583055365E+02  0.40842711647E+01  0.13514456118E+02  0.51100000000E-03 0. -1.
        -11    1    3    3    0    0  0.21689881008E+02 -0.18579037049E+02  0.11936740705E+02  0.30953470480E+02  0.51100000000E-03 0.  1.
         12    1    3    3    0    0  0.49457257229E+01  0.32228126327E+01  0.13741083691E+01  0.60609321067E+01  0.00000000000E+00 0. -1.
</event>
<event>
 7    1  0.6136531E-013  0.5052883E+02  0.7816164E-02  0.1300439E+00
        -11   -1    0    0    0    0  0.00000000000E+00  0.00000000000E+00  0.45593999997E+02  0.45594000000E+02  0.51100000000E-03 0. -1.
         11   -1    0    0    0    0 -0.00000000000E+00 -0.00000000000E+00 -0.45593999997E+02  0.45594000000E+02  0.51100000000E-03 0.  1.
    9900012    2    1    2    0    0 -0.63575081819E+01  0.25184438608E+02 -0.31280888653E+02  0.50528833097E+02  0.29999918682E+02 0.  0.
         12    1    1    2    0    0  0.63575081819E+01 -0.25184438608E+02  0.31280888653E+02  0.40659166903E+02  0.00000000000E+00 0. -1.
         11    1    3    3    0    0  0.26881024931E+01  0.69645072349E+01 -0.25680360324E+02  0.26743432141E+02  0.51100000000E-03 0. -1.
        -11    1    3    3    0    0 -0.41382347719E+01  0.16218362798E+02 -0.72414833622E+01  0.18237306830E+02  0.51100000000E-03 0.  1.
         12    1    3    3    0    0 -0.49073759032E+01  0.20015685750E+01  0.16409550325E+01  0.55480941263E+01  0.00000000000E+00 0. -1.
</event>
<event>
 7    1  0.6136531E-013  0.5052886E+02  0.7816164E-02  0.1300439E+00
        -11   -1    0    0    0    0  0.00000000000E+00  0.00000000000E+00  0.45593999997E+02  0.45594000000E+02  0.51100000000E-03 0. -1.
         11   -1    0    0    0    0 -0.00000000000E+00 -0.00000000000E+00 -0.45593999997E+02  0.45594000000E+02  0.51100000000E-03 0.  1.
    9900012    2    1    2    0    0 -0.36877285337E+02 -0.16421867783E+02  0.48531851160E+01  0.50528864236E+02  0.30000013332E+02 0.  0.
         12    1    1    2    0    0  0.36877285337E+02  0.16421867783E+02 -0.48531851160E+01  0.40659135764E+02  0.00000000000E+00 0. -1.
         11    1    3    3    0    0 -0.16592150784E+01 -0.76405895146E+00  0.42718877155E+01  0.46460526980E+01  0.51100000000E-03 0. -1.
        -11    1    3    3    0    0 -0.26346919414E+02 -0.21686371357E+02  0.45920196558E+01  0.34431751481E+02  0.51100000000E-03 0.  1.
        -12    1    3    3    0    0 -0.88711508443E+01  0.60285625255E+01 -0.40107222552E+01  0.11451060057E+02  0.00000000000E+00 0.  1.
</event>
<event>
 7    1  0.6136531E-013  0.5052886E+02  0.7816164E-02  0.1300439E+00
        -11   -1    0    0    0    0  0.00000000000E+00  0.00000000000E+00  0.45593999997E+02  0.45594000000E+02  0.51100000000E-03 0.  1.
         11   -1    0    0    0    0 -0.00000000000E+00 -0.00000000000E+00 -0.45593999997E+02  0.45594000000E+02  0.51100000000E-03 0. -1.
    9900012    2    1    2    0    0 -0.25398820196E+02  0.65288589657E+01  0.31071529360E+02  0.50528855844E+02  0.29999987822E+02 0.  0.
         12    1    1    2    0    0  0.25398820196E+02 -0.65288589657E+01 -0.31071529360E+02  0.40659144156E+02  0.00000000000E+00 0. -1.
         11    1    3    3    0    0 -0.18440787895E+02 -0.39610571128E+01  0.68461161165E+01  0.20065441381E+02  0.51100000000E-03 0. -1.
        -11    1    3    3    0    0  0.27179948475E+01  0.54488838516E+01  0.14952228078E+02  0.16144564286E+02  0.51100000000E-03 0.  1.
        -12    1    3    3    0    0 -0.96760271479E+01  0.50410322269E+01  0.92731851654E+01  0.14318850177E+02  0.00000000000E+00 0.  1.
</event>
<event>
 7    1  0.6136531E-013  0.5052885E+02  0.7816164E-02  0.1300439E+00
        -11   -1    0    0    0    0  0.00000000000E+00  0.00000000000E+00  0.45593999997E+02  0.45594000000E+02  0.51100000000E-03 0.  1.
         11   -1    0    0    0    0 -0.00000000000E+00 -0.00000000000E+00 -0.45593999997E+02  0.45594000000E+02  0.51100000000E-03 0. -1.
    9900012    2    1    2    0    0 -0.13132152116E+02 -0.20335392026E+02  0.32667789994E+02  0.50528854766E+02  0.29999984547E+02 0.  0.
         12    1    1    2    0    0  0.13132152116E+02  0.20335392026E+02 -0.32667789994E+02  0.40659145234E+02  0.00000000000E+00 0. -1.
         11    1    3    3    0    0  0.28330316572E+01 -0.47967037015E+01 -0.35786360444E+01  0.66212590169E+01  0.51100000000E-03 0. -1.
        -11    1    3    3    0    0 -0.45855659597E+01 -0.27115293528E+00  0.13403846135E+02  0.14169122435E+02  0.51100000000E-03 0.  1.
         12    1    3    3    0    0 -0.11379617813E+02 -0.15267535389E+02  0.22842579903E+02  0.29738473314E+02  0.00000000000E+00 0. -1.
</event>
<event>
 7    1  0.6136531E-013  0.5052886E+02  0.7816164E-02  0.1300439E+00
        -11   -1    0    0    0    0  0.00000000000E+00  0.00000000000E+00  0.45593999997E+02  0.45594000000E+02  0.51100000000E-03 0.  1.
         11   -1    0    0    0    0 -0.00000000000E+00 -0.00000000000E+00 -0.45593999997E+02  0.45594000000E+02  0.51100000000E-03 0. -1.
    9900012    2    1    2    0    0 -0.15073589372E+02 -0.75943893591E+00  0.37754145314E+02  0.50528864097E+02  0.30000012908E+02 0.  0.
         12    1    1    2    0    0  0.15073589372E+02  0.75943893591E+00 -0.37754145314E+02  0.40659135903E+02  0.00000000000E+00 0. -1.
         11    1    3    3    0    0 -0.59960866263E+01  0.22088938759E+01  0.28637654247E+02  0.29341907027E+02  0.51100000000E-03 0. -1.
        -11    1    3    3    0    0 -0.62766491139E+01  0.66175228670E+01  0.38944735681E+01  0.99174017579E+01  0.51100000000E-03 0.  1.
         12    1    3    3    0    0 -0.28008536316E+01 -0.95858556788E+01  0.52220174986E+01  0.11269555311E+02  0.00000000000E+00 0. -1.
</event>
<event>
 7    1  0.6136531E-013  0.5052888E+02  0.7816164E-02  0.1300439E+00
        -11   -1    0    0    0    0  0.00000000000E+00  0.00000000000E+00  0.45593999997E+02  0.45594000000E+02  0.51100000000E-03 0.  1.
         11   -1    0    0    0    0 -0.00000000000E+00 -0.00000000000E+00 -0.45593999997E+02  0.45594000000E+02  0.51100000000E-03 0. -1.
    9900012    2    1    2    0    0  0.22783026819E+02  0.34675531762E+00  0.33674582504E+02  0.50528879779E+02  0.30000060576E+02 0.  0.
         12    1    1    2    0    0 -0.22783026819E+02 -0.34675531762E+00 -0.33674582504E+02  0.40659120221E+02  0.00000000000E+00 0. -1.
         11    1    3    3    0    0 -0.22033115427E+01 -0.48739805323E+01 -0.18774764744E+01  0.56687905374E+01  0.51100000000E-03 0. -1.
        -11    1    3    3    0    0  0.17059983892E+02  0.49424325245E+01  0.30966464577E+02  0.35698636085E+02  0.51100000000E-03 0.  1.
        -12    1    3    3    0    0  0.79263544704E+01  0.27830332551E+00  0.45855944018E+01  0.91614531571E+01  0.00000000000E+00 0.  1.
</event>
<event>
 7    1  0.6136531E-013  0.5052886E+02  0.7816164E-02  0.1300439E+00
        -11   -1    0    0    0    0  0.00000000000E+00  0.00000000000E+00  0.45593999997E+02  0.45594000000E+02  0.51100000000E-03 0.  1.
         11   -1    0    0    0    0 -0.00000000000E+00 -0.00000000000E+00 -0.45593999997E+02  0.45594000000E+02  0.51100000000E-03 0. -1.
    9900012    2    1    2    0    0 -0.16418162843E+02  0.17946118375E+02  0.32581386990E+02  0.50528855714E+02  0.29999987429E+02 0.  0.
         12    1    1    2    0    0  0.16418162843E+02 -0.17946118375E+02 -0.32581386990E+02  0.40659144286E+02  0.00000000000E+00 0. -1.
         11    1    3    3    0    0 -0.93019231178E+01 -0.54525108378E+01  0.94151182606E+01  0.14314331987E+02  0.51100000000E-03 0. -1.
        -11    1    3    3    0    0 -0.27676374686E+00  0.13849523807E+02  0.19481551835E+02  0.23904325341E+02  0.51100000000E-03 0.  1.
        -12    1    3    3    0    0 -0.68394759781E+01  0.95491054062E+01  0.36847168945E+01  0.12310198386E+02  0.00000000000E+00 0.  1.
</event>
<event>
 7    1  0.6136531E-013  0.5052885E+02  0.7816164E-02  0.1300439E+00
        -11   -1    0    0    0    0  0.00000000000E+00  0.00000000000E+00  0.45593999997E+02  0.45594000000E+02  0.51100000000E-03 0.  1.
         11   -1    0    0    0    0 -0.00000000000E+00 -0.00000000000E+00 -0.45593999997E+02  0.45594000000E+02  0.51100000000E-03 0. -1.
    9900012    2    1    2    0    0 -0.21331378979E+02  0.24306754821E+02  0.24643867188E+02  0.50528852824E+02  0.29999978645E+02 0.  0.
         12    1    1    2    0    0  0.21331378979E+02 -0.24306754821E+02 -0.24643867188E+02  0.40659147176E+02  0.00000000000E+00 0. -1.
         11    1    3    3    0    0 -0.60205463163E+01 -0.31805238768E+01  0.48281555021E+01  0.83470830769E+01  0.51100000000E-03 0. -1.
        -11    1    3    3    0    0 -0.11136898954E+01  0.15150012504E+02  0.17590404530E+02  0.23241891400E+02  0.51100000000E-03 0.  1.
         12    1    3    3    0    0 -0.14197142767E+02  0.12337266194E+02  0.22253071559E+01  0.18939878348E+02  0.00000000000E+00 0. -1.
</event>
<event>
 7    1  0.6136531E-013  0.5052886E+02  0.7816164E-02  0.1300439E+00
        -11   -1    0    0    0    0  0.00000000000E+00  0.00000000000E+00  0.45593999997E+02  0.45594000000E+02  0.51100000000E-03 0.  1.
         11   -1    0    0    0    0 -0.00000000000E+00 -0.00000000000E+00 -0.45593999997E+02  0.45594000000E+02  0.51100000000E-03 0. -1.
    9900012    2    1    2    0    0  0.46772952869E+01 -0.25298572941E+02  0.31484447936E+02  0.50528863931E+02  0.30000012404E+02 0.  0.
         12    1    1    2    0    0 -0.46772952869E+01  0.25298572941E+02 -0.31484447936E+02  0.40659136069E+02  0.00000000000E+00 0. -1.
         11    1    3    3    0    0  0.89169244613E+01 -0.31687491522E+01  0.15603249769E+02  0.18248668901E+02  0.51100000000E-03 0.  1.
        -11    1    3    3    0    0 -0.73579896845E+01 -0.21370386234E+02  0.17593943920E+02  0.28642281385E+02  0.51100000000E-03 0. -1.
         12    1    3    3    0    0  0.31183605102E+01 -0.75943755480E+00 -0.17127457535E+01  0.36379136448E+01  0.00000000000E+00 0. -1.
</event>
<event>
 7    1  0.6136531E-013  0.5052886E+02  0.7816164E-02  0.1300439E+00
        -11   -1    0    0    0    0  0.00000000000E+00  0.00000000000E+00  0.45593999997E+02  0.45594000000E+02  0.51100000000E-03 0. -1.
         11   -1    0    0    0    0 -0.00000000000E+00 -0.00000000000E+00 -0.45593999997E+02  0.45594000000E+02  0.51100000000E-03 0.  1.
    9900012    2    1    2    0    0  0.62409195828E+01  0.36702645205E+02  0.16344187972E+02  0.50528859296E+02  0.29999998317E+02 0.  0.
         12    1    1    2    0    0 -0.62409195828E+01 -0.36702645205E+02 -0.16344187972E+02  0.40659140704E+02  0.00000000000E+00 0. -1.
         11    1    3    3    0    0  0.48239901140E+01  0.39342477406E+01  0.13790621070E+02  0.15130446645E+02  0.51100000000E-03 0. -1.
        -11    1    3    3    0    0  0.25608858987E+01  0.28940770847E+02  0.65117724710E+01  0.29774645838E+02  0.51100000000E-03 0.  1.
        -12    1    3    3    0    0 -0.11439564300E+01  0.38276266175E+01 -0.39582055697E+01  0.56237668131E+01  0.00000000000E+00 0.  1.
</event>
<event>
 7    1  0.6136531E-013  0.5052887E+02  0.7816164E-02  0.1300439E+00
        -11   -1    0    0    0    0  0.00000000000E+00  0.00000000000E+00  0.45593999997E+02  0.45594000000E+02  0.51100000000E-03 0.  1.
         11   -1    0    0    0    0 -0.00000000000E+00 -0.00000000000E+00 -0.45593999997E+02  0.45594000000E+02  0.51100000000E-03 0. -1.
    9900012    2    1    2    0    0  0.17034286452E+02  0.32633339488E+02  0.17264515494E+02  0.50528865033E+02  0.30000015753E+02 0.  0.
         12    1    1    2    0    0 -0.17034286452E+02 -0.32633339488E+02 -0.17264515494E+02  0.40659134967E+02  0.00000000000E+00 0. -1.
         11    1    3    3    0    0 -0.53839570343E+01  0.11730972672E+02  0.95621488929E+01  0.16063542725E+02  0.51100000000E-03 0. -1.
        -11    1    3    3    0    0  0.10794256511E+02  0.10389930060E+02 -0.32683846103E+01  0.15334567438E+02  0.51100000000E-03 0.  1.
        -12    1    3    3    0    0  0.11623986976E+02  0.10512436756E+02  0.10970751211E+02  0.19130754870E+02  0.00000000000E+00 0.  1.
</event>
<event>
 7    1  0.6136531E-013  0.5052885E+02  0.7816164E-02  0.1300439E+00
        -11   -1    0    0    0    0  0.00000000000E+00  0.00000000000E+00  0.45593999997E+02  0.45594000000E+02  0.51100000000E-03 0.  1.
         11   -1    0    0    0    0 -0.00000000000E+00 -0.00000000000E+00 -0.45593999997E+02  0.45594000000E+02  0.51100000000E-03 0. -1.
    9900012    2    1    2    0    0 -0.40315121687E+02  0.76517115761E+00 -0.52222394800E+01  0.50528852091E+02  0.29999976416E+02 0.  0.
         12    1    1    2    0    0  0.40315121687E+02 -0.76517115761E+00  0.52222394800E+01  0.40659147909E+02  0.00000000000E+00 0. -1.
         11    1    3    3    0    0  0.34046248163E+01  0.11291945062E+01  0.87803417389E+00  0.36928978654E+01  0.51100000000E-03 0. -1.
        -11    1    3    3    0    0 -0.28636980820E+02  0.64687657509E+01 -0.52150491266E+00  0.29363132811E+02  0.51100000000E-03 0.  1.
         12    1    3    3    0    0 -0.15082765682E+02 -0.68327890995E+01 -0.55787687412E+01  0.17472821414E+02  0.00000000000E+00 0. -1.
</event>
<event>
 7    1  0.6136531E-013  0.5052886E+02  0.7816164E-02  0.1300439E+00
        -11   -1    0    0    0    0  0.00000000000E+00  0.00000000000E+00  0.45593999997E+02  0.45594000000E+02  0.51100000000E-03 0. -1.
         11   -1    0    0    0    0 -0.00000000000E+00 -0.00000000000E+00 -0.45593999997E+02  0.45594000000E+02  0.51100000000E-03 0.  1.
    9900012    2    1    2    0    0  0.37500389148E+02 -0.15192230327E+02 -0.40103209972E+01  0.50528859292E+02  0.29999998304E+02 0.  0.
         12    1    1    2    0    0 -0.37500389148E+02  0.15192230327E+02  0.40103209972E+01  0.40659140708E+02  0.00000000000E+00 0. -1.
         11    1    3    3    0    0  0.29157033461E+02 -0.10881108989E+02  0.90409151496E+01  0.32407858308E+02  0.51100000000E-03 0. -1.
        -11    1    3    3    0    0  0.87007922609E+01 -0.23645117894E+01 -0.13360082988E+02  0.16117894394E+02  0.51100000000E-03 0.  1.
         12    1    3    3    0    0 -0.35743657392E+00 -0.19466095495E+01  0.30884684150E+00  0.20031065908E+01  0.00000000000E+00 0. -1.
</event>
<event>
 7    1  0.6136531E-013  0.5052886E+02  0.7816164E-02  0.1300439E+00
        -11   -1    0    0    0    0  0.00000000000E+00  0.00000000000E+00  0.45593999997E+02  0.45594000000E+02  0.51100000000E-03 0.  1.
         11   -1    0    0    0    0 -0.00000000000E+00 -0.00000000000E+00 -0.45593999997E+02  0.45594000000E+02  0.51100000000E-03 0. -1.
    9900012    2    1    2    0    0  0.20108181175E+02  0.32737447476E+02 -0.13307373864E+02  0.50528860602E+02  0.30000002286E+02 0.  0.
         12    1    1    2    0    0 -0.20108181175E+02 -0.32737447476E+02  0.13307373864E+02  0.40659139398E+02  0.00000000000E+00 0. -1.
         11    1    3    3    0    0 -0.38162662688E+01  0.60192787818E+01 -0.40038625418E+01  0.81747489748E+01  0.51100000000E-03 0. -1.
        -11    1    3    3    0    0  0.17551906910E+02  0.25697792878E+02 -0.10820644884E+00  0.31120053083E+02  0.51100000000E-03 0.  1.
        -12    1    3    3    0    0  0.63725405341E+01  0.10203758161E+01 -0.91953048735E+01  0.11234058545E+02  0.00000000000E+00 0.  1.
</event>
<event>
 7    1  0.6136531E-013  0.5052886E+02  0.7816164E-02  0.1300439E+00
        -11   -1    0    0    0    0  0.00000000000E+00  0.00000000000E+00  0.45593999997E+02  0.45594000000E+02  0.51100000000E-03 0. -1.
         11   -1    0    0    0    0 -0.00000000000E+00 -0.00000000000E+00 -0.45593999997E+02  0.45594000000E+02  0.51100000000E-03 0.  1.
    9900012    2    1    2    0    0 -0.36835089730E+02 -0.16897277646E+02 -0.32900158104E+01  0.50528855503E+02  0.29999986786E+02 0.  0.
         12    1    1    2    0    0  0.36835089730E+02  0.16897277646E+02  0.32900158104E+01  0.40659144497E+02  0.00000000000E+00 0. -1.
         11    1    3    3    0    0 -0.27303991533E+01 -0.11174039628E+00  0.26853167222E+01  0.38312519641E+01  0.51100000000E-03 0. -1.
        -11    1    3    3    0    0 -0.18257376069E+02 -0.41505022971E+01 -0.15497026054E+02  0.24304655254E+02  0.51100000000E-03 0.  1.
        -12    1    3    3    0    0 -0.15847314507E+02 -0.12635034952E+02  0.95216935216E+01  0.22392948284E+02  0.00000000000E+00 0.  1.
</event>
<event>
 7    1  0.6136531E-013  0.5052885E+02  0.7816164E-02  0.1300439E+00
        -11   -1    0    0    0    0  0.00000000000E+00  0.00000000000E+00  0.45593999997E+02  0.45594000000E+02  0.51100000000E-03 0.  1.
         11   -1    0    0    0    0 -0.00000000000E+00 -0.00000000000E+00 -0.45593999997E+02  0.45594000000E+02  0.51100000000E-03 0. -1.
    9900012    2    1    2    0    0  0.22025072869E+02 -0.23468485174E+02  0.24845376702E+02  0.50528851279E+02  0.29999973947E+02 0.  0.
         12    1    1    2    0    0 -0.22025072869E+02  0.23468485174E+02 -0.24845376702E+02  0.40659148721E+02  0.00000000000E+00 0. -1.
         11    1    3    3    0    0  0.47523915585E+01 -0.14430138307E+02 -0.11194227735E+01  0.15233752810E+02  0.51100000000E-03 0. -1.
        -11    1    3    3    0    0  0.10924677780E+01 -0.26505848779E+01  0.13734449335E+02  0.14030473436E+02  0.51100000000E-03 0.  1.
         12    1    3    3    0    0  0.16180213533E+02 -0.63877619896E+01  0.12230350140E+02  0.21264625032E+02  0.00000000000E+00 0. -1.
</event>
<event>
 7    1  0.6136531E-013  0.5052885E+02  0.7816164E-02  0.1300439E+00
        -11   -1    0    0    0    0  0.00000000000E+00  0.00000000000E+00  0.45593999997E+02  0.45594000000E+02  0.51100000000E-03 0.  1.
         11   -1    0    0    0    0 -0.00000000000E+00 -0.00000000000E+00 -0.45593999997E+02  0.45594000000E+02  0.51100000000E-03 0. -1.
    9900012    2    1    2    0    0  0.27541925778E+02 -0.15374662173E+02  0.25655962267E+02  0.50528852046E+02  0.29999976280E+02 0.  0.
         12    1    1    2    0    0 -0.27541925778E+02  0.15374662173E+02 -0.25655962267E+02  0.40659147954E+02  0.00000000000E+00 0. -1.
         11    1    3    3    0    0  0.26372697782E+02  0.12949555256E+01  0.14745367731E+02  0.30242717601E+02  0.51100000000E-03 0. -1.
        -11    1    3    3    0    0 -0.20250146403E+00 -0.14358840995E+02  0.97593117603E+01  0.17362646338E+02  0.51100000000E-03 0.  1.
         12    1    3    3    0    0  0.13717294597E+01 -0.23107767039E+01  0.11512827753E+01  0.29234881075E+01  0.00000000000E+00 0. -1.
</event>
<event>
 7    1  0.6136531E-013  0.5052885E+02  0.7816164E-02  0.1300439E+00
        -11   -1    0    0    0    0  0.00000000000E+00  0.00000000000E+00  0.45593999997E+02  0.45594000000E+02  0.51100000000E-03 0.  1.
         11   -1    0    0    0    0 -0.00000000000E+00 -0.00000000000E+00 -0.45593999997E+02  0.45594000000E+02  0.51100000000E-03 0. -1.
    9900012    2    1    2    0    0 -0.30721727500E+02 -0.24019659203E+02  0.11506427335E+02  0.50528850491E+02  0.29999971552E+02 0.  0.
         12    1    1    2    0    0  0.30721727500E+02  0.24019659203E+02 -0.11506427335E+02  0.40659149509E+02  0.00000000000E+00 0. -1.
         11    1    3    3    0    0 -0.29158473885E+02 -0.60067668889E+01  0.31739641507E+01  0.29939470544E+02  0.51100000000E-03 0. -1.
        -11    1    3    3    0    0 -0.32663810886E+01 -0.13055135499E+02  0.48922863298E+01  0.14319227427E+02  0.51100000000E-03 0.  1.
         12    1    3    3    0    0  0.17031274739E+01 -0.49577568145E+01  0.34401768550E+01  0.62701525195E+01  0.00000000000E+00 0. -1.
</event>
<event>
 7    1  0.6136531E-013  0.5052886E+02  0.7816164E-02  0.1300439E+00
        -11   -1    0    0    0    0  0.00000000000E+00  0.00000000000E+00  0.45593999997E+02  0.45594000000E+02  0.51100000000E-03 0. -1.
         11   -1    0    0    0    0 -0.00000000000E+00 -0.00000000000E+00 -0.45593999997E+02  0.45594000000E+02  0.51100000000E-03 0.  1.
    9900012    2    1    2    0    0  0.13631658923E+02  0.37108107083E+02 -0.95043090948E+01  0.50528860466E+02  0.30000001871E+02 0.  0.
         12    1    1    2    0    0 -0.13631658923E+02 -0.37108107083E+02  0.95043090948E+01  0.40659139534E+02  0.00000000000E+00 0. -1.
         11    1    3    3    0    0 -0.45857247041E+01  0.21867449679E+00  0.16796134278E+01  0.48885367059E+01  0.51100000000E-03 0. -1.
        -11    1    3    3    0    0  0.15429071824E+02  0.35205322013E+02 -0.14415241197E+02  0.41052041782E+02  0.51100000000E-03 0.  1.
        -12    1    3    3    0    0  0.27883118035E+01  0.16841105733E+01  0.32313186742E+01  0.45882819781E+01  0.00000000000E+00 0.  1.
</event>
<event>
 7    1  0.6136531E-013  0.5052886E+02  0.7816164E-02  0.1300439E+00
        -11   -1    0    0    0    0  0.00000000000E+00  0.00000000000E+00  0.45593999997E+02  0.45594000000E+02  0.51100000000E-03 0.  1.
         11   -1    0    0    0    0 -0.00000000000E+00 -0.00000000000E+00 -0.45593999997E+02  0.45594000000E+02  0.51100000000E-03 0. -1.
    9900012    2    1    2    0    0 -0.34259110241E+01  0.18203850403E+01  0.40473633669E+02  0.50528859694E+02  0.29999999527E+02 0.  0.
         12    1    1    2    0    0  0.34259110241E+01 -0.18203850403E+01 -0.40473633669E+02  0.40659140306E+02  0.00000000000E+00 0. -1.
         11    1    3    3    0    0  0.48843580214E+01 -0.36242144546E+01  0.28082834442E+02  0.28733908093E+02  0.51100000000E-03 0.  1.
        -11    1    3    3    0    0 -0.17913077916E+01  0.79205200355E+01  0.65911412741E+00  0.81472604555E+01  0.51100000000E-03 0. -1.
         12    1    3    3    0    0 -0.65189612540E+01 -0.24759205407E+01  0.11731685099E+02  0.13647691146E+02  0.00000000000E+00 0. -1.
</event>
<event>
 7    1  0.6136531E-013  0.5052886E+02  0.7816164E-02  0.1300439E+00
        -11   -1    0    0    0    0  0.00000000000E+00  0.00000000000E+00  0.45593999997E+02  0.45594000000E+02  0.51100000000E-03 0.  1.
         11   -1    0    0    0    0 -0.00000000000E+00 -0.00000000000E+00 -0.45593999997E+02  0.45594000000E+02  0.51100000000E-03 0. -1.
    9900012    2    1    2    0    0  0.17954458526E+02 -0.10758684779E+02  0.34857622442E+02  0.50528859313E+02  0.29999998367E+02 0.  0.
         12    1    1    2    0    0 -0.17954458526E+02  0.10758684779E+02 -0.34857622442E+02  0.40659140687E+02  0.00000000000E+00 0. -1.
         11    1    3    3    0    0  0.62236269647E+01  0.13600297281E+01  0.30200559574E+01  0.70501029570E+01  0.51100000000E-03 0. -1.
        -11    1    3    3    0    0  0.62720538361E+01 -0.64266192647E+01  0.34109238686E+02  0.35271521919E+02  0.51100000000E-03 0.  1.
        -12    1    3    3    0    0  0.54587777255E+01 -0.56920952427E+01 -0.22716722016E+01  0.82072344367E+01  0.00000000000E+00 0.  1.
</event>
<event>
 7    1  0.6136531E-013  0.5052886E+02  0.7816164E-02  0.1300439E+00
        -11   -1    0    0    0    0  0.00000000000E+00  0.00000000000E+00  0.45593999997E+02  0.45594000000E+02  0.51100000000E-03 0.  1.
         11   -1    0    0    0    0 -0.00000000000E+00 -0.00000000000E+00 -0.45593999997E+02  0.45594000000E+02  0.51100000000E-03 0. -1.
    9900012    2    1    2    0    0  0.23444178531E+02  0.10849468423E+02  0.31397849750E+02  0.50528862762E+02  0.30000008851E+02 0.  0.
         12    1    1    2    0    0 -0.23444178531E+02 -0.10849468423E+02 -0.31397849750E+02  0.40659137238E+02  0.00000000000E+00 0. -1.
         11    1    3    3    0    0 -0.27756743619E+01  0.92217088460E+00  0.17452260777E+02  0.17695654094E+02  0.51100000000E-03 0. -1.
        -11    1    3    3    0    0  0.25345997613E+02  0.66780265509E+01  0.11256142413E+02  0.28525714293E+02  0.51100000000E-03 0.  1.
        -12    1    3    3    0    0  0.87385527935E+00  0.32492709873E+01  0.26894465594E+01  0.43074943754E+01  0.00000000000E+00 0.  1.
</event>
<event>
 7    1  0.6136531E-013  0.5052888E+02  0.7816164E-02  0.1300439E+00
        -11   -1    0    0    0    0  0.00000000000E+00  0.00000000000E+00  0.45593999997E+02  0.45594000000E+02  0.51100000000E-03 0.  1.
         11   -1    0    0    0    0 -0.00000000000E+00 -0.00000000000E+00 -0.45593999997E+02  0.45594000000E+02  0.51100000000E-03 0. -1.
    9900012    2    1    2    0    0  0.28633402223E+01 -0.38354778671E+02  0.13186228883E+02  0.50528875608E+02  0.30000047899E+02 0.  0.
         12    1    1    2    0    0 -0.28633402223E+01  0.38354778671E+02 -0.13186228883E+02  0.40659124392E+02  0.00000000000E+00 0. -1.
         11    1    3    3    0    0  0.37739476376E+00 -0.13463691378E+00  0.60532137918E+01  0.60664611906E+01  0.51100000000E-03 0. -1.
        -11    1    3    3    0    0  0.24701746307E+01 -0.28140277382E+02 -0.50010609533E+01  0.28687760190E+02  0.51100000000E-03 0.  1.
        -12    1    3    3    0    0  0.15770827867E-01 -0.10079864376E+02  0.12134076044E+02  0.15774654227E+02  0.00000000000E+00 0.  1.
</event>
<event>
 7    1  0.6136531E-013  0.5052886E+02  0.7816164E-02  0.1300439E+00
        -11   -1    0    0    0    0  0.00000000000E+00  0.00000000000E+00  0.45593999997E+02  0.45594000000E+02  0.51100000000E-03 0.  1.
         11   -1    0    0    0    0 -0.00000000000E+00 -0.00000000000E+00 -0.45593999997E+02  0.45594000000E+02  0.51100000000E-03 0. -1.
    9900012    2    1    2    0    0  0.53316459859E+01 -0.15894428643E+02  0.37041955653E+02  0.50528858477E+02  0.29999995828E+02 0.  0.
         12    1    1    2    0    0 -0.53316459859E+01  0.15894428643E+02 -0.37041955653E+02  0.40659141523E+02  0.00000000000E+00 0. -1.
         11    1    3    3    0    0  0.28381527151E+01 -0.19821001915E+02  0.30976953739E+02  0.36884941249E+02  0.51100000000E-03 0. -1.
        -11    1    3    3    0    0  0.66385496318E+01  0.11243876143E+01  0.53288289919E+01  0.85866761560E+01  0.51100000000E-03 0.  1.
         12    1    3    3    0    0 -0.41450563610E+01  0.28021856576E+01  0.73617292207E+00  0.50572410727E+01  0.00000000000E+00 0. -1.
</event>
<event>
 7    1  0.6136531E-013  0.5052887E+02  0.7816164E-02  0.1300439E+00
        -11   -1    0    0    0    0  0.00000000000E+00  0.00000000000E+00  0.45593999997E+02  0.45594000000E+02  0.51100000000E-03 0. -1.
         11   -1    0    0    0    0 -0.00000000000E+00 -0.00000000000E+00 -0.45593999997E+02  0.45594000000E+02  0.51100000000E-03 0.  1.
    9900012    2    1    2    0    0  0.66115500577E+01  0.40058130720E+02 -0.21905217869E+01  0.50528870439E+02  0.30000032186E+02 0.  0.
         12    1    1    2    0    0 -0.66115500577E+01 -0.40058130720E+02  0.21905217869E+01  0.40659129561E+02  0.00000000000E+00 0. -1.
         11    1    3    3    0    0  0.12788172221E+02  0.19657837682E+02 -0.12203809787E+02  0.26436734001E+02  0.51100000000E-03 0. -1.
        -11    1    3    3    0    0 -0.52034002581E+01  0.95615995496E+01  0.63891137622E+01  0.12622215935E+02  0.51100000000E-03 0.  1.
         12    1    3    3    0    0 -0.97322190530E+00  0.10838693489E+02  0.36241742377E+01  0.11469920502E+02  0.00000000000E+00 0. -1.
</event>
<event>
 7    1  0.6136531E-013  0.5052888E+02  0.7816164E-02  0.1300439E+00
        -11   -1    0    0    0    0  0.00000000000E+00  0.00000000000E+00  0.45593999997E+02  0.45594000000E+02  0.51100000000E-03 0. -1.
         11   -1    0    0    0    0 -0.00000000000E+00 -0.00000000000E+00 -0.45593999997E+02  0.45594000000E+02  0.51100000000E-03 0.  1.
    9900012    2    1    2    0    0 -0.31264858969E+02  0.16205355501E+02 -0.20323860637E+02  0.50528877230E+02  0.30000052827E+02 0.  0.
         12    1    1    2    0    0  0.31264858969E+02 -0.16205355501E+02  0.20323860637E+02  0.40659122770E+02  0.00000000000E+00 0. -1.
         11    1    3    3    0    0 -0.40028524064E+01  0.51431587513E+01  0.69101574676E+01  0.94986939006E+01  0.51100000000E-03 0. -1.
        -11    1    3    3    0    0 -0.10870338961E+02  0.89837590913E+01 -0.11231375358E+02  0.18028199833E+02  0.51100000000E-03 0.  1.
         12    1    3    3    0    0 -0.16391667602E+02  0.20784376579E+01 -0.16002642747E+02  0.23001983496E+02  0.00000000000E+00 0. -1.
</event>
<event>
 7    1  0.6136531E-013  0.5052885E+02  0.7816164E-02  0.1300439E+00
        -11   -1    0    0    0    0  0.00000000000E+00  0.00000000000E+00  0.45593999997E+02  0.45594000000E+02  0.51100000000E-03 0.  1.
         11   -1    0    0    0    0 -0.00000000000E+00 -0.00000000000E+00 -0.45593999997E+02  0.45594000000E+02  0.51100000000E-03 0. -1.
    9900012    2    1    2    0    0 -0.37544344216E+02  0.15246664158E+02  0.33358340567E+01  0.50528851713E+02  0.29999975267E+02 0.  0.
         12    1    1    2    0    0  0.37544344216E+02 -0.15246664158E+02 -0.33358340567E+01  0.40659148287E+02  0.00000000000E+00 0. -1.
         11    1    3    3    0    0 -0.94201058060E-01  0.27454529698E+01  0.68138428635E+01  0.73467571539E+01  0.51100000000E-03 0. -1.
        -11    1    3    3    0    0 -0.25371527556E+02  0.88373236139E+00 -0.63740362571E+01  0.26174868326E+02  0.51100000000E-03 0.  1.
        -12    1    3    3    0    0 -0.12078615602E+02  0.11617478827E+02  0.28960274502E+01  0.17007226233E+02  0.00000000000E+00 0.  1.
</event>
<event>
 7    1  0.6136531E-013  0.5052886E+02  0.7816164E-02  0.1300439E+00
        -11   -1    0    0    0    0  0.00000000000E+00  0.00000000000E+00  0.45593999997E+02  0.45594000000E+02  0.51100000000E-03 0.  1.
         11   -1    0    0    0    0 -0.00000000000E+00 -0.00000000000E+00 -0.45593999997E+02  0.45594000000E+02  0.51100000000E-03 0. -1.
    9900012    2    1    2    0    0  0.15198149506E+02 -0.25828304597E+02  0.27478728407E+02  0.50528861032E+02  0.30000003593E+02 0.  0.
         12    1    1    2    0    0 -0.15198149506E+02  0.25828304597E+02 -0.27478728407E+02  0.40659138968E+02  0.00000000000E+00 0. -1.
         11    1    3    3    0    0  0.81896184175E+01  0.40772693899E+01  0.82408331154E+01  0.12312810654E+02  0.51100000000E-03 0. -1.
        -11    1    3    3    0    0  0.17473101282E+01 -0.19590158398E+02  0.58593648321E+01  0.20522172284E+02  0.51100000000E-03 0.  1.
         12    1    3    3    0    0  0.52612209603E+01 -0.10315415589E+02  0.13378530460E+02  0.17693878094E+02  0.00000000000E+00 0. -1.
</event>
<event>
 7    1  0.6136531E-013  0.5052885E+02  0.7816164E-02  0.1300439E+00
        -11   -1    0    0    0    0  0.00000000000E+00  0.00000000000E+00  0.45593999997E+02  0.45594000000E+02  0.51100000000E-03 0.  1.
         11   -1    0    0    0    0 -0.00000000000E+00 -0.00000000000E+00 -0.45593999997E+02  0.45594000000E+02  0.51100000000E-03 0. -1.
    9900012    2    1    2    0    0  0.36971802407E+02  0.23285529845E+01  0.16757985522E+02  0.50528850833E+02  0.29999972592E+02 0.  0.
         12    1    1    2    0    0 -0.36971802407E+02 -0.23285529845E+01 -0.16757985522E+02  0.40659149167E+02  0.00000000000E+00 0. -1.
         11    1    3    3    0    0 -0.36088728857E+01 -0.21631632275E+01 -0.14691733508E+01  0.44566477592E+01  0.51100000000E-03 0. -1.
        -11    1    3    3    0    0  0.32869589191E+02  0.69987360370E+01  0.11446626790E+02  0.35502358581E+02  0.51100000000E-03 0.  1.
         12    1    3    3    0    0  0.77110861019E+01 -0.25070198250E+01  0.67805320829E+01  0.10569844493E+02  0.00000000000E+00 0. -1.
</event>
<event>
 7    1  0.6136531E-013  0.5052886E+02  0.7816164E-02  0.1300439E+00
        -11   -1    0    0    0    0  0.00000000000E+00  0.00000000000E+00  0.45593999997E+02  0.45594000000E+02  0.51100000000E-03 0.  1.
         11   -1    0    0    0    0 -0.00000000000E+00 -0.00000000000E+00 -0.45593999997E+02  0.45594000000E+02  0.51100000000E-03 0. -1.
    9900012    2    1    2    0    0 -0.88568966421E+01  0.32772764814E+02  0.22375585511E+02  0.50528861314E+02  0.30000004451E+02 0.  0.
         12    1    1    2    0    0  0.88568966421E+01 -0.32772764814E+02 -0.22375585511E+02  0.40659138686E+02  0.00000000000E+00 0. -1.
         11    1    3    3    0    0  0.58822365125E+01  0.10249667529E+02  0.12912474159E+02  0.17503953268E+02  0.51100000000E-03 0. -1.
        -11    1    3    3    0    0 -0.91187729473E+01  0.23627456209E+02  0.51242567719E+01  0.25839247565E+02  0.51100000000E-03 0.  1.
         12    1    3    3    0    0 -0.56203602073E+01 -0.11043589237E+01  0.43388545805E+01  0.71856604820E+01  0.00000000000E+00 0. -1.
</event>
<event>
 7    1  0.6136531E-013  0.5052887E+02  0.7816164E-02  0.1300439E+00
        -11   -1    0    0    0    0  0.00000000000E+00  0.00000000000E+00  0.45593999997E+02  0.45594000000E+02  0.51100000000E-03 0.  1.
         11   -1    0    0    0    0 -0.00000000000E+00 -0.00000000000E+00 -0.45593999997E+02  0.45594000000E+02  0.51100000000E-03 0. -1.
    9900012    2    1    2    0    0  0.30040297070E+02 -0.79038832488E+01  0.26234980053E+02  0.50528868223E+02  0.30000025452E+02 0.  0.
         12    1    1    2    0    0 -0.30040297070E+02  0.79038832488E+01 -0.26234980053E+02  0.40659131777E+02  0.00000000000E+00 0. -1.
         11    1    3    3    0    0 -0.75549193257E+00 -0.50375771242E+01 -0.47712291990E+00  0.51162093276E+01  0.51100000000E-03 0. -1.
        -11    1    3    3    0    0  0.28611121946E+02 -0.70352111651E+01  0.15585759674E+02  0.33331762630E+02  0.51100000000E-03 0.  1.
        -12    1    3    3    0    0  0.21846670561E+01  0.41689050405E+01  0.11126343298E+02  0.12080896265E+02  0.00000000000E+00 0.  1.
</event>
<event>
 7    1  0.6136531E-013  0.5052887E+02  0.7816164E-02  0.1300439E+00
        -11   -1    0    0    0    0  0.00000000000E+00  0.00000000000E+00  0.45593999997E+02  0.45594000000E+02  0.51100000000E-03 0. -1.
         11   -1    0    0    0    0 -0.00000000000E+00 -0.00000000000E+00 -0.45593999997E+02  0.45594000000E+02  0.51100000000E-03 0.  1.
    9900012    2    1    2    0    0  0.16525780378E+01  0.40602638043E+02  0.13637790216E+01  0.50528866666E+02  0.30000020719E+02 0.  0.
         12    1    1    2    0    0 -0.16525780378E+01 -0.40602638043E+02 -0.13637790216E+01  0.40659133334E+02  0.00000000000E+00 0. -1.
         11    1    3    3    0    0 -0.62470573738E+01  0.48643046709E+01  0.72343726913E+01  0.10724893205E+02  0.51100000000E-03 0. -1.
        -11    1    3    3    0    0  0.43385637030E+01  0.34580056033E+02 -0.28038787155E+01  0.34963769052E+02  0.51100000000E-03 0.  1.
        -12    1    3    3    0    0  0.35610717086E+01  0.11582773392E+01 -0.30667149542E+01  0.48402044088E+01  0.00000000000E+00 0.  1.
</event>
<event>
 7    1  0.6136531E-013  0.5052890E+02  0.7816164E-02  0.1300439E+00
        -11   -1    0    0    0    0  0.00000000000E+00  0.00000000000E+00  0.45593999997E+02  0.45594000000E+02  0.51100000000E-03 0.  1.
         11   -1    0    0    0    0 -0.00000000000E+00 -0.00000000000E+00 -0.45593999997E+02  0.45594000000E+02  0.51100000000E-03 0. -1.
    9900012    2    1    2    0    0  0.40121373446E+02  0.49145093521E+01  0.43915492659E+01  0.50528896293E+02  0.30000110771E+02 0.  0.
         12    1    1    2    0    0 -0.40121373446E+02 -0.49145093521E+01 -0.43915492659E+01  0.40659103707E+02  0.00000000000E+00 0. -1.
         11    1    3    3    0    0  0.92899937178E+01  0.85802913227E+01  0.11893258756E+02  0.17360155142E+02  0.51100000000E-03 0. -1.
        -11    1    3    3    0    0  0.67269800923E+01 -0.39147613166E+01  0.42082084555E+00  0.77945306320E+01  0.51100000000E-03 0.  1.
         12    1    3    3    0    0  0.24104399636E+02  0.24897934595E+00 -0.79225303358E+01  0.25374210518E+02  0.00000000000E+00 0. -1.
</event>
<event>
 7    1  0.6136531E-013  0.5052886E+02  0.7816164E-02  0.1300439E+00
        -11   -1    0    0    0    0  0.00000000000E+00  0.00000000000E+00  0.45593999997E+02  0.45594000000E+02  0.51100000000E-03 0.  1.
         11   -1    0    0    0    0 -0.00000000000E+00 -0.00000000000E+00 -0.45593999997E+02  0.45594000000E+02  0.51100000000E-03 0. -1.
    9900012    2    1    2    0    0  0.35129651905E+02 -0.34967015813E+00  0.20468285623E+02  0.50528862915E+02  0.30000009316E+02 0.  0.
         12    1    1    2    0    0 -0.35129651905E+02  0.34967015813E+00 -0.20468285623E+02  0.40659137085E+02  0.00000000000E+00 0. -1.
         11    1    3    3    0    0  0.95784075158E+01  0.23583684992E+01 -0.10882142245E+01  0.99243137282E+01  0.51100000000E-03 0. -1.
        -11    1    3    3    0    0  0.86530972525E+01 -0.62665012396E+01  0.20723852112E+02  0.23315728092E+02  0.51100000000E-03 0.  1.
        -12    1    3    3    0    0  0.16898147137E+02  0.35584625823E+01  0.83264773535E+00  0.17288821095E+02  0.00000000000E+00 0.  1.
</event>
<event>
 7    1  0.6136531E-013  0.5052887E+02  0.7816164E-02  0.1300439E+00
        -11   -1    0    0    0    0  0.00000000000E+00  0.00000000000E+00  0.45593999997E+02  0.45594000000E+02  0.51100000000E-03 0. -1.
         11   -1    0    0    0    0 -0.00000000000E+00 -0.00000000000E+00 -0.45593999997E+02  0.45594000000E+02  0.51100000000E-03 0.  1.
    9900012    2    1    2    0    0 -0.18188769276E+02  0.35578364166E+01 -0.36189441696E+02  0.50528865504E+02  0.30000017184E+02 0.  0.
         12    1    1    2    0    0  0.18188769276E+02 -0.35578364166E+01  0.36189441696E+02  0.40659134496E+02  0.00000000000E+00 0. -1.
         11    1    3    3    0    0 -0.78219989678E+01 -0.82077093169E+01 -0.30740567513E+02  0.32764808123E+02  0.51100000000E-03 0.  1.
        -11    1    3    3    0    0 -0.96061827539E+01  0.68450701725E+01 -0.48329150283E+01  0.12747187953E+02  0.51100000000E-03 0. -1.
        -12    1    3    3    0    0 -0.76058755429E+00  0.49204755610E+01 -0.61595915486E+00  0.50168694277E+01  0.00000000000E+00 0.  1.
</event>
<event>
 7    1  0.6136531E-013  0.5052886E+02  0.7816164E-02  0.1300439E+00
        -11   -1    0    0    0    0  0.00000000000E+00  0.00000000000E+00  0.45593999997E+02  0.45594000000E+02  0.51100000000E-03 0. -1.
         11   -1    0    0    0    0 -0.00000000000E+00 -0.00000000000E+00 -0.45593999997E+02  0.45594000000E+02  0.51100000000E-03 0.  1.
    9900012    2    1    2    0    0 -0.24126651845E+02  0.19632766451E+02 -0.26184441622E+02  0.50528857967E+02  0.29999994277E+02 0.  0.
         12    1    1    2    0    0  0.24126651845E+02 -0.19632766451E+02  0.26184441622E+02  0.40659142033E+02  0.00000000000E+00 0. -1.
         11    1    3    3    0    0 -0.11491321383E+01 -0.49554325726E+01 -0.13634742761E+02  0.14552766991E+02  0.51100000000E-03 0. -1.
        -11    1    3    3    0    0 -0.10025501048E+02  0.12217340744E+02 -0.60401617176E+01  0.16919150096E+02  0.51100000000E-03 0.  1.
         12    1    3    3    0    0 -0.12952018659E+02  0.12370858280E+02 -0.65095371430E+01  0.19056940881E+02  0.00000000000E+00 0. -1.
</event>
<event>
 7    1  0.6136531E-013  0.5052885E+02  0.7816164E-02  0.1300439E+00
        -11   -1    0    0    0    0  0.00000000000E+00  0.00000000000E+00  0.45593999997E+02  0.45594000000E+02  0.51100000000E-03 0. -1.
         11   -1    0    0    0    0 -0.00000000000E+00 -0.00000000000E+00 -0.45593999997E+02  0.45594000000E+02  0.51100000000E-03 0.  1.
    9900012    2    1    2    0    0 -0.21117891708E+02  0.32750407902E+01 -0.34590099019E+02  0.50528853519E+02  0.29999980757E+02 0.  0.
         12    1    1    2    0    0  0.21117891708E+02 -0.32750407902E+01  0.34590099019E+02  0.40659146481E+02  0.00000000000E+00 0. -1.
         11    1    3    3    0    0 -0.10743394927E+02 -0.64417035067E+01 -0.35130887178E+01  0.13009914343E+02  0.51100000000E-03 0. -1.
        -11    1    3    3    0    0 -0.11813758344E+02  0.32937699944E+01 -0.27304091350E+02  0.29932043226E+02  0.51100000000E-03 0.  1.
         12    1    3    3    0    0  0.14392615626E+01  0.64229743024E+01 -0.37729189513E+01  0.75868959495E+01  0.00000000000E+00 0. -1.
</event>
<event>
 7    1  0.6136531E-013  0.5052886E+02  0.7816164E-02  0.1300439E+00
        -11   -1    0    0    0    0  0.00000000000E+00  0.00000000000E+00  0.45593999997E+02  0.45594000000E+02  0.51100000000E-03 0.  1.
         11   -1    0    0    0    0 -0.00000000000E+00 -0.00000000000E+00 -0.45593999997E+02  0.45594000000E+02  0.51100000000E-03 0. -1.
    9900012    2    1    2    0    0 -0.12337554701E+02  0.87296562144E+01  0.37745776048E+02  0.50528858801E+02  0.29999996810E+02 0.  0.
         12    1    1    2    0    0  0.12337554701E+02 -0.87296562144E+01 -0.37745776048E+02  0.40659141199E+02  0.00000000000E+00 0. -1.
         11    1    3    3    0    0  0.60904041442E+01 -0.11150814847E+01  0.42339467676E+00  0.62061012456E+01  0.51100000000E-03 0. -1.
        -11    1    3    3    0    0 -0.69347370762E+01  0.83458994712E+01  0.25755423034E+02  0.27947923576E+02  0.51100000000E-03 0.  1.
         12    1    3    3    0    0 -0.11493221769E+02  0.14988382279E+01  0.11566958337E+02  0.16374833979E+02  0.00000000000E+00 0. -1.
</event>
<event>
 7    1  0.6136531E-013  0.5052886E+02  0.7816164E-02  0.1300439E+00
        -11   -1    0    0    0    0  0.00000000000E+00  0.00000000000E+00  0.45593999997E+02  0.45594000000E+02  0.51100000000E-03 0.  1.
         11   -1    0    0    0    0 -0.00000000000E+00 -0.00000000000E+00 -0.45593999997E+02  0.45594000000E+02  0.51100000000E-03 0. -1.
    9900012    2    1    2    0    0 -0.44992443388E+01  0.21907739636E+02  0.33955467021E+02  0.50528855934E+02  0.29999988097E+02 0.  0.
         12    1    1    2    0    0  0.44992443388E+01 -0.21907739636E+02 -0.33955467021E+02  0.40659144066E+02  0.00000000000E+00 0. -1.
         11    1    3    3    0    0 -0.67777191584E+01  0.17967511989E+02  0.25696234486E+02  0.32079049722E+02  0.51100000000E-03 0.  1.
        -11    1    3    3    0    0 -0.30140058112E+01 -0.51453747243E+01  0.25545288640E+01  0.64872744709E+01  0.51100000000E-03 0. -1.
        -12    1    3    3    0    0  0.52924806307E+01  0.90856023713E+01  0.57047036708E+01  0.11962531741E+02  0.00000000000E+00 0.  1.
</event>
<event>
 7    1  0.6136531E-013  0.5052883E+02  0.7816164E-02  0.1300439E+00
        -11   -1    0    0    0    0  0.00000000000E+00  0.00000000000E+00  0.45593999997E+02  0.45594000000E+02  0.51100000000E-03 0. -1.
         11   -1    0    0    0    0 -0.00000000000E+00 -0.00000000000E+00 -0.45593999997E+02  0.45594000000E+02  0.51100000000E-03 0.  1.
    9900012    2    1    2    0    0 -0.21396937802E+02 -0.21625339358E+02 -0.26975615025E+02  0.50528830608E+02  0.29999911116E+02 0.  0.
         12    1    1    2    0    0  0.21396937802E+02  0.21625339358E+02  0.26975615025E+02  0.40659169392E+02  0.00000000000E+00 0. -1.
         11    1    3    3    0    0 -0.14796658464E+01  0.58036676979E+01 -0.30682375115E+01  0.67294911734E+01  0.51100000000E-03 0. -1.
        -11    1    3    3    0    0 -0.17667704447E+02 -0.16028520546E+02 -0.21093192557E+02  0.31843115800E+02  0.51100000000E-03 0.  1.
         12    1    3    3    0    0 -0.22495675084E+01 -0.11400486510E+02 -0.28141849565E+01  0.11956223635E+02  0.00000000000E+00 0. -1.
</event>
<event>
 7    1  0.6136531E-013  0.5052888E+02  0.7816164E-02  0.1300439E+00
        -11   -1    0    0    0    0  0.00000000000E+00  0.00000000000E+00  0.45593999997E+02  0.45594000000E+02  0.51100000000E-03 0. -1.
         11   -1    0    0    0    0 -0.00000000000E+00 -0.00000000000E+00 -0.45593999997E+02  0.45594000000E+02  0.51100000000E-03 0.  1.
    9900012    2    1    2    0    0  0.36749250984E+02  0.13641756096E+02 -0.10796250054E+02  0.50528880820E+02  0.30000063739E+02 0.  0.
         12    1    1    2    0    0 -0.36749250984E+02 -0.13641756096E+02  0.10796250054E+02  0.40659119180E+02  0.00000000000E+00 0. -1.
         11    1    3    3    0    0 -0.74262710865E+00 -0.15762435474E+01  0.11504392484E+01  0.20879534163E+01  0.51100000000E-03 0. -1.
        -11    1    3    3    0    0  0.32588051023E+02  0.27163253863E+01 -0.12479298695E+02  0.35001319822E+02  0.51100000000E-03 0.  1.
        -12    1    3    3    0    0  0.49038270695E+01  0.12501674258E+02  0.53260939266E+00  0.13439607581E+02  0.00000000000E+00 0.  1.
</event>
<event>
 7    1  0.6136531E-013  0.5052879E+02  0.7816164E-02  0.1300439E+00
        -11   -1    0    0    0    0  0.00000000000E+00  0.00000000000E+00  0.45593999997E+02  0.45594000000E+02  0.51100000000E-03 0.  1.
         11   -1    0    0    0    0 -0.00000000000E+00 -0.00000000000E+00 -0.45593999997E+02  0.45594000000E+02  0.51100000000E-03 0. -1.
    9900012    2    1    2    0    0 -0.16126317482E+02 -0.16404060991E+02  0.33526403844E+02  0.50528793327E+02  0.29999797797E+02 0.  0.
         12    1    1    2    0    0  0.16126317482E+02  0.16404060991E+02 -0.33526403844E+02  0.40659206673E+02  0.00000000000E+00 0. -1.
         11    1    3    3    0    0 -0.12944908896E+02 -0.37332124451E+01  0.77954037632E+01  0.15565213188E+02  0.51100000000E-03 0. -1.
        -11    1    3    3    0    0  0.55362737744E+01 -0.64874833681E+01  0.22078940867E+02  0.23668912054E+02  0.51100000000E-03 0.  1.
        -12    1    3    3    0    0 -0.87176823606E+01 -0.61833651778E+01  0.36520592137E+01  0.11294668086E+02  0.00000000000E+00 0.  1.
</event>
<event>
 7    1  0.6136531E-013  0.5052886E+02  0.7816164E-02  0.1300439E+00
        -11   -1    0    0    0    0  0.00000000000E+00  0.00000000000E+00  0.45593999997E+02  0.45594000000E+02  0.51100000000E-03 0. -1.
         11   -1    0    0    0    0 -0.00000000000E+00 -0.00000000000E+00 -0.45593999997E+02  0.45594000000E+02  0.51100000000E-03 0.  1.
    9900012    2    1    2    0    0 -0.21070994791E+02 -0.38848070027E+01  0.34555571463E+02  0.50528855075E+02  0.29999985486E+02 0.  0.
         12    1    1    2    0    0  0.21070994791E+02  0.38848070027E+01 -0.34555571463E+02  0.40659144925E+02  0.00000000000E+00 0. -1.
         11    1    3    3    0    0 -0.91320428361E+01 -0.14178043131E+01  0.25098637765E+02  0.26745952841E+02  0.51100000000E-03 0. -1.
        -11    1    3    3    0    0  0.48892107279E+00  0.51252863013E+01 -0.17162960828E+01  0.54270872473E+01  0.51100000000E-03 0.  1.
        -12    1    3    3    0    0 -0.12427873028E+02 -0.75922889908E+01  0.11173229780E+02  0.18355814987E+02  0.00000000000E+00 0.  1.
</event>
<event>
 7    1  0.6136531E-013  0.5052887E+02  0.7816164E-02  0.1300439E+00
        -11   -1    0    0    0    0  0.00000000000E+00  0.00000000000E+00  0.45593999997E+02  0.45594000000E+02  0.51100000000E-03 0. -1.
         11   -1    0    0    0    0 -0.00000000000E+00 -0.00000000000E+00 -0.45593999997E+02  0.45594000000E+02  0.51100000000E-03 0.  1.
    9900012    2    1    2    0    0  0.69010982657E+01  0.12825275627E+02 -0.37961195683E+02  0.50528865358E+02  0.30000016742E+02 0.  0.
         12    1    1    2    0    0 -0.69010982657E+01 -0.12825275627E+02  0.37961195683E+02  0.40659134642E+02  0.00000000000E+00 0. -1.
         11    1    3    3    0    0 -0.46402900758E+01  0.58771969692E+01  0.64328426107E+00  0.75158200554E+01  0.51100000000E-03 0. -1.
        -11    1    3    3    0    0  0.13868573048E+02  0.56799007924E+01 -0.24960172017E+02  0.29113721486E+02  0.51100000000E-03 0.  1.
         12    1    3    3    0    0 -0.23271847060E+01  0.12681778658E+01 -0.13644307927E+02  0.13899323816E+02  0.00000000000E+00 0. -1.
</event>
<event>
 7    1  0.6136531E-013  0.5052886E+02  0.7816164E-02  0.1300439E+00
        -11   -1    0    0    0    0  0.00000000000E+00  0.00000000000E+00  0.45593999997E+02  0.45594000000E+02  0.51100000000E-03 0.  1.
         11   -1    0    0    0    0 -0.00000000000E+00 -0.00000000000E+00 -0.45593999997E+02  0.45594000000E+02  0.51100000000E-03 0. -1.
    9900012    2    1    2    0    0 -0.62395036834E+01 -0.28063990687E+02  0.28751463723E+02  0.50528860244E+02  0.30000001197E+02 0.  0.
         12    1    1    2    0    0  0.62395036834E+01  0.28063990687E+02 -0.28751463723E+02  0.40659139756E+02  0.00000000000E+00 0. -1.
         11    1    3    3    0    0  0.12981264395E+01 -0.31784507441E+02  0.19395918544E+02  0.37257773711E+02  0.51100000000E-03 0. -1.
        -11    1    3    3    0    0 -0.44190376346E+01  0.13130990400E+01  0.77486014727E+01  0.90162601864E+01  0.51100000000E-03 0.  1.
         12    1    3    3    0    0 -0.31185924884E+01  0.24074177139E+01  0.16069437066E+01  0.42548263459E+01  0.00000000000E+00 0. -1.
</event>
<event>
 7    1  0.6136531E-013  0.5052887E+02  0.7816164E-02  0.1300439E+00
        -11   -1    0    0    0    0  0.00000000000E+00  0.00000000000E+00  0.45593999997E+02  0.45594000000E+02  0.51100000000E-03 0. -1.
         11   -1    0    0    0    0 -0.00000000000E+00 -0.00000000000E+00 -0.45593999997E+02  0.45594000000E+02  0.51100000000E-03 0.  1.
    9900012    2    1    2    0    0  0.26719798806E+02  0.98615284163E+00 -0.30630786670E+02  0.50528865261E+02  0.30000016448E+02 0.  0.
         12    1    1    2    0    0 -0.26719798806E+02 -0.98615284163E+00  0.30630786670E+02  0.40659134739E+02  0.00000000000E+00 0. -1.
         11    1    3    3    0    0  0.89552659348E+01  0.92671698929E+00 -0.27650425911E+02  0.29079230486E+02  0.51100000000E-03 0. -1.
        -11    1    3    3    0    0  0.10768147397E+02  0.57640062978E+01 -0.16402887426E+01  0.12323445719E+02  0.51100000000E-03 0.  1.
         12    1    3    3    0    0  0.69963854743E+01 -0.57045704455E+01 -0.13400720163E+01  0.91261890557E+01  0.00000000000E+00 0. -1.
</event>
<event>
 7    1  0.6136531E-013  0.5052887E+02  0.7816164E-02  0.1300439E+00
        -11   -1    0    0    0    0  0.00000000000E+00  0.00000000000E+00  0.45593999997E+02  0.45594000000E+02  0.51100000000E-03 0. -1.
         11   -1    0    0    0    0 -0.00000000000E+00 -0.00000000000E+00 -0.45593999997E+02  0.45594000000E+02  0.51100000000E-03 0.  1.
    9900012    2    1    2    0    0 -0.28935359588E+01 -0.39249511676E+02 -0.10211188798E+02  0.50528867030E+02  0.30000021826E+02 0.  0.
         12    1    1    2    0    0  0.28935359588E+01  0.39249511676E+02  0.10211188798E+02  0.40659132970E+02  0.00000000000E+00 0. -1.
         11    1    3    3    0    0 -0.96688747557E+01 -0.18747359818E+02 -0.14071935031E-01  0.21093857814E+02  0.51100000000E-03 0. -1.
        -11    1    3    3    0    0  0.11202749548E+02 -0.18177133712E+02 -0.44391526403E+01  0.21808619027E+02  0.51100000000E-03 0.  1.
        -12    1    3    3    0    0 -0.44274107512E+01 -0.23250181463E+01 -0.57579642229E+01  0.76263901901E+01  0.00000000000E+00 0.  1.
</event>
<event>
 7    1  0.6136531E-013  0.5052886E+02  0.7816164E-02  0.1300439E+00
        -11   -1    0    0    0    0  0.00000000000E+00  0.00000000000E+00  0.45593999997E+02  0.45594000000E+02  0.51100000000E-03 0.  1.
         11   -1    0    0    0    0 -0.00000000000E+00 -0.00000000000E+00 -0.45593999997E+02  0.45594000000E+02  0.51100000000E-03 0. -1.
    9900012    2    1    2    0    0  0.68496946418E+01  0.36698464836E+02  0.16108081210E+02  0.50528856892E+02  0.29999991010E+02 0.  0.
         12    1    1    2    0    0 -0.68496946418E+01 -0.36698464836E+02 -0.16108081210E+02  0.40659143108E+02  0.00000000000E+00 0. -1.
         11    1    3    3    0    0  0.39383497539E+01  0.26070685559E+02 -0.25775001900E+01  0.26492163970E+02  0.51100000000E-03 0. -1.
        -11    1    3    3    0    0  0.66802142202E+01  0.76633491276E+01  0.11003653931E+02  0.14981074126E+02  0.51100000000E-03 0.  1.
         12    1    3    3    0    0 -0.37688693323E+01  0.29644301491E+01  0.76819274687E+01  0.90556187965E+01  0.00000000000E+00 0. -1.
</event>
<event>
 7    1  0.6136531E-013  0.5052885E+02  0.7816164E-02  0.1300439E+00
        -11   -1    0    0    0    0  0.00000000000E+00  0.00000000000E+00  0.45593999997E+02  0.45594000000E+02  0.51100000000E-03 0.  1.
         11   -1    0    0    0    0 -0.00000000000E+00 -0.00000000000E+00 -0.45593999997E+02  0.45594000000E+02  0.51100000000E-03 0. -1.
    9900012    2    1    2    0    0 -0.34150601187E+02  0.81863301890E+01  0.20491144801E+02  0.50528848771E+02  0.29999966325E+02 0.  0.
         12    1    1    2    0    0  0.34150601187E+02 -0.81863301890E+01 -0.20491144801E+02  0.40659151229E+02  0.00000000000E+00 0. -1.
         11    1    3    3    0    0  0.27510649788E+01  0.41836146602E+01  0.36277367029E+01  0.61831597092E+01  0.51100000000E-03 0. -1.
        -11    1    3    3    0    0 -0.22742741654E+02 -0.25979111212E+00  0.11563783220E+01  0.22773603150E+02  0.51100000000E-03 0.  1.
        -12    1    3    3    0    0 -0.14158924512E+02  0.42625066409E+01  0.15707029776E+02  0.21572085912E+02  0.00000000000E+00 0.  1.
</event>
<event>
 7    1  0.6136531E-013  0.5052888E+02  0.7816164E-02  0.1300439E+00
        -11   -1    0    0    0    0  0.00000000000E+00  0.00000000000E+00  0.45593999997E+02  0.45594000000E+02  0.51100000000E-03 0.  1.
         11   -1    0    0    0    0 -0.00000000000E+00 -0.00000000000E+00 -0.45593999997E+02  0.45594000000E+02  0.51100000000E-03 0. -1.
    9900012    2    1    2    0    0  0.28512054204E+02 -0.11015359247E+02  0.26812100728E+02  0.50528879009E+02  0.30000058236E+02 0.  0.
         12    1    1    2    0    0 -0.28512054204E+02  0.11015359247E+02 -0.26812100728E+02  0.40659120991E+02  0.00000000000E+00 0. -1.
         11    1    3    3    0    0 -0.29466436644E+01  0.44258244457E+00  0.58133326140E+01  0.65324899118E+01  0.51100000000E-03 0. -1.
        -11    1    3    3    0    0  0.27000379817E+02 -0.14105820285E+02  0.23271530343E+02  0.38334824910E+02  0.51100000000E-03 0.  1.
        -12    1    3    3    0    0  0.44583180517E+01  0.26478785933E+01 -0.22727622285E+01  0.56615641869E+01  0.00000000000E+00 0.  1.
</event>
<event>
 7    1  0.6136531E-013  0.5052886E+02  0.7816164E-02  0.1300439E+00
        -11   -1    0    0    0    0  0.00000000000E+00  0.00000000000E+00  0.45593999997E+02  0.45594000000E+02  0.51100000000E-03 0.  1.
         11   -1    0    0    0    0 -0.00000000000E+00 -0.00000000000E+00 -0.45593999997E+02  0.45594000000E+02  0.51100000000E-03 0. -1.
    9900012    2    1    2    0    0 -0.22587571241E+02 -0.29197961521E+02  0.17042486481E+02  0.50528859859E+02  0.30000000027E+02 0.  0.
         12    1    1    2    0    0  0.22587571241E+02  0.29197961521E+02 -0.17042486481E+02  0.40659140141E+02  0.00000000000E+00 0. -1.
         11    1    3    3    0    0 -0.15561118771E+02  0.80409326185E+00  0.29555544852E+01  0.15859706364E+02  0.51100000000E-03 0. -1.
        -11    1    3    3    0    0 -0.13991181932E+01 -0.17900320345E+02  0.10694606845E+02  0.20898651057E+02  0.51100000000E-03 0.  1.
         12    1    3    3    0    0 -0.56273342771E+01 -0.12101734438E+02  0.33923251508E+01  0.13770502438E+02  0.00000000000E+00 0. -1.
</event>
<event>
 7    1  0.6136531E-013  0.5052881E+02  0.7816164E-02  0.1300439E+00
        -11   -1    0    0    0    0  0.00000000000E+00  0.00000000000E+00  0.45593999997E+02  0.45594000000E+02  0.51100000000E-03 0.  1.
         11   -1    0    0    0    0 -0.00000000000E+00 -0.00000000000E+00 -0.45593999997E+02  0.45594000000E+02  0.51100000000E-03 0. -1.
    9900012    2    1    2    0    0  0.14318746219E+02 -0.25583373197E+02  0.28171514679E+02  0.50528810181E+02  0.29999849025E+02 0.  0.
         12    1    1    2    0    0 -0.14318746219E+02  0.25583373197E+02 -0.28171514679E+02  0.40659189819E+02  0.00000000000E+00 0. -1.
         11    1    3    3    0    0 -0.54258467318E+01 -0.14298347421E+01  0.75904241199E+01  0.94392149424E+01  0.51100000000E-03 0. -1.
        -11    1    3    3    0    0  0.17191315031E+02 -0.22682195346E+02  0.23524457561E+02  0.36924563668E+02  0.51100000000E-03 0.  1.
         12    1    3    3    0    0  0.25532779190E+01 -0.14713431093E+01 -0.29433670020E+01  0.41650315708E+01  0.00000000000E+00 0. -1.
</event>
<event>
 7    1  0.6136531E-013  0.5052891E+02  0.7816164E-02  0.1300439E+00
        -11   -1    0    0    0    0  0.00000000000E+00  0.00000000000E+00  0.45593999997E+02  0.45594000000E+02  0.51100000000E-03 0.  1.
         11   -1    0    0    0    0 -0.00000000000E+00 -0.00000000000E+00 -0.45593999997E+02  0.45594000000E+02  0.51100000000E-03 0. -1.
    9900012    2    1    2    0    0 -0.11230307693E+02 -0.36525267693E+02  0.13890533282E+02  0.50528906235E+02  0.30000140993E+02 0.  0.
         12    1    1    2    0    0  0.11230307693E+02  0.36525267693E+02 -0.13890533282E+02  0.40659093765E+02  0.00000000000E+00 0. -1.
         11    1    3    3    0    0 -0.28970637166E+01  0.28732262445E+01 -0.35471215230E+01  0.54065218570E+01  0.51100000000E-03 0. -1.
        -11    1    3    3    0    0  0.65585880230E+00 -0.22000718445E+02  0.84704897342E+01  0.23584125158E+02  0.51100000000E-03 0.  1.
         12    1    3    3    0    0 -0.89891027782E+01 -0.17397775492E+02  0.89671650709E+01  0.21538259220E+02  0.00000000000E+00 0. -1.
</event>
<event>
 7    1  0.6136531E-013  0.5052886E+02  0.7816164E-02  0.1300439E+00
        -11   -1    0    0    0    0  0.00000000000E+00  0.00000000000E+00  0.45593999997E+02  0.45594000000E+02  0.51100000000E-03 0.  1.
         11   -1    0    0    0    0 -0.00000000000E+00 -0.00000000000E+00 -0.45593999997E+02  0.45594000000E+02  0.51100000000E-03 0. -1.
    9900012    2    1    2    0    0  0.10308321811E+02 -0.37099173270E+02  0.13059689225E+02  0.50528860332E+02  0.30000001465E+02 0.  0.
         12    1    1    2    0    0 -0.10308321811E+02  0.37099173270E+02 -0.13059689225E+02  0.40659139668E+02  0.00000000000E+00 0. -1.
         11    1    3    3    0    0  0.48466241009E+01  0.19805430283E+01  0.67109471780E+01  0.85117053608E+01  0.51100000000E-03 0. -1.
        -11    1    3    3    0    0  0.61428423785E+01 -0.13897186015E+02  0.71938578871E+01  0.16811242762E+02  0.51100000000E-03 0.  1.
         12    1    3    3    0    0 -0.68114466842E+00 -0.25182530283E+02 -0.84511584025E+00  0.25205912210E+02  0.00000000000E+00 0. -1.
</event>
<event>
 7    1  0.6136531E-013  0.5052887E+02  0.7816164E-02  0.1300439E+00
        -11   -1    0    0    0    0  0.00000000000E+00  0.00000000000E+00  0.45593999997E+02  0.45594000000E+02  0.51100000000E-03 0.  1.
         11   -1    0    0    0    0 -0.00000000000E+00 -0.00000000000E+00 -0.45593999997E+02  0.45594000000E+02  0.51100000000E-03 0. -1.
    9900012    2    1    2    0    0  0.68486906249E+01  0.39329541561E+02 -0.77102348988E+01  0.50528866649E+02  0.30000020665E+02 0.  0.
         12    1    1    2    0    0 -0.68486906249E+01 -0.39329541561E+02  0.77102348988E+01  0.40659133351E+02  0.00000000000E+00 0. -1.
         11    1    3    3    0    0  0.10443653485E+02  0.18433817349E+02 -0.88389055214E+01  0.22956519145E+02  0.51100000000E-03 0. -1.
        -11    1    3    3    0    0 -0.63028163302E+01  0.17581910618E+02  0.73075929065E+01  0.20056170846E+02  0.51100000000E-03 0.  1.
        -12    1    3    3    0    0  0.27078534703E+01  0.33138135942E+01 -0.61789222838E+01  0.75161766572E+01  0.00000000000E+00 0.  1.
</event>
<event>
 7    1  0.6136531E-013  0.5052885E+02  0.7816164E-02  0.1300439E+00
        -11   -1    0    0    0    0  0.00000000000E+00  0.00000000000E+00  0.45593999997E+02  0.45594000000E+02  0.51100000000E-03 0.  1.
         11   -1    0    0    0    0 -0.00000000000E+00 -0.00000000000E+00 -0.45593999997E+02  0.45594000000E+02  0.51100000000E-03 0. -1.
    9900012    2    1    2    0    0 -0.11457132804E+02 -0.15336574204E+02  0.35870461204E+02  0.50528851123E+02  0.29999973472E+02 0.  0.
         12    1    1    2    0    0  0.11457132804E+02  0.15336574204E+02 -0.35870461204E+02  0.40659148877E+02  0.00000000000E+00 0. -1.
         11    1    3    3    0    0  0.34507960397E+01  0.15340071378E+01  0.18594770913E+01  0.42093736494E+01  0.51100000000E-03 0. -1.
        -11    1    3    3    0    0 -0.18685189704E+02 -0.16381347659E+02  0.34459219038E+02  0.42484381158E+02  0.51100000000E-03 0.  1.
        -12    1    3    3    0    0  0.37772608597E+01 -0.48923368347E+00 -0.44823492538E+00  0.38350963152E+01  0.00000000000E+00 0.  1.
</event>
<event>
 7    1  0.6136531E-013  0.5052887E+02  0.7816164E-02  0.1300439E+00
        -11   -1    0    0    0    0  0.00000000000E+00  0.00000000000E+00  0.45593999997E+02  0.45594000000E+02  0.51100000000E-03 0.  1.
         11   -1    0    0    0    0 -0.00000000000E+00 -0.00000000000E+00 -0.45593999997E+02  0.45594000000E+02  0.51100000000E-03 0. -1.
    9900012    2    1    2    0    0 -0.12484911951E+02  0.29797799755E+01  0.38579957178E+02  0.50528865590E+02  0.30000017447E+02 0.  0.
         12    1    1    2    0    0  0.12484911951E+02 -0.29797799755E+01 -0.38579957178E+02  0.40659134410E+02  0.00000000000E+00 0. -1.
         11    1    3    3    0    0 -0.60406183124E+01  0.57923286362E+01  0.24232892558E+01  0.87127763488E+01  0.51100000000E-03 0. -1.
        -11    1    3    3    0    0 -0.28507714385E+01 -0.74216811713E+01  0.34957134420E+02  0.35849818637E+02  0.51100000000E-03 0.  1.
        -12    1    3    3    0    0 -0.35935221996E+01  0.46091325106E+01  0.11995335024E+01  0.59662706042E+01  0.00000000000E+00 0.  1.
</event>
<event>
 7    1  0.6136531E-013  0.5052886E+02  0.7816164E-02  0.1300439E+00
        -11   -1    0    0    0    0  0.00000000000E+00  0.00000000000E+00  0.45593999997E+02  0.45594000000E+02  0.51100000000E-03 0. -1.
         11   -1    0    0    0    0 -0.00000000000E+00 -0.00000000000E+00 -0.45593999997E+02  0.45594000000E+02  0.51100000000E-03 0.  1.
    9900012    2    1    2    0    0  0.11351037764E+02  0.18737182222E+02 -0.34252559937E+02  0.50528856893E+02  0.29999991013E+02 0.  0.
         12    1    1    2    0    0 -0.11351037764E+02 -0.18737182222E+02  0.34252559937E+02  0.40659143107E+02  0.00000000000E+00 0. -1.
         11    1    3    3    0    0  0.18409515355E+02  0.30109701826E+01 -0.23256271632E+02  0.29813258251E+02  0.51100000000E-03 0. -1.
        -11    1    3    3    0    0 -0.47376927470E+01  0.72838239129E+01 -0.66429391000E+01  0.10937479760E+02  0.51100000000E-03 0.  1.
         12    1    3    3    0    0 -0.23207848443E+01  0.84423881267E+01 -0.43533492048E+01  0.97781188822E+01  0.00000000000E+00 0. -1.
</event>
<event>
 7    1  0.6136531E-013  0.5052886E+02  0.7816164E-02  0.1300439E+00
        -11   -1    0    0    0    0  0.00000000000E+00  0.00000000000E+00  0.45593999997E+02  0.45594000000E+02  0.51100000000E-03 0. -1.
         11   -1    0    0    0    0 -0.00000000000E+00 -0.00000000000E+00 -0.45593999997E+02  0.45594000000E+02  0.51100000000E-03 0.  1.
    9900012    2    1    2    0    0 -0.25782111832E+02 -0.31094448275E+02 -0.46458214493E+01  0.50528860056E+02  0.30000000625E+02 0.  0.
         12    1    1    2    0    0  0.25782111832E+02  0.31094448275E+02  0.46458214493E+01  0.40659139944E+02  0.00000000000E+00 0. -1.
         11    1    3    3    0    0  0.16237249382E+01  0.30459221442E+01 -0.22682022615E+01  0.41302380251E+01  0.51100000000E-03 0. -1.
        -11    1    3    3    0    0 -0.15931196157E+02 -0.30176068552E+02 -0.29074898804E+01  0.34246921349E+02  0.51100000000E-03 0.  1.
         12    1    3    3    0    0 -0.11474640613E+02 -0.39643018681E+01  0.52987069251E+00  0.12151700682E+02  0.00000000000E+00 0. -1.
</event>
<event>
 7    1  0.6136531E-013  0.5052886E+02  0.7816164E-02  0.1300439E+00
        -11   -1    0    0    0    0  0.00000000000E+00  0.00000000000E+00  0.45593999997E+02  0.45594000000E+02  0.51100000000E-03 0.  1.
         11   -1    0    0    0    0 -0.00000000000E+00 -0.00000000000E+00 -0.45593999997E+02  0.45594000000E+02  0.51100000000E-03 0. -1.
    9900012    2    1    2    0    0  0.16665183197E+01 -0.39702453846E+02 -0.86083592082E+01  0.50528856220E+02  0.29999988965E+02 0.  0.
         12    1    1    2    0    0 -0.16665183197E+01  0.39702453846E+02  0.86083592082E+01  0.40659143780E+02  0.00000000000E+00 0. -1.
         11    1    3    3    0    0 -0.12238702244E+02 -0.26189467818E+02 -0.54731447469E+01  0.29421580020E+02  0.51100000000E-03 0. -1.
        -11    1    3    3    0    0  0.59781337761E+01 -0.10461612929E+02 -0.36718066220E+01  0.12596253119E+02  0.51100000000E-03 0.  1.
         12    1    3    3    0    0  0.79270867872E+01 -0.30513730990E+01  0.53659216079E+00  0.85110230800E+01  0.00000000000E+00 0. -1.
</event>
<event>
 7    1  0.6136531E-013  0.5052889E+02  0.7816164E-02  0.1300439E+00
        -11   -1    0    0    0    0  0.00000000000E+00  0.00000000000E+00  0.45593999997E+02  0.45594000000E+02  0.51100000000E-03 0. -1.
         11   -1    0    0    0    0 -0.00000000000E+00 -0.00000000000E+00 -0.45593999997E+02  0.45594000000E+02  0.51100000000E-03 0.  1.
    9900012    2    1    2    0    0 -0.33040686262E+02  0.53917742018E+01 -0.23073903026E+02  0.50528890583E+02  0.30000093415E+02 0.  0.
         12    1    1    2    0    0  0.33040686262E+02 -0.53917742018E+01  0.23073903026E+02  0.40659109417E+02  0.00000000000E+00 0. -1.
         11    1    3    3    0    0  0.15109742107E+01 -0.53370002322E+01 -0.34026547062E+01  0.65072785290E+01  0.51100000000E-03 0. -1.
        -11    1    3    3    0    0 -0.30070114154E+02  0.12097497349E+02 -0.11113109591E+02  0.34264594152E+02  0.51100000000E-03 0.  1.
         12    1    3    3    0    0 -0.44815463193E+01 -0.13687229148E+01 -0.85581387294E+01  0.97570179021E+01  0.00000000000E+00 0. -1.
</event>
<event>
 7    1  0.6136531E-013  0.5052886E+02  0.7816164E-02  0.1300439E+00
        -11   -1    0    0    0    0  0.00000000000E+00  0.00000000000E+00  0.45593999997E+02  0.45594000000E+02  0.51100000000E-03 0.  1.
         11   -1    0    0    0    0 -0.00000000000E+00 -0.00000000000E+00 -0.45593999997E+02  0.45594000000E+02  0.51100000000E-03 0. -1.
    9900012    2    1    2    0    0  0.31891100976E+02  0.24886699124E+02  0.40958320742E+01  0.50528856439E+02  0.29999989632E+02 0.  0.
         12    1    1    2    0    0 -0.31891100976E+02 -0.24886699124E+02 -0.40958320742E+01  0.40659143561E+02  0.00000000000E+00 0. -1.
         11    1    3    3    0    0  0.89402332481E+00  0.41215878292E+01  0.97618143027E+01  0.10633897812E+02  0.51100000000E-03 0. -1.
        -11    1    3    3    0    0  0.12650957456E+02  0.13791575299E+01 -0.29741180893E+01  0.13068824687E+02  0.51100000000E-03 0.  1.
         12    1    3    3    0    0  0.18346120196E+02  0.19385953765E+02 -0.26918641392E+01  0.26826133939E+02  0.00000000000E+00 0. -1.
</event>
<event>
 7    1  0.6136531E-013  0.5052886E+02  0.7816164E-02  0.1300439E+00
        -11   -1    0    0    0    0  0.00000000000E+00  0.00000000000E+00  0.45593999997E+02  0.45594000000E+02  0.51100000000E-03 0. -1.
         11   -1    0    0    0    0 -0.00000000000E+00 -0.00000000000E+00 -0.45593999997E+02  0.45594000000E+02  0.51100000000E-03 0.  1.
    9900012    2    1    2    0    0  0.15949370146E+02  0.37059052532E+02 -0.50408069136E+01  0.50528861827E+02  0.30000006009E+02 0.  0.
         12    1    1    2    0    0 -0.15949370146E+02 -0.37059052532E+02  0.50408069136E+01  0.40659138173E+02  0.00000000000E+00 0. -1.
         11    1    3    3    0    0  0.72544367307E+00  0.21236133310E+01 -0.23255073814E+01  0.32317157896E+01  0.51100000000E-03 0. -1.
        -11    1    3    3    0    0  0.19897622944E+02  0.34491535231E+02 -0.75823567938E+01  0.40534843483E+02  0.51100000000E-03 0.  1.
        -12    1    3    3    0    0 -0.46736964716E+01  0.44390397029E+00  0.48670572616E+01  0.67623025540E+01  0.00000000000E+00 0.  1.
</event>
<event>
 7    1  0.6136531E-013  0.5052886E+02  0.7816164E-02  0.1300439E+00
        -11   -1    0    0    0    0  0.00000000000E+00  0.00000000000E+00  0.45593999997E+02  0.45594000000E+02  0.51100000000E-03 0.  1.
         11   -1    0    0    0    0 -0.00000000000E+00 -0.00000000000E+00 -0.45593999997E+02  0.45594000000E+02  0.51100000000E-03 0. -1.
    9900012    2    1    2    0    0  0.11944831557E+02  0.80532985482E+01  0.38021455233E+02  0.50528859866E+02  0.30000000048E+02 0.  0.
         12    1    1    2    0    0 -0.11944831557E+02 -0.80532985482E+01 -0.38021455233E+02  0.40659140134E+02  0.00000000000E+00 0. -1.
         11    1    3    3    0    0  0.23041399987E+00  0.16609108283E+02  0.22783080717E+02  0.28195466583E+02  0.51100000000E-03 0. -1.
        -11    1    3    3    0    0  0.33836027462E+01 -0.26431873065E+01  0.39151184642E+00  0.43114369378E+01  0.51100000000E-03 0.  1.
         12    1    3    3    0    0  0.83308148114E+01 -0.59126224287E+01  0.14846862669E+02  0.18021956346E+02  0.00000000000E+00 0. -1.
</event>
<event>
 7    1  0.6136531E-013  0.5052880E+02  0.7816164E-02  0.1300439E+00
        -11   -1    0    0    0    0  0.00000000000E+00  0.00000000000E+00  0.45593999997E+02  0.45594000000E+02  0.51100000000E-03 0.  1.
         11   -1    0    0    0    0 -0.00000000000E+00 -0.00000000000E+00 -0.45593999997E+02  0.45594000000E+02  0.51100000000E-03 0. -1.
    9900012    2    1    2    0    0  0.23247853876E+02  0.32510805700E+02 -0.74669363383E+01  0.50528802573E+02  0.29999825902E+02 0.  0.
         12    1    1    2    0    0 -0.23247853876E+02 -0.32510805700E+02  0.74669363383E+01  0.40659197427E+02  0.00000000000E+00 0. -1.
         11    1    3    3    0    0  0.17446649558E+02  0.29824845358E+02 -0.13098489915E+02  0.36952366903E+02  0.51100000000E-03 0. -1.
        -11    1    3    3    0    0  0.86001709576E+01  0.36506465432E+01  0.37429030771E+01  0.10064764497E+02  0.51100000000E-03 0.  1.
         12    1    3    3    0    0 -0.27989666393E+01 -0.96468620137E+00  0.18886505000E+01  0.35116711728E+01  0.00000000000E+00 0. -1.
</event>
<event>
 7    1  0.6136531E-013  0.5052885E+02  0.7816164E-02  0.1300439E+00
        -11   -1    0    0    0    0  0.00000000000E+00  0.00000000000E+00  0.45593999997E+02  0.45594000000E+02  0.51100000000E-03 0. -1.
         11   -1    0    0    0    0 -0.00000000000E+00 -0.00000000000E+00 -0.45593999997E+02  0.45594000000E+02  0.51100000000E-03 0.  1.
    9900012    2    1    2    0    0  0.39095709692E+02 -0.76201292331E+01  0.81624502307E+01  0.50528849989E+02  0.29999970025E+02 0.  0.
         12    1    1    2    0    0 -0.39095709692E+02  0.76201292331E+01 -0.81624502307E+01  0.40659150011E+02  0.00000000000E+00 0. -1.
         11    1    3    3    0    0  0.21378072004E+02  0.45174495747E+01 -0.73618682415E+01  0.23057025340E+02  0.51100000000E-03 0. -1.
        -11    1    3    3    0    0  0.76613765708E+01 -0.86363828639E+01  0.10848388541E+02  0.15842074805E+02  0.51100000000E-03 0.  1.
         12    1    3    3    0    0  0.10056261117E+02 -0.35011959438E+01  0.46759299317E+01  0.11629749843E+02  0.00000000000E+00 0. -1.
</event>
<event>
 7    1  0.6136531E-013  0.5052885E+02  0.7816164E-02  0.1300439E+00
        -11   -1    0    0    0    0  0.00000000000E+00  0.00000000000E+00  0.45593999997E+02  0.45594000000E+02  0.51100000000E-03 0. -1.
         11   -1    0    0    0    0 -0.00000000000E+00 -0.00000000000E+00 -0.45593999997E+02  0.45594000000E+02  0.51100000000E-03 0.  1.
    9900012    2    1    2    0    0 -0.72423157319E+01  0.39910287320E+02  0.28078716055E+01  0.50528852024E+02  0.29999976213E+02 0.  0.
         12    1    1    2    0    0  0.72423157319E+01 -0.39910287320E+02 -0.28078716055E+01  0.40659147976E+02  0.00000000000E+00 0. -1.
         11    1    3    3    0    0 -0.73134396294E+01  0.37709691415E+01  0.83677993704E+01  0.11735700833E+02  0.51100000000E-03 0. -1.
        -11    1    3    3    0    0  0.42607063223E+01  0.32180892193E+02 -0.60037959420E+01  0.33012255401E+02  0.51100000000E-03 0.  1.
        -12    1    3    3    0    0 -0.41895824247E+01  0.39584259863E+01  0.44386817707E+00  0.57808957905E+01  0.00000000000E+00 0.  1.
</event>
<event>
 7    1  0.6136531E-013  0.5052885E+02  0.7816164E-02  0.1300439E+00
        -11   -1    0    0    0    0  0.00000000000E+00  0.00000000000E+00  0.45593999997E+02  0.45594000000E+02  0.51100000000E-03 0.  1.
         11   -1    0    0    0    0 -0.00000000000E+00 -0.00000000000E+00 -0.45593999997E+02  0.45594000000E+02  0.51100000000E-03 0. -1.
    9900012    2    1    2    0    0  0.28273513622E+01  0.36836136988E+01  0.40393108601E+02  0.50528854066E+02  0.29999982419E+02 0.  0.
         12    1    1    2    0    0 -0.28273513622E+01 -0.36836136988E+01 -0.40393108601E+02  0.40659145934E+02  0.00000000000E+00 0. -1.
         11    1    3    3    0    0 -0.50446610749E+01 -0.72443831832E+01  0.16862049098E+01  0.89873789463E+01  0.51100000000E-03 0. -1.
        -11    1    3    3    0    0  0.67813914083E+01  0.41521488882E+01  0.16841292743E+02  0.18624090618E+02  0.51100000000E-03 0.  1.
         12    1    3    3    0    0  0.10906210288E+01  0.67758479937E+01  0.21865610949E+02  0.22917384502E+02  0.00000000000E+00 0. -1.
</event>
<event>
 7    1  0.6136531E-013  0.5052885E+02  0.7816164E-02  0.1300439E+00
        -11   -1    0    0    0    0  0.00000000000E+00  0.00000000000E+00  0.45593999997E+02  0.45594000000E+02  0.51100000000E-03 0.  1.
         11   -1    0    0    0    0 -0.00000000000E+00 -0.00000000000E+00 -0.45593999997E+02  0.45594000000E+02  0.51100000000E-03 0. -1.
    9900012    2    1    2    0    0  0.38987405694E+02  0.39645655469E+01  0.10836559512E+02  0.50528848450E+02  0.29999965348E+02 0.  0.
         12    1    1    2    0    0 -0.38987405694E+02 -0.39645655469E+01 -0.10836559512E+02  0.40659151550E+02  0.00000000000E+00 0. -1.
         11    1    3    3    0    0  0.21693172575E+02  0.10674937015E+02  0.40562472181E+01  0.24515324970E+02  0.51100000000E-03 0. -1.
        -11    1    3    3    0    0  0.15195290238E+02 -0.62708037161E+01  0.12011941481E+02  0.20359434252E+02  0.51100000000E-03 0.  1.
         12    1    3    3    0    0  0.20989428816E+01 -0.43956775219E+00 -0.52316291879E+01  0.56540892271E+01  0.00000000000E+00 0. -1.
</event>
<event>
 7    1  0.6136531E-013  0.5052885E+02  0.7816164E-02  0.1300439E+00
        -11   -1    0    0    0    0  0.00000000000E+00  0.00000000000E+00  0.45593999997E+02  0.45594000000E+02  0.51100000000E-03 0. -1.
         11   -1    0    0    0    0 -0.00000000000E+00 -0.00000000000E+00 -0.45593999997E+02  0.45594000000E+02  0.51100000000E-03 0.  1.
    9900012    2    1    2    0    0  0.38195048439E+01  0.31944979631E+02 -0.24861534929E+02  0.50528852690E+02  0.29999978238E+02 0.  0.
         12    1    1    2    0    0 -0.38195048439E+01 -0.31944979631E+02  0.24861534929E+02  0.40659147310E+02  0.00000000000E+00 0. -1.
         11    1    3    3    0    0 -0.55306412558E+01  0.34091921621E+01 -0.68101064672E+00  0.65325614931E+01  0.51100000000E-03 0. -1.
        -11    1    3    3    0    0  0.11779590037E+02  0.17223858941E+02 -0.24798834619E+02  0.32409909857E+02  0.51100000000E-03 0.  1.
        -12    1    3    3    0    0 -0.24294439373E+01  0.11311928529E+02  0.61831033633E+00  0.11586381340E+02  0.00000000000E+00 0.  1.
</event>
<event>
 7    1  0.6136531E-013  0.5052886E+02  0.7816164E-02  0.1300439E+00
        -11   -1    0    0    0    0  0.00000000000E+00  0.00000000000E+00  0.45593999997E+02  0.45594000000E+02  0.51100000000E-03 0.  1.
         11   -1    0    0    0    0 -0.00000000000E+00 -0.00000000000E+00 -0.45593999997E+02  0.45594000000E+02  0.51100000000E-03 0. -1.
    9900012    2    1    2    0    0  0.10427345434E+02  0.39188081243E+02 -0.29547240328E+01  0.50528860334E+02  0.30000001470E+02 0.  0.
         12    1    1    2    0    0 -0.10427345434E+02 -0.39188081243E+02  0.29547240328E+01  0.40659139666E+02  0.00000000000E+00 0. -1.
         11    1    3    3    0    0  0.42751886139E+01  0.44640414046E+01 -0.31036035802E+01  0.69164484232E+01  0.51100000000E-03 0. -1.
        -11    1    3    3    0    0  0.15717502216E+02  0.21084839482E+02  0.37615923303E+01  0.26566142155E+02  0.51100000000E-03 0.  1.
        -12    1    3    3    0    0 -0.95653453962E+01  0.13639200357E+02 -0.36127127829E+01  0.17046269755E+02  0.00000000000E+00 0.  1.
</event>
<event>
 7    1  0.6136531E-013  0.5052887E+02  0.7816164E-02  0.1300439E+00
        -11   -1    0    0    0    0  0.00000000000E+00  0.00000000000E+00  0.45593999997E+02  0.45594000000E+02  0.51100000000E-03 0.  1.
         11   -1    0    0    0    0 -0.00000000000E+00 -0.00000000000E+00 -0.45593999997E+02  0.45594000000E+02  0.51100000000E-03 0. -1.
    9900012    2    1    2    0    0  0.21016975871E+02  0.34444131589E+02  0.50053605617E+01  0.50528866831E+02  0.30000021220E+02 0.  0.
         12    1    1    2    0    0 -0.21016975871E+02 -0.34444131589E+02 -0.50053605617E+01  0.40659133169E+02  0.00000000000E+00 0. -1.
         11    1    3    3    0    0 -0.29418694061E+01 -0.89479009444E+00  0.38008762636E+01  0.48889575114E+01  0.51100000000E-03 0. -1.
        -11    1    3    3    0    0  0.70175262849E+01  0.24447087808E+02 -0.37981610493E+00  0.25437178263E+02  0.51100000000E-03 0.  1.
         12    1    3    3    0    0  0.16941318993E+02  0.10891833875E+02  0.15843004030E+01  0.20202731056E+02  0.00000000000E+00 0. -1.
</event>
<event>
 7    1  0.6136531E-013  0.5052886E+02  0.7816164E-02  0.1300439E+00
        -11   -1    0    0    0    0  0.00000000000E+00  0.00000000000E+00  0.45593999997E+02  0.45594000000E+02  0.51100000000E-03 0.  1.
         11   -1    0    0    0    0 -0.00000000000E+00 -0.00000000000E+00 -0.45593999997E+02  0.45594000000E+02  0.51100000000E-03 0. -1.
    9900012    2    1    2    0    0 -0.40187896437E+02  0.29637990635E+01  0.54142571614E+01  0.50528864427E+02  0.30000013914E+02 0.  0.
         12    1    1    2    0    0  0.40187896437E+02 -0.29637990635E+01 -0.54142571614E+01  0.40659135573E+02  0.00000000000E+00 0. -1.
         11    1    3    3    0    0 -0.25472108737E+02 -0.99338439777E+01 -0.25948828232E+01  0.27463484790E+02  0.51100000000E-03 0. -1.
        -11    1    3    3    0    0 -0.49665442482E+01  0.48112723872E+01  0.77636894873E+01  0.10396623417E+02  0.51100000000E-03 0.  1.
         12    1    3    3    0    0 -0.97492434514E+01  0.80863706540E+01  0.24545049729E+00  0.12668756220E+02  0.00000000000E+00 0. -1.
</event>
<event>
 7    1  0.6136531E-013  0.5052884E+02  0.7816164E-02  0.1300439E+00
        -11   -1    0    0    0    0  0.00000000000E+00  0.00000000000E+00  0.45593999997E+02  0.45594000000E+02  0.51100000000E-03 0. -1.
         11   -1    0    0    0    0 -0.00000000000E+00 -0.00000000000E+00 -0.45593999997E+02  0.45594000000E+02  0.51100000000E-03 0.  1.
    9900012    2    1    2    0    0  0.29531963910E+02  0.19850823093E+02 -0.19671687775E+02  0.50528839042E+02  0.29999936753E+02 0.  0.
         12    1    1    2    0    0 -0.29531963910E+02 -0.19850823093E+02  0.19671687775E+02  0.40659160958E+02  0.00000000000E+00 0. -1.
         11    1    3    3    0    0  0.11084977197E+02  0.98029943878E+01  0.65465730586E+01  0.16181255745E+02  0.51100000000E-03 0. -1.
        -11    1    3    3    0    0  0.71531555639E+01  0.27571130319E+01 -0.47515142736E+01  0.90192125458E+01  0.51100000000E-03 0.  1.
         12    1    3    3    0    0  0.11293831150E+02  0.72907156735E+01 -0.21466746560E+02  0.25328370752E+02  0.00000000000E+00 0. -1.
</event>
<event>
 7    1  0.6136531E-013  0.5052881E+02  0.7816164E-02  0.1300439E+00
        -11   -1    0    0    0    0  0.00000000000E+00  0.00000000000E+00  0.45593999997E+02  0.45594000000E+02  0.51100000000E-03 0. -1.
         11   -1    0    0    0    0 -0.00000000000E+00 -0.00000000000E+00 -0.45593999997E+02  0.45594000000E+02  0.51100000000E-03 0.  1.
    9900012    2    1    2    0    0  0.25111173804E+02  0.29508186616E+02  0.12323378849E+02  0.50528809238E+02  0.29999846159E+02 0.  0.
         12    1    1    2    0    0 -0.25111173804E+02 -0.29508186616E+02 -0.12323378849E+02  0.40659190762E+02  0.00000000000E+00 0. -1.
         11    1    3    3    0    0 -0.61758876417E+00 -0.12316410360E+01 -0.11709883875E+01  0.18081951189E+01  0.51100000000E-03 0. -1.
        -11    1    3    3    0    0  0.28631184352E+02  0.28921457666E+02  0.68824130366E+01  0.41274241851E+02  0.51100000000E-03 0.  1.
        -12    1    3    3    0    0 -0.29024217834E+01  0.18183699865E+01  0.66119541995E+01  0.74463722679E+01  0.00000000000E+00 0.  1.
</event>
<event>
 7    1  0.6136531E-013  0.5052886E+02  0.7816164E-02  0.1300439E+00
        -11   -1    0    0    0    0  0.00000000000E+00  0.00000000000E+00  0.45593999997E+02  0.45594000000E+02  0.51100000000E-03 0.  1.
         11   -1    0    0    0    0 -0.00000000000E+00 -0.00000000000E+00 -0.45593999997E+02  0.45594000000E+02  0.51100000000E-03 0. -1.
    9900012    2    1    2    0    0 -0.25093774847E+02 -0.27213999315E+02  0.16818636730E+02  0.50528857900E+02  0.29999994074E+02 0.  0.
         12    1    1    2    0    0  0.25093774847E+02  0.27213999315E+02 -0.16818636730E+02  0.40659142100E+02  0.00000000000E+00 0. -1.
         11    1    3    3    0    0 -0.32926612335E+01 -0.62500397790E+01 -0.13427705983E+01  0.71908030413E+01  0.51100000000E-03 0. -1.
        -11    1    3    3    0    0 -0.27338070134E+02 -0.16786641672E+02  0.16996742510E+02  0.36304967615E+02  0.51100000000E-03 0.  1.
        -12    1    3    3    0    0  0.55369565206E+01 -0.41773178643E+01  0.11646648186E+01  0.70330872446E+01  0.00000000000E+00 0.  1.
</event>
<event>
 7    1  0.6136531E-013  0.5052886E+02  0.7816164E-02  0.1300439E+00
        -11   -1    0    0    0    0  0.00000000000E+00  0.00000000000E+00  0.45593999997E+02  0.45594000000E+02  0.51100000000E-03 0.  1.
         11   -1    0    0    0    0 -0.00000000000E+00 -0.00000000000E+00 -0.45593999997E+02  0.45594000000E+02  0.51100000000E-03 0. -1.
    9900012    2    1    2    0    0 -0.14342364220E+02  0.26844675918E+02  0.26959702492E+02  0.50528860867E+02  0.30000003092E+02 0.  0.
         12    1    1    2    0    0  0.14342364220E+02 -0.26844675918E+02 -0.26959702492E+02  0.40659139133E+02  0.00000000000E+00 0. -1.
         11    1    3    3    0    0 -0.31054611541E+01 -0.51368841880E+01  0.73919404423E+00  0.60479646358E+01  0.51100000000E-03 0. -1.
        -11    1    3    3    0    0 -0.79824007391E+01  0.29337336310E+02  0.26425190947E+02  0.40282610890E+02  0.51100000000E-03 0.  1.
         12    1    3    3    0    0 -0.32545023266E+01  0.26442237966E+01 -0.20468249874E+00  0.41982853411E+01  0.00000000000E+00 0. -1.
</event>
<event>
 7    1  0.6136531E-013  0.5052884E+02  0.7816164E-02  0.1300439E+00
        -11   -1    0    0    0    0  0.00000000000E+00  0.00000000000E+00  0.45593999997E+02  0.45594000000E+02  0.51100000000E-03 0. -1.
         11   -1    0    0    0    0 -0.00000000000E+00 -0.00000000000E+00 -0.45593999997E+02  0.45594000000E+02  0.51100000000E-03 0.  1.
    9900012    2    1    2    0    0  0.21390591272E+02  0.27022738671E+02 -0.21572697594E+02  0.50528842584E+02  0.29999947520E+02 0.  0.
         12    1    1    2    0    0 -0.21390591272E+02 -0.27022738671E+02  0.21572697594E+02  0.40659157416E+02  0.00000000000E+00 0. -1.
         11    1    3    3    0    0  0.14638797776E+02  0.14203727559E+02 -0.24533498318E+01  0.20544079501E+02  0.51100000000E-03 0. -1.
        -11    1    3    3    0    0 -0.29506757488E+01  0.94942505935E+01 -0.16718237281E+02  0.19451137235E+02  0.51100000000E-03 0.  1.
         12    1    3    3    0    0  0.97024692451E+01  0.33247605182E+01 -0.24011104818E+01  0.10533625848E+02  0.00000000000E+00 0. -1.
</event>
<event>
 7    1  0.6136531E-013  0.5052882E+02  0.7816164E-02  0.1300439E+00
        -11   -1    0    0    0    0  0.00000000000E+00  0.00000000000E+00  0.45593999997E+02  0.45594000000E+02  0.51100000000E-03 0.  1.
         11   -1    0    0    0    0 -0.00000000000E+00 -0.00000000000E+00 -0.45593999997E+02  0.45594000000E+02  0.51100000000E-03 0. -1.
    9900012    2    1    2    0    0 -0.29398301069E+02 -0.27325059468E+02  0.64999658476E+01  0.50528824693E+02  0.29999893136E+02 0.  0.
         12    1    1    2    0    0  0.29398301069E+02  0.27325059468E+02 -0.64999658476E+01  0.40659175307E+02  0.00000000000E+00 0. -1.
         11    1    3    3    0    0 -0.70390368666E+01 -0.11152824273E+02  0.14610919759E+02  0.19682797203E+02  0.51100000000E-03 0.  1.
        -11    1    3    3    0    0 -0.18058018612E+02 -0.84099662035E+01 -0.18928625295E+01  0.20010059884E+02  0.51100000000E-03 0. -1.
        -12    1    3    3    0    0 -0.43012455899E+01 -0.77622689916E+01 -0.62180913817E+01  0.10835967606E+02  0.00000000000E+00 0.  1.
</event>
<event>
 7    1  0.6136531E-013  0.5052886E+02  0.7816164E-02  0.1300439E+00
        -11   -1    0    0    0    0  0.00000000000E+00  0.00000000000E+00  0.45593999997E+02  0.45594000000E+02  0.51100000000E-03 0.  1.
         11   -1    0    0    0    0 -0.00000000000E+00 -0.00000000000E+00 -0.45593999997E+02  0.45594000000E+02  0.51100000000E-03 0. -1.
    9900012    2    1    2    0    0 -0.77313682435E+01  0.39532325034E+02 -0.55305115488E+01  0.50528864059E+02  0.30000012793E+02 0.  0.
         12    1    1    2    0    0  0.77313682435E+01 -0.39532325034E+02  0.55305115488E+01  0.40659135941E+02  0.00000000000E+00 0. -1.
         11    1    3    3    0    0 -0.11090567819E+02  0.35972603131E+02  0.30811802484E+01  0.37769333361E+02  0.51100000000E-03 0. -1.
        -11    1    3    3    0    0  0.25845945980E+01  0.61467478924E+01 -0.66861556894E+01  0.94428447542E+01  0.51100000000E-03 0.  1.
         12    1    3    3    0    0  0.77460497773E+00 -0.25870259896E+01 -0.19255361078E+01  0.33166859430E+01  0.00000000000E+00 0. -1.
</event>
<event>
 7    1  0.6136531E-013  0.5052885E+02  0.7816164E-02  0.1300439E+00
        -11   -1    0    0    0    0  0.00000000000E+00  0.00000000000E+00  0.45593999997E+02  0.45594000000E+02  0.51100000000E-03 0. -1.
         11   -1    0    0    0    0 -0.00000000000E+00 -0.00000000000E+00 -0.45593999997E+02  0.45594000000E+02  0.51100000000E-03 0.  1.
    9900012    2    1    2    0    0  0.34460959239E+02  0.57088444552E+01 -0.20809079958E+02  0.50528850656E+02  0.29999972055E+02 0.  0.
         12    1    1    2    0    0 -0.34460959239E+02 -0.57088444552E+01  0.20809079958E+02  0.40659149344E+02  0.00000000000E+00 0. -1.
         11    1    3    3    0    0 -0.26486314009E+01  0.15241155574E+01 -0.81103405997E+01  0.86669372581E+01  0.51100000000E-03 0. -1.
        -11    1    3    3    0    0  0.30925821630E+02  0.87890698971E+01 -0.96039420100E+01  0.33554282820E+02  0.51100000000E-03 0.  1.
        -12    1    3    3    0    0  0.61837690094E+01 -0.46043409994E+01 -0.30947973483E+01  0.83076305784E+01  0.00000000000E+00 0.  1.
</event>
<event>
 7    1  0.6136531E-013  0.5052886E+02  0.7816164E-02  0.1300439E+00
        -11   -1    0    0    0    0  0.00000000000E+00  0.00000000000E+00  0.45593999997E+02  0.45594000000E+02  0.51100000000E-03 0.  1.
         11   -1    0    0    0    0 -0.00000000000E+00 -0.00000000000E+00 -0.45593999997E+02  0.45594000000E+02  0.51100000000E-03 0. -1.
    9900012    2    1    2    0    0 -0.25851261303E+02 -0.20498132745E+02  0.23763509857E+02  0.50528861326E+02  0.30000004486E+02 0.  0.
         12    1    1    2    0    0  0.25851261303E+02  0.20498132745E+02 -0.23763509857E+02  0.40659138674E+02  0.00000000000E+00 0. -1.
         11    1    3    3    0    0  0.30367860725E+01 -0.52658256184E+01  0.13515025319E+01  0.62271621504E+01  0.51100000000E-03 0. -1.
        -11    1    3    3    0    0 -0.16782152525E+02 -0.24018109223E+01  0.20433960844E+02  0.26551009305E+02  0.51100000000E-03 0.  1.
        -12    1    3    3    0    0 -0.12105894850E+02 -0.12830496205E+02  0.19780464809E+01  0.17750689870E+02  0.00000000000E+00 0.  1.
</event>
<event>
 7    1  0.6136531E-013  0.5052887E+02  0.7816164E-02  0.1300439E+00
        -11   -1    0    0    0    0  0.00000000000E+00  0.00000000000E+00  0.45593999997E+02  0.45594000000E+02  0.51100000000E-03 0.  1.
         11   -1    0    0    0    0 -0.00000000000E+00 -0.00000000000E+00 -0.45593999997E+02  0.45594000000E+02  0.51100000000E-03 0. -1.
    9900012    2    1    2    0    0 -0.33886967451E+02 -0.21184468245E+02  0.74870914292E+01  0.50528870695E+02  0.30000032963E+02 0.  0.
         12    1    1    2    0    0  0.33886967451E+02  0.21184468245E+02 -0.74870914292E+01  0.40659129305E+02  0.00000000000E+00 0. -1.
         11    1    3    3    0    0 -0.44515619854E+01 -0.16393994499E+02 -0.13333646847E+01  0.17039874453E+02  0.51100000000E-03 0. -1.
        -11    1    3    3    0    0 -0.14069537874E+02  0.31611145327E+01  0.86492157738E+00  0.14446197793E+02  0.51100000000E-03 0.  1.
        -12    1    3    3    0    0 -0.15365867591E+02 -0.79515882783E+01  0.79555345365E+01  0.19042798448E+02  0.00000000000E+00 0.  1.
</event>
<event>
 7    1  0.6136531E-013  0.5052886E+02  0.7816164E-02  0.1300439E+00
        -11   -1    0    0    0    0  0.00000000000E+00  0.00000000000E+00  0.45593999997E+02  0.45594000000E+02  0.51100000000E-03 0. -1.
         11   -1    0    0    0    0 -0.00000000000E+00 -0.00000000000E+00 -0.45593999997E+02  0.45594000000E+02  0.51100000000E-03 0.  1.
    9900012    2    1    2    0    0 -0.32090584307E+02 -0.23473152961E+02  0.85071008811E+01  0.50528864784E+02  0.30000014998E+02 0.  0.
         12    1    1    2    0    0  0.32090584307E+02  0.23473152961E+02 -0.85071008811E+01  0.40659135216E+02  0.00000000000E+00 0. -1.
         11    1    3    3    0    0 -0.15999981153E+02 -0.69408027854E+01 -0.10369664763E+02  0.20290492546E+02  0.51100000000E-03 0. -1.
        -11    1    3    3    0    0 -0.10569859461E+02 -0.13312590083E+02  0.11741591070E+02  0.20659427505E+02  0.51100000000E-03 0.  1.
         12    1    3    3    0    0 -0.55207436939E+01 -0.32197600922E+01  0.71351745742E+01  0.95789447326E+01  0.00000000000E+00 0. -1.
</event>
<event>
 7    1  0.6136531E-013  0.5052886E+02  0.7816164E-02  0.1300439E+00
        -11   -1    0    0    0    0  0.00000000000E+00  0.00000000000E+00  0.45593999997E+02  0.45594000000E+02  0.51100000000E-03 0.  1.
         11   -1    0    0    0    0 -0.00000000000E+00 -0.00000000000E+00 -0.45593999997E+02  0.45594000000E+02  0.51100000000E-03 0. -1.
    9900012    2    1    2    0    0 -0.35863918737E+02  0.19149167927E+02  0.50435269612E+00  0.50528859931E+02  0.30000000247E+02 0.  0.
         12    1    1    2    0    0  0.35863918737E+02 -0.19149167927E+02 -0.50435269612E+00  0.40659140069E+02  0.00000000000E+00 0. -1.
         11    1    3    3    0    0 -0.14318959596E+02  0.14010106452E+02  0.37851601578E+01  0.20387327544E+02  0.51100000000E-03 0. -1.
        -11    1    3    3    0    0  0.27930380243E+01  0.11840720516E+01 -0.45307790268E+01  0.54526183508E+01  0.51100000000E-03 0.  1.
        -12    1    3    3    0    0 -0.24337997165E+02  0.39549894234E+01  0.12499715651E+01  0.24688914036E+02  0.00000000000E+00 0.  1.
</event>
<event>
 7    1  0.6136531E-013  0.5052887E+02  0.7816164E-02  0.1300439E+00
        -11   -1    0    0    0    0  0.00000000000E+00  0.00000000000E+00  0.45593999997E+02  0.45594000000E+02  0.51100000000E-03 0.  1.
         11   -1    0    0    0    0 -0.00000000000E+00 -0.00000000000E+00 -0.45593999997E+02  0.45594000000E+02  0.51100000000E-03 0. -1.
    9900012    2    1    2    0    0  0.10548488414E+02  0.36523848183E+02  0.14418844740E+02  0.50528866001E+02  0.30000018696E+02 0.  0.
         12    1    1    2    0    0 -0.10548488414E+02 -0.36523848183E+02 -0.14418844740E+02  0.40659133999E+02  0.00000000000E+00 0. -1.
         11    1    3    3    0    0  0.14229952894E+01 -0.12211502417E+01 -0.25851279603E+01  0.31935889433E+01  0.51100000000E-03 0. -1.
        -11    1    3    3    0    0  0.70297840031E+01  0.37830261656E+02  0.20241906227E+02  0.43477365698E+02  0.51100000000E-03 0.  1.
        -12    1    3    3    0    0  0.20957091213E+01 -0.85263231313E-01 -0.32379335260E+01  0.38579113596E+01  0.00000000000E+00 0.  1.
</event>
<event>
 7    1  0.6136531E-013  0.5052885E+02  0.7816164E-02  0.1300439E+00
        -11   -1    0    0    0    0  0.00000000000E+00  0.00000000000E+00  0.45593999997E+02  0.45594000000E+02  0.51100000000E-03 0. -1.
         11   -1    0    0    0    0 -0.00000000000E+00 -0.00000000000E+00 -0.45593999997E+02  0.45594000000E+02  0.51100000000E-03 0.  1.
    9900012    2    1    2    0    0 -0.33101982658E+02  0.12223484676E+02 -0.20199289815E+02  0.50528854135E+02  0.29999982627E+02 0.  0.
         12    1    1    2    0    0  0.33101982658E+02 -0.12223484676E+02  0.20199289815E+02  0.40659145865E+02  0.00000000000E+00 0. -1.
         11    1    3    3    0    0 -0.79458491495E+01  0.87753016804E+01  0.63585218701E+01  0.13437754237E+02  0.51100000000E-03 0. -1.
        -11    1    3    3    0    0 -0.11921795989E+02 -0.17683378120E+00 -0.98119560994E+01  0.15441339726E+02  0.51100000000E-03 0.  1.
         12    1    3    3    0    0 -0.13234337520E+02  0.36250167771E+01 -0.16745855585E+02  0.21649760172E+02  0.00000000000E+00 0. -1.
</event>
<event>
 7    1  0.6136531E-013  0.5052889E+02  0.7816164E-02  0.1300439E+00
        -11   -1    0    0    0    0  0.00000000000E+00  0.00000000000E+00  0.45593999997E+02  0.45594000000E+02  0.51100000000E-03 0.  1.
         11   -1    0    0    0    0 -0.00000000000E+00 -0.00000000000E+00 -0.45593999997E+02  0.45594000000E+02  0.51100000000E-03 0. -1.
    9900012    2    1    2    0    0 -0.40563984725E+02  0.27741084641E+01  0.17518782096E+00  0.50528890008E+02  0.30000091668E+02 0.  0.
         12    1    1    2    0    0  0.40563984725E+02 -0.27741084641E+01 -0.17518782096E+00  0.40659109992E+02  0.00000000000E+00 0. -1.
         11    1    3    3    0    0 -0.96174035447E+01  0.70159282170E+01  0.44482143164E+01  0.12708434622E+02  0.51100000000E-03 0. -1.
        -11    1    3    3    0    0 -0.29311539354E+02 -0.29672637618E+01 -0.10485145722E+02  0.31271540969E+02  0.51100000000E-03 0.  1.
        -12    1    3    3    0    0 -0.16350418267E+01 -0.12745559911E+01  0.62121192263E+01  0.65489144162E+01  0.00000000000E+00 0.  1.
</event>
<event>
 7    1  0.6136531E-013  0.5052886E+02  0.7816164E-02  0.1300439E+00
        -11   -1    0    0    0    0  0.00000000000E+00  0.00000000000E+00  0.45593999997E+02  0.45594000000E+02  0.51100000000E-03 0.  1.
         11   -1    0    0    0    0 -0.00000000000E+00 -0.00000000000E+00 -0.45593999997E+02  0.45594000000E+02  0.51100000000E-03 0. -1.
    9900012    2    1    2    0    0  0.36121601180E+02  0.17935641594E+02  0.51680499541E+01  0.50528855254E+02  0.29999986029E+02 0.  0.
         12    1    1    2    0    0 -0.36121601180E+02 -0.17935641594E+02 -0.51680499541E+01  0.40659144746E+02  0.00000000000E+00 0. -1.
         11    1    3    3    0    0  0.12460384341E+02 -0.14780589198E+01  0.72828534832E+00  0.12568859770E+02  0.51100000000E-03 0. -1.
        -11    1    3    3    0    0  0.58076145284E+01  0.18889794053E+02  0.35328350899E+01  0.20075697495E+02  0.51100000000E-03 0.  1.
        -12    1    3    3    0    0  0.17853602310E+02  0.52390646084E+00  0.90692951583E+00  0.17884297989E+02  0.00000000000E+00 0.  1.
</event>
<event>
 7    1  0.6136531E-013  0.5052879E+02  0.7816164E-02  0.1300439E+00
        -11   -1    0    0    0    0  0.00000000000E+00  0.00000000000E+00  0.45593999997E+02  0.45594000000E+02  0.51100000000E-03 0.  1.
         11   -1    0    0    0    0 -0.00000000000E+00 -0.00000000000E+00 -0.45593999997E+02  0.45594000000E+02  0.51100000000E-03 0. -1.
    9900012    2    1    2    0    0 -0.36553066607E+01 -0.29067939138E+02  0.28193348418E+02  0.50528791357E+02  0.29999791807E+02 0.  0.
         12    1    1    2    0    0  0.36553066607E+01  0.29067939138E+02 -0.28193348418E+02  0.40659208643E+02  0.00000000000E+00 0. -1.
         11    1    3    3    0    0 -0.76099587222E+01 -0.43574311065E+01  0.49386505069E+01  0.10064240989E+02  0.51100000000E-03 0. -1.
        -11    1    3    3    0    0  0.47550846451E+01 -0.24711039688E+02  0.98303020542E+01  0.27016312687E+02  0.51100000000E-03 0.  1.
        -12    1    3    3    0    0 -0.80043258369E+00  0.53165687243E-03  0.13424395857E+02  0.13448237681E+02  0.00000000000E+00 0.  1.
</event>
<event>
 7    1  0.6136531E-013  0.5052885E+02  0.7816164E-02  0.1300439E+00
        -11   -1    0    0    0    0  0.00000000000E+00  0.00000000000E+00  0.45593999997E+02  0.45594000000E+02  0.51100000000E-03 0.  1.
         11   -1    0    0    0    0 -0.00000000000E+00 -0.00000000000E+00 -0.45593999997E+02  0.45594000000E+02  0.51100000000E-03 0. -1.
    9900012    2    1    2    0    0  0.24353469880E+02  0.28061682486E+02  0.16511104718E+02  0.50528854680E+02  0.29999984285E+02 0.  0.
         12    1    1    2    0    0 -0.24353469880E+02 -0.28061682486E+02 -0.16511104718E+02  0.40659145320E+02  0.00000000000E+00 0. -1.
         11    1    3    3    0    0 -0.15136355980E+01  0.11593685977E+00 -0.39110255863E+01  0.41953135136E+01  0.51100000000E-03 0. -1.
        -11    1    3    3    0    0  0.23711423413E+02  0.19822221773E+02  0.21794773115E+02  0.37817511971E+02  0.51100000000E-03 0.  1.
         12    1    3    3    0    0  0.21556820648E+01  0.81235238535E+01 -0.13726428105E+01  0.85160291949E+01  0.00000000000E+00 0. -1.
</event>
<event>
 7    1  0.6136531E-013  0.5052888E+02  0.7816164E-02  0.1300439E+00
        -11   -1    0    0    0    0  0.00000000000E+00  0.00000000000E+00  0.45593999997E+02  0.45594000000E+02  0.51100000000E-03 0.  1.
         11   -1    0    0    0    0 -0.00000000000E+00 -0.00000000000E+00 -0.45593999997E+02  0.45594000000E+02  0.51100000000E-03 0. -1.
    9900012    2    1    2    0    0 -0.13018316734E+02 -0.65227697068E+00  0.38513142895E+02  0.50528877881E+02  0.30000054808E+02 0.  0.
         12    1    1    2    0    0  0.13018316734E+02  0.65227697068E+00 -0.38513142895E+02  0.40659122119E+02  0.00000000000E+00 0. -1.
         11    1    3    3    0    0  0.88334652728E+01 -0.28429817379E+00  0.78923240634E+01  0.11849038508E+02  0.51100000000E-03 0. -1.
        -11    1    3    3    0    0 -0.14909211213E+02  0.28136293435E+00  0.13198333285E+02  0.19913807919E+02  0.51100000000E-03 0.  1.
         12    1    3    3    0    0 -0.69425707940E+01 -0.64934173124E+00  0.17422485547E+02  0.18766031454E+02  0.00000000000E+00 0. -1.
</event>
<event>
 7    1  0.6136531E-013  0.5052888E+02  0.7816164E-02  0.1300439E+00
        -11   -1    0    0    0    0  0.00000000000E+00  0.00000000000E+00  0.45593999997E+02  0.45594000000E+02  0.51100000000E-03 0.  1.
         11   -1    0    0    0    0 -0.00000000000E+00 -0.00000000000E+00 -0.45593999997E+02  0.45594000000E+02  0.51100000000E-03 0. -1.
    9900012    2    1    2    0    0  0.11709827641E+01 -0.36773469678E+02  0.17306208028E+02  0.50528879140E+02  0.30000058634E+02 0.  0.
         12    1    1    2    0    0 -0.11709827641E+01  0.36773469678E+02 -0.17306208028E+02  0.40659120860E+02  0.00000000000E+00 0. -1.
         11    1    3    3    0    0 -0.36359166714E+01 -0.42574832790E+01 -0.64546067066E+01  0.85444720088E+01  0.51100000000E-03 0. -1.
        -11    1    3    3    0    0 -0.63508627074E+00 -0.26282307400E+02  0.17102417198E+02  0.31363285719E+02  0.51100000000E-03 0.  1.
        -12    1    3    3    0    0  0.54419857062E+01 -0.62336789993E+01  0.66583975371E+01  0.10621121412E+02  0.00000000000E+00 0.  1.
</event>
<event>
 7    1  0.6136531E-013  0.5052886E+02  0.7816164E-02  0.1300439E+00
        -11   -1    0    0    0    0  0.00000000000E+00  0.00000000000E+00  0.45593999997E+02  0.45594000000E+02  0.51100000000E-03 0.  1.
         11   -1    0    0    0    0 -0.00000000000E+00 -0.00000000000E+00 -0.45593999997E+02  0.45594000000E+02  0.51100000000E-03 0. -1.
    9900012    2    1    2    0    0  0.30337690487E+02  0.83605084510E+01  0.25746697002E+02  0.50528856229E+02  0.29999988995E+02 0.  0.
         12    1    1    2    0    0 -0.30337690487E+02 -0.83605084510E+01 -0.25746697002E+02  0.40659143771E+02  0.00000000000E+00 0. -1.
         11    1    3    3    0    0  0.65933436049E+01 -0.43448763898E+01  0.14804210489E+02  0.16778402165E+02  0.51100000000E-03 0. -1.
        -11    1    3    3    0    0  0.22916666092E+02  0.42141814945E+01  0.68415730379E+01  0.24284563663E+02  0.51100000000E-03 0.  1.
         12    1    3    3    0    0  0.82768079027E+00  0.84912033463E+01  0.41009134750E+01  0.94658904012E+01  0.00000000000E+00 0. -1.
</event>
<event>
 7    1  0.6136531E-013  0.5052886E+02  0.7816164E-02  0.1300439E+00
        -11   -1    0    0    0    0  0.00000000000E+00  0.00000000000E+00  0.45593999997E+02  0.45594000000E+02  0.51100000000E-03 0.  1.
         11   -1    0    0    0    0 -0.00000000000E+00 -0.00000000000E+00 -0.45593999997E+02  0.45594000000E+02  0.51100000000E-03 0. -1.
    9900012    2    1    2    0    0  0.35490792874E+02 -0.20391284242E+01  0.19733502989E+02  0.50528861251E+02  0.30000004259E+02 0.  0.
         12    1    1    2    0    0 -0.35490792874E+02  0.20391284242E+01 -0.19733502989E+02  0.40659138749E+02  0.00000000000E+00 0. -1.
         11    1    3    3    0    0  0.41948158637E+01  0.99684426353E+01  0.65771035834E+01  0.12657986432E+02  0.51100000000E-03 0. -1.
        -11    1    3    3    0    0  0.16568821233E+02 -0.12529356172E+02  0.74572636803E+01  0.22070826559E+02  0.51100000000E-03 0.  1.
        -12    1    3    3    0    0  0.14727155778E+02  0.52178511233E+00  0.56991357258E+01  0.15800048260E+02  0.00000000000E+00 0.  1.
</event>
<event>
 7    1  0.6136531E-013  0.5052885E+02  0.7816164E-02  0.1300439E+00
        -11   -1    0    0    0    0  0.00000000000E+00  0.00000000000E+00  0.45593999997E+02  0.45594000000E+02  0.51100000000E-03 0.  1.
         11   -1    0    0    0    0 -0.00000000000E+00 -0.00000000000E+00 -0.45593999997E+02  0.45594000000E+02  0.51100000000E-03 0. -1.
    9900012    2    1    2    0    0  0.15565418367E+02  0.28194538311E+02  0.24818380544E+02  0.50528852784E+02  0.29999978521E+02 0.  0.
         12    1    1    2    0    0 -0.15565418367E+02 -0.28194538311E+02 -0.24818380544E+02  0.40659147216E+02  0.00000000000E+00 0. -1.
         11    1    3    3    0    0  0.34861936819E+01  0.15028241431E+02  0.23290575771E+02  0.27936580086E+02  0.51100000000E-03 0. -1.
        -11    1    3    3    0    0  0.63984116777E+01  0.14859336743E+02  0.30703160737E+01  0.16467130943E+02  0.51100000000E-03 0.  1.
         12    1    3    3    0    0  0.56808130076E+01 -0.16930398625E+01 -0.15425113011E+01  0.61251417549E+01  0.00000000000E+00 0. -1.
</event>
<event>
 7    1  0.6136531E-013  0.5052886E+02  0.7816164E-02  0.1300439E+00
        -11   -1    0    0    0    0  0.00000000000E+00  0.00000000000E+00  0.45593999997E+02  0.45594000000E+02  0.51100000000E-03 0. -1.
         11   -1    0    0    0    0 -0.00000000000E+00 -0.00000000000E+00 -0.45593999997E+02  0.45594000000E+02  0.51100000000E-03 0.  1.
    9900012    2    1    2    0    0 -0.20502291091E+02  0.32966614319E+02  0.12084026693E+02  0.50528864486E+02  0.30000014091E+02 0.  0.
         12    1    1    2    0    0  0.20502291091E+02 -0.32966614319E+02 -0.12084026693E+02  0.40659135514E+02  0.00000000000E+00 0. -1.
         11    1    3    3    0    0 -0.39724946688E+01  0.31933592448E+00 -0.24216717672E+01  0.46633875816E+01  0.51100000000E-03 0. -1.
        -11    1    3    3    0    0 -0.13832070725E+02  0.30990650905E+02  0.20095985695E+02  0.39441035298E+02  0.51100000000E-03 0.  1.
        -12    1    3    3    0    0 -0.26977256973E+01  0.16566274894E+01 -0.55902872351E+01  0.64244416059E+01  0.00000000000E+00 0.  1.
</event>
<event>
 7    1  0.6136531E-013  0.5052884E+02  0.7816164E-02  0.1300439E+00
        -11   -1    0    0    0    0  0.00000000000E+00  0.00000000000E+00  0.45593999997E+02  0.45594000000E+02  0.51100000000E-03 0.  1.
         11   -1    0    0    0    0 -0.00000000000E+00 -0.00000000000E+00 -0.45593999997E+02  0.45594000000E+02  0.51100000000E-03 0. -1.
    9900012    2    1    2    0    0  0.16705171573E+02 -0.22122044232E+01  0.37002841868E+02  0.50528844672E+02  0.29999953865E+02 0.  0.
         12    1    1    2    0    0 -0.16705171573E+02  0.22122044232E+01 -0.37002841868E+02  0.40659155328E+02  0.00000000000E+00 0. -1.
         11    1    3    3    0    0  0.15664568747E+02 -0.76753173552E+00  0.43454935498E+01  0.16274247554E+02  0.51100000000E-03 0. -1.
        -11    1    3    3    0    0  0.28019393869E+01  0.11456269995E+01  0.29984233089E+02  0.30136648118E+02  0.51100000000E-03 0.  1.
        -12    1    3    3    0    0 -0.17613365604E+01 -0.25902996872E+01  0.26731152284E+01  0.41179490007E+01  0.00000000000E+00 0.  1.
</event>
<event>
 7    1  0.6136531E-013  0.5052885E+02  0.7816164E-02  0.1300439E+00
        -11   -1    0    0    0    0  0.00000000000E+00  0.00000000000E+00  0.45593999997E+02  0.45594000000E+02  0.51100000000E-03 0.  1.
         11   -1    0    0    0    0 -0.00000000000E+00 -0.00000000000E+00 -0.45593999997E+02  0.45594000000E+02  0.51100000000E-03 0. -1.
    9900012    2    1    2    0    0  0.32383536184E+02 -0.24541129641E+02  0.14851841148E+01  0.50528853038E+02  0.29999979294E+02 0.  0.
         12    1    1    2    0    0 -0.32383536184E+02  0.24541129641E+02 -0.14851841148E+01  0.40659146962E+02  0.00000000000E+00 0. -1.
         11    1    3    3    0    0  0.96219467658E+01  0.23297681902E+00  0.99575182410E+01  0.13848765560E+02  0.51100000000E-03 0. -1.
        -11    1    3    3    0    0  0.50211260230E+01 -0.13824319631E+02 -0.50665466137E+01  0.15556137523E+02  0.51100000000E-03 0.  1.
         12    1    3    3    0    0  0.17740463395E+02 -0.10949786829E+02 -0.34057875125E+01  0.21123949954E+02  0.00000000000E+00 0. -1.
</event>
<event>
 7    1  0.6136531E-013  0.5052886E+02  0.7816164E-02  0.1300439E+00
        -11   -1    0    0    0    0  0.00000000000E+00  0.00000000000E+00  0.45593999997E+02  0.45594000000E+02  0.51100000000E-03 0. -1.
         11   -1    0    0    0    0 -0.00000000000E+00 -0.00000000000E+00 -0.45593999997E+02  0.45594000000E+02  0.51100000000E-03 0.  1.
    9900012    2    1    2    0    0  0.80207299284E+01 -0.11922880685E+02 -0.38035227847E+02  0.50528858963E+02  0.29999997305E+02 0.  0.
         12    1    1    2    0    0 -0.80207299284E+01  0.11922880685E+02  0.38035227847E+02  0.40659141037E+02  0.00000000000E+00 0. -1.
         11    1    3    3    0    0 -0.27665071893E+01  0.85117333758E+01 -0.96311451323E+01  0.13147704131E+02  0.51100000000E-03 0. -1.
        -11    1    3    3    0    0  0.69183728137E+01 -0.94589981772E+01 -0.90868875486E+01  0.14829297168E+02  0.51100000000E-03 0.  1.
         12    1    3    3    0    0  0.38688643040E+01 -0.10975615884E+02 -0.19317195167E+02  0.22551857665E+02  0.00000000000E+00 0. -1.
</event>
<event>
 7    1  0.6136531E-013  0.5052884E+02  0.7816164E-02  0.1300439E+00
        -11   -1    0    0    0    0  0.00000000000E+00  0.00000000000E+00  0.45593999997E+02  0.45594000000E+02  0.51100000000E-03 0.  1.
         11   -1    0    0    0    0 -0.00000000000E+00 -0.00000000000E+00 -0.45593999997E+02  0.45594000000E+02  0.51100000000E-03 0. -1.
    9900012    2    1    2    0    0  0.10985795179E+02 -0.38388523688E+02  0.76681874543E+01  0.50528836881E+02  0.29999930184E+02 0.  0.
         12    1    1    2    0    0 -0.10985795179E+02  0.38388523688E+02 -0.76681874543E+01  0.40659163119E+02  0.00000000000E+00 0. -1.
         11    1    3    3    0    0  0.40708979029E+01 -0.15601744661E+01  0.73289612657E-01  0.43602437694E+01  0.51100000000E-03 0. -1.
        -11    1    3    3    0    0  0.11655353933E+02 -0.37986475889E+02  0.36650015124E+01  0.39903030739E+02  0.51100000000E-03 0.  1.
        -12    1    3    3    0    0 -0.47404566566E+01  0.11581266670E+01  0.39298963292E+01  0.62655623729E+01  0.00000000000E+00 0.  1.
</event>
<event>
 7    1  0.6136531E-013  0.5052885E+02  0.7816164E-02  0.1300439E+00
        -11   -1    0    0    0    0  0.00000000000E+00  0.00000000000E+00  0.45593999997E+02  0.45594000000E+02  0.51100000000E-03 0. -1.
         11   -1    0    0    0    0 -0.00000000000E+00 -0.00000000000E+00 -0.45593999997E+02  0.45594000000E+02  0.51100000000E-03 0.  1.
    9900012    2    1    2    0    0  0.27030617558E+01 -0.34854355962E+02 -0.20761346258E+02  0.50528853786E+02  0.29999981568E+02 0.  0.
         12    1    1    2    0    0 -0.27030617558E+01  0.34854355962E+02  0.20761346258E+02  0.40659146214E+02  0.00000000000E+00 0. -1.
         11    1    3    3    0    0 -0.51486686070E+01 -0.29716654598E+02 -0.83896411726E+01  0.31304543251E+02  0.51100000000E-03 0. -1.
        -11    1    3    3    0    0  0.85102535977E-01  0.12601949086E+01 -0.82570002298E+01  0.83530465523E+01  0.51100000000E-03 0.  1.
         12    1    3    3    0    0  0.77666278269E+01 -0.63978962732E+01 -0.41147048558E+01  0.10871263982E+02  0.00000000000E+00 0. -1.
</event>
<event>
 7    1  0.6136531E-013  0.5052886E+02  0.7816164E-02  0.1300439E+00
        -11   -1    0    0    0    0  0.00000000000E+00  0.00000000000E+00  0.45593999997E+02  0.45594000000E+02  0.51100000000E-03 0.  1.
         11   -1    0    0    0    0 -0.00000000000E+00 -0.00000000000E+00 -0.45593999997E+02  0.45594000000E+02  0.51100000000E-03 0. -1.
    9900012    2    1    2    0    0 -0.23518657254E+02  0.30624774401E+02 -0.12734264726E+02  0.50528861491E+02  0.30000004989E+02 0.  0.
         12    1    1    2    0    0  0.23518657254E+02 -0.30624774401E+02  0.12734264726E+02  0.40659138509E+02  0.00000000000E+00 0. -1.
         11    1    3    3    0    0 -0.21496961084E+02  0.27671739913E+02 -0.96805988234E+01  0.36353246340E+02  0.51100000000E-03 0. -1.
        -11    1    3    3    0    0 -0.51497566242E+00 -0.21373426738E+00  0.51885075971E+01  0.52183803633E+01  0.51100000000E-03 0.  1.
         12    1    3    3    0    0 -0.15067205080E+01  0.31667687558E+01 -0.82421734997E+01  0.89572347876E+01  0.00000000000E+00 0. -1.
</event>
<event>
 7    1  0.6136531E-013  0.5052886E+02  0.7816164E-02  0.1300439E+00
        -11   -1    0    0    0    0  0.00000000000E+00  0.00000000000E+00  0.45593999997E+02  0.45594000000E+02  0.51100000000E-03 0. -1.
         11   -1    0    0    0    0 -0.00000000000E+00 -0.00000000000E+00 -0.45593999997E+02  0.45594000000E+02  0.51100000000E-03 0.  1.
    9900012    2    1    2    0    0  0.28296220757E+02  0.93836029397E+01  0.27648464281E+02  0.50528859695E+02  0.29999999529E+02 0.  0.
         12    1    1    2    0    0 -0.28296220757E+02 -0.93836029397E+01 -0.27648464281E+02  0.40659140305E+02  0.00000000000E+00 0. -1.
         11    1    3    3    0    0  0.19638268698E+02 -0.14832952022E+00  0.26309576938E+01  0.19814276109E+02  0.51100000000E-03 0. -1.
        -11    1    3    3    0    0  0.70836011122E+01  0.53810454674E+01  0.24712362570E+02  0.26264689587E+02  0.51100000000E-03 0.  1.
         12    1    3    3    0    0  0.15743509472E+01  0.41508869925E+01  0.30514401706E+00  0.44498939988E+01  0.00000000000E+00 0. -1.
</event>
<event>
 7    1  0.6136531E-013  0.5052881E+02  0.7816164E-02  0.1300439E+00
        -11   -1    0    0    0    0  0.00000000000E+00  0.00000000000E+00  0.45593999997E+02  0.45594000000E+02  0.51100000000E-03 0. -1.
         11   -1    0    0    0    0 -0.00000000000E+00 -0.00000000000E+00 -0.45593999997E+02  0.45594000000E+02  0.51100000000E-03 0.  1.
    9900012    2    1    2    0    0  0.61846893560E+00 -0.15555088691E+02 -0.37560967996E+02  0.50528811557E+02  0.29999853208E+02 0.  0.
         12    1    1    2    0    0 -0.61846893560E+00  0.15555088691E+02  0.37560967996E+02  0.40659188443E+02  0.00000000000E+00 0. -1.
         11    1    3    3    0    0  0.38176282148E+01 -0.76867708016E+01 -0.57278043220E-01  0.85827741191E+01  0.51100000000E-03 0. -1.
        -11    1    3    3    0    0  0.57798721726E+01 -0.45002070623E+01 -0.25775606782E+02  0.26796281294E+02  0.51100000000E-03 0.  1.
         12    1    3    3    0    0 -0.89790314518E+01 -0.33681108274E+01 -0.11728083171E+02  0.15149756144E+02  0.00000000000E+00 0. -1.
</event>
<event>
 7    1  0.6136531E-013  0.5052886E+02  0.7816164E-02  0.1300439E+00
        -11   -1    0    0    0    0  0.00000000000E+00  0.00000000000E+00  0.45593999997E+02  0.45594000000E+02  0.51100000000E-03 0.  1.
         11   -1    0    0    0    0 -0.00000000000E+00 -0.00000000000E+00 -0.45593999997E+02  0.45594000000E+02  0.51100000000E-03 0. -1.
    9900012    2    1    2    0    0 -0.15657708127E+02  0.30647672334E+02  0.21649982842E+02  0.50528863261E+02  0.30000010368E+02 0.  0.
         12    1    1    2    0    0  0.15657708127E+02 -0.30647672334E+02 -0.21649982842E+02  0.40659136739E+02  0.00000000000E+00 0. -1.
         11    1    3    3    0    0 -0.14935170631E+02  0.17131930307E+02  0.25574730542E+02  0.34214458937E+02  0.51100000000E-03 0.  1.
        -11    1    3    3    0    0  0.26839500407E+01  0.10826627420E+02 -0.12689241470E+01  0.11226291367E+02  0.51100000000E-03 0. -1.
         12    1    3    3    0    0 -0.34064875375E+01  0.26891146069E+01 -0.26558235529E+01  0.50881129563E+01  0.00000000000E+00 0. -1.
</event>
<event>
 7    1  0.6136531E-013  0.5052886E+02  0.7816164E-02  0.1300439E+00
        -11   -1    0    0    0    0  0.00000000000E+00  0.00000000000E+00  0.45593999997E+02  0.45594000000E+02  0.51100000000E-03 0. -1.
         11   -1    0    0    0    0 -0.00000000000E+00 -0.00000000000E+00 -0.45593999997E+02  0.45594000000E+02  0.51100000000E-03 0.  1.
    9900012    2    1    2    0    0  0.38564891425E+02  0.97190303708E+01 -0.84531225872E+01  0.50528859780E+02  0.29999999787E+02 0.  0.
         12    1    1    2    0    0 -0.38564891425E+02 -0.97190303708E+01  0.84531225872E+01  0.40659140220E+02  0.00000000000E+00 0. -1.
         11    1    3    3    0    0 -0.34721843774E+01  0.51594134369E+01  0.11767182287E+01  0.63293188744E+01  0.51100000000E-03 0. -1.
        -11    1    3    3    0    0  0.20886841211E+02  0.64856583778E+01 -0.40700514452E+01  0.22246105713E+02  0.51100000000E-03 0.  1.
         12    1    3    3    0    0  0.21150234591E+02 -0.19260414439E+01 -0.55597893708E+01  0.21953435193E+02  0.00000000000E+00 0. -1.
</event>
<event>
 7    1  0.6136531E-013  0.5052887E+02  0.7816164E-02  0.1300439E+00
        -11   -1    0    0    0    0  0.00000000000E+00  0.00000000000E+00  0.45593999997E+02  0.45594000000E+02  0.51100000000E-03 0.  1.
         11   -1    0    0    0    0 -0.00000000000E+00 -0.00000000000E+00 -0.45593999997E+02  0.45594000000E+02  0.51100000000E-03 0. -1.
    9900012    2    1    2    0    0 -0.10295953563E+02  0.35210594884E+01  0.39176015042E+02  0.50528872190E+02  0.30000037510E+02 0.  0.
         12    1    1    2    0    0  0.10295953563E+02 -0.35210594884E+01 -0.39176015042E+02  0.40659127810E+02  0.00000000000E+00 0. -1.
         11    1    3    3    0    0  0.42057399012E+01  0.40518591500E+01  0.22081600186E+01  0.62435391900E+01  0.51100000000E-03 0. -1.
        -11    1    3    3    0    0 -0.47947807445E+01 -0.91132880525E+01  0.23181760720E+02  0.25366039735E+02  0.51100000000E-03 0.  1.
        -12    1    3    3    0    0 -0.97069127195E+01  0.85824883908E+01  0.13786094303E+02  0.18919293265E+02  0.00000000000E+00 0.  1.
</event>
<event>
 7    1  0.6136531E-013  0.5052886E+02  0.7816164E-02  0.1300439E+00
        -11   -1    0    0    0    0  0.00000000000E+00  0.00000000000E+00  0.45593999997E+02  0.45594000000E+02  0.51100000000E-03 0. -1.
         11   -1    0    0    0    0 -0.00000000000E+00 -0.00000000000E+00 -0.45593999997E+02  0.45594000000E+02  0.51100000000E-03 0.  1.
    9900012    2    1    2    0    0  0.89610495170E+01  0.30723622175E+02 -0.25078361290E+02  0.50528861138E+02  0.30000003916E+02 0.  0.
         12    1    1    2    0    0 -0.89610495170E+01 -0.30723622175E+02  0.25078361290E+02  0.40659138862E+02  0.00000000000E+00 0. -1.
         11    1    3    3    0    0  0.15875026177E+02  0.16244525448E+02 -0.36628161174E+01  0.23006896473E+02  0.51100000000E-03 0. -1.
        -11    1    3    3    0    0 -0.52099438183E+01  0.12595955559E+02 -0.13402912517E+02  0.19116476538E+02  0.51100000000E-03 0.  1.
        -12    1    3    3    0    0 -0.17040328415E+01  0.18831411676E+01 -0.80126326556E+01  0.84054881271E+01  0.00000000000E+00 0.  1.
</event>
<event>
 7    1  0.6136531E-013  0.5052886E+02  0.7816164E-02  0.1300439E+00
        -11   -1    0    0    0    0  0.00000000000E+00  0.00000000000E+00  0.45593999997E+02  0.45594000000E+02  0.51100000000E-03 0.  1.
         11   -1    0    0    0    0 -0.00000000000E+00 -0.00000000000E+00 -0.45593999997E+02  0.45594000000E+02  0.51100000000E-03 0. -1.
    9900012    2    1    2    0    0  0.16736044347E+02 -0.10347784307E+02  0.35580810868E+02  0.50528856840E+02  0.29999990852E+02 0.  0.
         12    1    1    2    0    0 -0.16736044347E+02  0.10347784307E+02 -0.35580810868E+02  0.40659143160E+02  0.00000000000E+00 0. -1.
         11    1    3    3    0    0 -0.25679954889E+01  0.36521998222E+01  0.88103878773E+00  0.45507575170E+01  0.51100000000E-03 0. -1.
        -11    1    3    3    0    0  0.15325502332E+02 -0.64349751258E+01  0.90161470875E+01  0.18909543495E+02  0.51100000000E-03 0.  1.
        -12    1    3    3    0    0  0.39785375040E+01 -0.75650090033E+01  0.25683624993E+02  0.27068555829E+02  0.00000000000E+00 0.  1.
</event>
<event>
 7    1  0.6136531E-013  0.5052886E+02  0.7816164E-02  0.1300439E+00
        -11   -1    0    0    0    0  0.00000000000E+00  0.00000000000E+00  0.45593999997E+02  0.45594000000E+02  0.51100000000E-03 0.  1.
         11   -1    0    0    0    0 -0.00000000000E+00 -0.00000000000E+00 -0.45593999997E+02  0.45594000000E+02  0.51100000000E-03 0. -1.
    9900012    2    1    2    0    0  0.25066769959E+02  0.28534656312E+02  0.14511935960E+02  0.50528857703E+02  0.29999993475E+02 0.  0.
         12    1    1    2    0    0 -0.25066769959E+02 -0.28534656312E+02 -0.14511935960E+02  0.40659142297E+02  0.00000000000E+00 0. -1.
         11    1    3    3    0    0  0.68641033668E+01  0.97503756305E+01 -0.72676067522E+01  0.13964377828E+02  0.51100000000E-03 0. -1.
        -11    1    3    3    0    0  0.18324031520E+02  0.10594403987E+02  0.15206736021E+02  0.26062546838E+02  0.51100000000E-03 0.  1.
        -12    1    3    3    0    0 -0.12136492844E+00  0.81898766942E+01  0.65728066917E+01  0.10501933037E+02  0.00000000000E+00 0.  1.
</event>
<event>
 7    1  0.6136531E-013  0.5052886E+02  0.7816164E-02  0.1300439E+00
        -11   -1    0    0    0    0  0.00000000000E+00  0.00000000000E+00  0.45593999997E+02  0.45594000000E+02  0.51100000000E-03 0. -1.
         11   -1    0    0    0    0 -0.00000000000E+00 -0.00000000000E+00 -0.45593999997E+02  0.45594000000E+02  0.51100000000E-03 0.  1.
    9900012    2    1    2    0    0  0.39635968212E+02 -0.35443839089E+01  0.83422392750E+01  0.50528860935E+02  0.30000003298E+02 0.  0.
         12    1    1    2    0    0 -0.39635968212E+02  0.35443839089E+01 -0.83422392750E+01  0.40659139065E+02  0.00000000000E+00 0. -1.
         11    1    3    3    0    0  0.16123156907E+02 -0.78079271332E+01 -0.63407948174E+01  0.19003304816E+02  0.51100000000E-03 0. -1.
        -11    1    3    3    0    0  0.16868560392E+02  0.88609176356E+01  0.13517763573E+02  0.23362237122E+02  0.51100000000E-03 0.  1.
        -12    1    3    3    0    0  0.66442509123E+01 -0.45973744113E+01  0.11652705197E+01  0.81633189971E+01  0.00000000000E+00 0.  1.
</event>
<event>
 7    1  0.6136531E-013  0.5052886E+02  0.7816164E-02  0.1300439E+00
        -11   -1    0    0    0    0  0.00000000000E+00  0.00000000000E+00  0.45593999997E+02  0.45594000000E+02  0.51100000000E-03 0.  1.
         11   -1    0    0    0    0 -0.00000000000E+00 -0.00000000000E+00 -0.45593999997E+02  0.45594000000E+02  0.51100000000E-03 0. -1.
    9900012    2    1    2    0    0 -0.11461419287E+02 -0.30942563613E+02  0.23756239805E+02  0.50528864437E+02  0.30000013943E+02 0.  0.
         12    1    1    2    0    0  0.11461419287E+02  0.30942563613E+02 -0.23756239805E+02  0.40659135563E+02  0.00000000000E+00 0. -1.
         11    1    3    3    0    0 -0.12576266413E+02 -0.29614464388E+02  0.19738529316E+02  0.37746370921E+02  0.51100000000E-03 0. -1.
        -11    1    3    3    0    0  0.31272012873E+01  0.92306723092E+00  0.74971906986E+01  0.81755311532E+01  0.51100000000E-03 0.  1.
         12    1    3    3    0    0 -0.20123541613E+01 -0.22511664566E+01 -0.34794802094E+01  0.46069623630E+01  0.00000000000E+00 0. -1.
</event>
<event>
 7    1  0.6136531E-013  0.5052886E+02  0.7816164E-02  0.1300439E+00
        -11   -1    0    0    0    0  0.00000000000E+00  0.00000000000E+00  0.45593999997E+02  0.45594000000E+02  0.51100000000E-03 0.  1.
         11   -1    0    0    0    0 -0.00000000000E+00 -0.00000000000E+00 -0.45593999997E+02  0.45594000000E+02  0.51100000000E-03 0. -1.
    9900012    2    1    2    0    0 -0.74677414281E+01  0.34162378483E+02  0.20744398900E+02  0.50528863863E+02  0.30000012199E+02 0.  0.
         12    1    1    2    0    0  0.74677414281E+01 -0.34162378483E+02 -0.20744398900E+02  0.40659136137E+02  0.00000000000E+00 0. -1.
         11    1    3    3    0    0 -0.68434103435E+01  0.10319640061E+02  0.18095576338E+02  0.21926630370E+02  0.51100000000E-03 0. -1.
        -11    1    3    3    0    0 -0.43229280081E+01  0.23772932147E+02  0.43150292081E+01  0.24545050147E+02  0.51100000000E-03 0.  1.
         12    1    3    3    0    0  0.36985969235E+01  0.69806275012E-01 -0.16662066456E+01  0.40571833462E+01  0.00000000000E+00 0. -1.
</event>
<event>
 7    1  0.6136531E-013  0.5052888E+02  0.7816164E-02  0.1300439E+00
        -11   -1    0    0    0    0  0.00000000000E+00  0.00000000000E+00  0.45593999997E+02  0.45594000000E+02  0.51100000000E-03 0.  1.
         11   -1    0    0    0    0 -0.00000000000E+00 -0.00000000000E+00 -0.45593999997E+02  0.45594000000E+02  0.51100000000E-03 0. -1.
    9900012    2    1    2    0    0 -0.15898221755E+02 -0.79086040175E+01  0.36576833464E+02  0.50528877792E+02  0.30000054536E+02 0.  0.
         12    1    1    2    0    0  0.15898221755E+02  0.79086040175E+01 -0.36576833464E+02  0.40659122208E+02  0.00000000000E+00 0. -1.
         11    1    3    3    0    0 -0.49153034206E+01  0.35324283915E+01  0.12236389879E+02  0.13651648091E+02  0.51100000000E-03 0.  1.
        -11    1    3    3    0    0  0.70668279818E+01 -0.35887286726E+01  0.83939997882E+01  0.11544620562E+02  0.51100000000E-03 0. -1.
        -12    1    3    3    0    0 -0.18049746316E+02 -0.78523037364E+01  0.15946443797E+02  0.25332609140E+02  0.00000000000E+00 0.  1.
</event>
<event>
 7    1  0.6136531E-013  0.5052884E+02  0.7816164E-02  0.1300439E+00
        -11   -1    0    0    0    0  0.00000000000E+00  0.00000000000E+00  0.45593999997E+02  0.45594000000E+02  0.51100000000E-03 0.  1.
         11   -1    0    0    0    0 -0.00000000000E+00 -0.00000000000E+00 -0.45593999997E+02  0.45594000000E+02  0.51100000000E-03 0. -1.
    9900012    2    1    2    0    0  0.22140653616E+02  0.23205408885E+02 -0.24989353045E+02  0.50528839781E+02  0.29999938999E+02 0.  0.
         12    1    1    2    0    0 -0.22140653616E+02 -0.23205408885E+02  0.24989353045E+02  0.40659160219E+02  0.00000000000E+00 0. -1.
         11    1    3    3    0    0  0.15516189893E+02  0.21929423673E+02 -0.23508650156E+02  0.35697456545E+02  0.51100000000E-03 0. -1.
        -11    1    3    3    0    0  0.22460192919E+01  0.50582424291E+01  0.40259861263E+01  0.68439012034E+01  0.51100000000E-03 0.  1.
         12    1    3    3    0    0  0.43784444313E+01 -0.37822572174E+01 -0.55066890163E+01  0.79874820324E+01  0.00000000000E+00 0. -1.
</event>
<event>
 7    1  0.6136531E-013  0.5052886E+02  0.7816164E-02  0.1300439E+00
        -11   -1    0    0    0    0  0.00000000000E+00  0.00000000000E+00  0.45593999997E+02  0.45594000000E+02  0.51100000000E-03 0.  1.
         11   -1    0    0    0    0 -0.00000000000E+00 -0.00000000000E+00 -0.45593999997E+02  0.45594000000E+02  0.51100000000E-03 0. -1.
    9900012    2    1    2    0    0 -0.23832255764E+02 -0.27233225950E+01  0.32829446609E+02  0.50528862461E+02  0.30000007936E+02 0.  0.
         12    1    1    2    0    0  0.23832255764E+02  0.27233225950E+01 -0.32829446609E+02  0.40659137539E+02  0.00000000000E+00 0. -1.
         11    1    3    3    0    0 -0.12351875126E+02  0.79350859228E+01  0.29301591392E+01  0.14970645964E+02  0.51100000000E-03 0. -1.
        -11    1    3    3    0    0 -0.90967583826E+01 -0.10003158260E+02  0.13982351037E+02  0.19450458324E+02  0.51100000000E-03 0.  1.
         12    1    3    3    0    0 -0.23836222558E+01 -0.65525025810E+00  0.15916936433E+02  0.16107758173E+02  0.00000000000E+00 0. -1.
</event>
<event>
 7    1  0.6136531E-013  0.5052884E+02  0.7816164E-02  0.1300439E+00
        -11   -1    0    0    0    0  0.00000000000E+00  0.00000000000E+00  0.45593999997E+02  0.45594000000E+02  0.51100000000E-03 0.  1.
         11   -1    0    0    0    0 -0.00000000000E+00 -0.00000000000E+00 -0.45593999997E+02  0.45594000000E+02  0.51100000000E-03 0. -1.
    9900012    2    1    2    0    0 -0.89612301375E+01 -0.21540651909E+02  0.33299604443E+02  0.50528843758E+02  0.29999951088E+02 0.  0.
         12    1    1    2    0    0  0.89612301375E+01  0.21540651909E+02 -0.33299604443E+02  0.40659156242E+02  0.00000000000E+00 0. -1.
         11    1    3    3    0    0 -0.76702552846E+01 -0.12708740311E+01 -0.16969385630E+01  0.79578601195E+01  0.51100000000E-03 0. -1.
        -11    1    3    3    0    0 -0.94803385783E+00 -0.20683968268E+02  0.35944164085E+02  0.41481420462E+02  0.51100000000E-03 0.  1.
        -12    1    3    3    0    0 -0.34294099502E+00  0.41419039033E+00 -0.94762107962E+00  0.10895631767E+01  0.00000000000E+00 0.  1.
</event>
<event>
 7    1  0.6136531E-013  0.5052886E+02  0.7816164E-02  0.1300439E+00
        -11   -1    0    0    0    0  0.00000000000E+00  0.00000000000E+00  0.45593999997E+02  0.45594000000E+02  0.51100000000E-03 0.  1.
         11   -1    0    0    0    0 -0.00000000000E+00 -0.00000000000E+00 -0.45593999997E+02  0.45594000000E+02  0.51100000000E-03 0. -1.
    9900012    2    1    2    0    0  0.16408715265E+02 -0.36548257561E+02  0.69386165644E+01  0.50528862439E+02  0.30000007870E+02 0.  0.
         12    1    1    2    0    0 -0.16408715265E+02  0.36548257561E+02 -0.69386165644E+01  0.40659137561E+02  0.00000000000E+00 0. -1.
         11    1    3    3    0    0 -0.78212079649E+01 -0.45612242498E+01 -0.76053341768E+00  0.90859491539E+01  0.51100000000E-03 0. -1.
        -11    1    3    3    0    0  0.20243899645E+02 -0.21723914831E+02  0.50784655148E+01  0.30125317603E+02  0.51100000000E-03 0.  1.
        -12    1    3    3    0    0  0.39860235847E+01 -0.10263118480E+02  0.26206844672E+01  0.11317595682E+02  0.00000000000E+00 0.  1.
</event>
<event>
 7    1  0.6136531E-013  0.5052886E+02  0.7816164E-02  0.1300439E+00
        -11   -1    0    0    0    0  0.00000000000E+00  0.00000000000E+00  0.45593999997E+02  0.45594000000E+02  0.51100000000E-03 0.  1.
         11   -1    0    0    0    0 -0.00000000000E+00 -0.00000000000E+00 -0.45593999997E+02  0.45594000000E+02  0.51100000000E-03 0. -1.
    9900012    2    1    2    0    0  0.19234400622E+02  0.26879858365E+02  0.23678614237E+02  0.50528859266E+02  0.29999998226E+02 0.  0.
         12    1    1    2    0    0 -0.19234400622E+02 -0.26879858365E+02 -0.23678614237E+02  0.40659140734E+02  0.00000000000E+00 0. -1.
         11    1    3    3    0    0 -0.36273308709E+01  0.92994065811E+01  0.85375213843E+01  0.13134906306E+02  0.51100000000E-03 0. -1.
        -11    1    3    3    0    0  0.14857428040E+02  0.19545880335E+02  0.63837480842E+01  0.25368028025E+02  0.51100000000E-03 0.  1.
        -12    1    3    3    0    0  0.80043034532E+01 -0.19654285511E+01  0.87573447687E+01  0.12025924936E+02  0.00000000000E+00 0.  1.
</event>
<event>
 7    1  0.6136531E-013  0.5052888E+02  0.7816164E-02  0.1300439E+00
        -11   -1    0    0    0    0  0.00000000000E+00  0.00000000000E+00  0.45593999997E+02  0.45594000000E+02  0.51100000000E-03 0. -1.
         11   -1    0    0    0    0 -0.00000000000E+00 -0.00000000000E+00 -0.45593999997E+02  0.45594000000E+02  0.51100000000E-03 0.  1.
    9900012    2    1    2    0    0 -0.14889182350E+02  0.86321370251E+00 -0.37825004575E+02  0.50528882203E+02  0.30000067945E+02 0.  0.
         12    1    1    2    0    0  0.14889182350E+02 -0.86321370251E+00  0.37825004575E+02  0.40659117797E+02  0.00000000000E+00 0. -1.
         11    1    3    3    0    0 -0.32344065317E+01 -0.41000520511E+01  0.26512770758E+01  0.58567126297E+01  0.51100000000E-03 0. -1.
        -11    1    3    3    0    0 -0.11049095466E+02 -0.23879388737E+01 -0.27728728321E+02  0.29944400766E+02  0.51100000000E-03 0.  1.
         12    1    3    3    0    0 -0.60568035244E+00  0.73512046273E+01 -0.12747553329E+02  0.14727768807E+02  0.00000000000E+00 0. -1.
</event>
<event>
 7    1  0.6136531E-013  0.5052886E+02  0.7816164E-02  0.1300439E+00
        -11   -1    0    0    0    0  0.00000000000E+00  0.00000000000E+00  0.45593999997E+02  0.45594000000E+02  0.51100000000E-03 0.  1.
         11   -1    0    0    0    0 -0.00000000000E+00 -0.00000000000E+00 -0.45593999997E+02  0.45594000000E+02  0.51100000000E-03 0. -1.
    9900012    2    1    2    0    0  0.82416369340E+01 -0.17600056314E+02  0.35713850250E+02  0.50528860053E+02  0.30000000616E+02 0.  0.
         12    1    1    2    0    0 -0.82416369340E+01  0.17600056314E+02 -0.35713850250E+02  0.40659139947E+02  0.00000000000E+00 0. -1.
         11    1    3    3    0    0 -0.27051893698E+01 -0.46769540115E+00  0.10051891141E+01  0.29235584364E+01  0.51100000000E-03 0. -1.
        -11    1    3    3    0    0  0.16866632730E+02 -0.16903736723E+02  0.34128114232E+02  0.41652704548E+02  0.51100000000E-03 0.  1.
        -12    1    3    3    0    0 -0.59198064267E+01 -0.22862418942E+00  0.58054690343E+00  0.59525970682E+01  0.00000000000E+00 0.  1.
</event>
<event>
 7    1  0.6136531E-013  0.5052884E+02  0.7816164E-02  0.1300439E+00
        -11   -1    0    0    0    0  0.00000000000E+00  0.00000000000E+00  0.45593999997E+02  0.45594000000E+02  0.51100000000E-03 0. -1.
         11   -1    0    0    0    0 -0.00000000000E+00 -0.00000000000E+00 -0.45593999997E+02  0.45594000000E+02  0.51100000000E-03 0.  1.
    9900012    2    1    2    0    0 -0.21240847898E+02  0.29747147097E+02 -0.17807318937E+02  0.50528843742E+02  0.29999951039E+02 0.  0.
         12    1    1    2    0    0  0.21240847898E+02 -0.29747147097E+02  0.17807318937E+02  0.40659156258E+02  0.00000000000E+00 0. -1.
         11    1    3    3    0    0  0.69064134372E-01 -0.80630377683E-01 -0.19068456498E+00  0.21824751294E+00  0.51100000000E-03 0. -1.
        -11    1    3    3    0    0 -0.25201245418E+02  0.16017454584E+02 -0.33015578076E+01  0.30042668094E+02  0.51100000000E-03 0.  1.
        -12    1    3    3    0    0  0.38913333853E+01  0.13810322891E+02 -0.14315076565E+02  0.20267928135E+02  0.00000000000E+00 0.  1.
</event>
<event>
 7    1  0.6136531E-013  0.5052886E+02  0.7816164E-02  0.1300439E+00
        -11   -1    0    0    0    0  0.00000000000E+00  0.00000000000E+00  0.45593999997E+02  0.45594000000E+02  0.51100000000E-03 0. -1.
         11   -1    0    0    0    0 -0.00000000000E+00 -0.00000000000E+00 -0.45593999997E+02  0.45594000000E+02  0.51100000000E-03 0.  1.
    9900012    2    1    2    0    0  0.16463324254E+02  0.37135078524E+02 -0.17636820181E+01  0.50528859862E+02  0.30000000036E+02 0.  0.
         12    1    1    2    0    0 -0.16463324254E+02 -0.37135078524E+02  0.17636820181E+01  0.40659140138E+02  0.00000000000E+00 0. -1.
         11    1    3    3    0    0 -0.40379607379E+01  0.21585480512E+02  0.20573785399E+01  0.22056085386E+02  0.51100000000E-03 0. -1.
        -11    1    3    3    0    0  0.11729791634E+02  0.13844462326E+02 -0.62858738840E+01  0.19203368445E+02  0.51100000000E-03 0.  1.
         12    1    3    3    0    0  0.87714933576E+01  0.17051356864E+01  0.24648133261E+01  0.92694060308E+01  0.00000000000E+00 0. -1.
</event>
<event>
 7    1  0.6136531E-013  0.5052885E+02  0.7816164E-02  0.1300439E+00
        -11   -1    0    0    0    0  0.00000000000E+00  0.00000000000E+00  0.45593999997E+02  0.45594000000E+02  0.51100000000E-03 0.  1.
         11   -1    0    0    0    0 -0.00000000000E+00 -0.00000000000E+00 -0.45593999997E+02  0.45594000000E+02  0.51100000000E-03 0. -1.
    9900012    2    1    2    0    0  0.28007734103E+02 -0.11919259850E+02  0.26956713620E+02  0.50528851778E+02  0.29999975463E+02 0.  0.
         12    1    1    2    0    0 -0.28007734103E+02  0.11919259850E+02 -0.26956713620E+02  0.40659148222E+02  0.00000000000E+00 0. -1.
         11    1    3    3    0    0  0.19985581475E+01 -0.63105099290E+01 -0.46715341160E+01  0.81018517323E+01  0.51100000000E-03 0. -1.
        -11    1    3    3    0    0  0.26404624874E+02 -0.58969042911E+01  0.28637529044E+02  0.39396519706E+02  0.51100000000E-03 0.  1.
         12    1    3    3    0    0 -0.39544891846E+00  0.28815437011E+00  0.29907186923E+01  0.30304803389E+01  0.00000000000E+00 0. -1.
</event>
<event>
 7    1  0.6136531E-013  0.5052886E+02  0.7816164E-02  0.1300439E+00
        -11   -1    0    0    0    0  0.00000000000E+00  0.00000000000E+00  0.45593999997E+02  0.45594000000E+02  0.51100000000E-03 0. -1.
         11   -1    0    0    0    0 -0.00000000000E+00 -0.00000000000E+00 -0.45593999997E+02  0.45594000000E+02  0.51100000000E-03 0.  1.
    9900012    2    1    2    0    0 -0.88215864303E+01 -0.37529296542E+02 -0.12918871372E+02  0.50528859286E+02  0.29999998286E+02 0.  0.
         12    1    1    2    0    0  0.88215864303E+01  0.37529296542E+02  0.12918871372E+02  0.40659140714E+02  0.00000000000E+00 0. -1.
         11    1    3    3    0    0  0.66152798556E+01 -0.27065133660E+02 -0.13038383870E+02  0.30761710645E+02  0.51100000000E-03 0. -1.
        -11    1    3    3    0    0 -0.14719827967E+02 -0.78389319838E+01 -0.12439030273E+01  0.16723321591E+02  0.51100000000E-03 0.  1.
         12    1    3    3    0    0 -0.71703831907E+00 -0.26252308984E+01  0.13634155252E+01  0.30438270509E+01  0.00000000000E+00 0. -1.
</event>
<event>
 7    1  0.6136531E-013  0.5052886E+02  0.7816164E-02  0.1300439E+00
        -11   -1    0    0    0    0  0.00000000000E+00  0.00000000000E+00  0.45593999997E+02  0.45594000000E+02  0.51100000000E-03 0.  1.
         11   -1    0    0    0    0 -0.00000000000E+00 -0.00000000000E+00 -0.45593999997E+02  0.45594000000E+02  0.51100000000E-03 0. -1.
    9900012    2    1    2    0    0 -0.22150839847E+02  0.31776938515E+02  0.12358486895E+02  0.50528859261E+02  0.29999998209E+02 0.  0.
         12    1    1    2    0    0  0.22150839847E+02 -0.31776938515E+02 -0.12358486895E+02  0.40659140739E+02  0.00000000000E+00 0. -1.
         11    1    3    3    0    0 -0.61769206784E+01  0.14141335004E+02 -0.91334542456E+01  0.17931862466E+02  0.51100000000E-03 0. -1.
        -11    1    3    3    0    0 -0.36074746255E+01  0.78792580986E+01  0.89930022417E+01  0.12488821839E+02  0.51100000000E-03 0.  1.
         12    1    3    3    0    0 -0.12366444543E+02  0.97563454117E+01  0.12498938899E+02  0.20108174956E+02  0.00000000000E+00 0. -1.
</event>
<event>
 7    1  0.6136531E-013  0.5052886E+02  0.7816164E-02  0.1300439E+00
        -11   -1    0    0    0    0  0.00000000000E+00  0.00000000000E+00  0.45593999997E+02  0.45594000000E+02  0.51100000000E-03 0.  1.
         11   -1    0    0    0    0 -0.00000000000E+00 -0.00000000000E+00 -0.45593999997E+02  0.45594000000E+02  0.51100000000E-03 0. -1.
    9900012    2    1    2    0    0 -0.21961614556E+02 -0.32137715156E+02  0.11748220374E+02  0.50528856732E+02  0.29999990522E+02 0.  0.
         12    1    1    2    0    0  0.21961614556E+02  0.32137715156E+02 -0.11748220374E+02  0.40659143268E+02  0.00000000000E+00 0. -1.
         11    1    3    3    0    0 -0.22292512956E+02 -0.30373025663E+02  0.17634795776E+02  0.41598832245E+02  0.51100000000E-03 0. -1.
        -11    1    3    3    0    0  0.50127316472E+00 -0.41678003902E+01 -0.29452080472E+01  0.51279709028E+01  0.51100000000E-03 0.  1.
         12    1    3    3    0    0 -0.17037476467E+00  0.24031108969E+01 -0.29413673549E+01  0.38020535845E+01  0.00000000000E+00 0. -1.
</event>
<event>
 7    1  0.6136531E-013  0.5052888E+02  0.7816164E-02  0.1300439E+00
        -11   -1    0    0    0    0  0.00000000000E+00  0.00000000000E+00  0.45593999997E+02  0.45594000000E+02  0.51100000000E-03 0.  1.
         11   -1    0    0    0    0 -0.00000000000E+00 -0.00000000000E+00 -0.45593999997E+02  0.45594000000E+02  0.51100000000E-03 0. -1.
    9900012    2    1    2    0    0  0.85384569069E+01 -0.78864162789E+01  0.38962332833E+02  0.50528878171E+02  0.30000055689E+02 0.  0.
         12    1    1    2    0    0 -0.85384569069E+01  0.78864162789E+01 -0.38962332833E+02  0.40659121829E+02  0.00000000000E+00 0. -1.
         11    1    3    3    0    0 -0.54985289390E+01  0.22707899447E+01  0.12524446783E+02  0.13865499448E+02  0.51100000000E-03 0. -1.
        -11    1    3    3    0    0  0.94647618179E+01 -0.72207242017E+00  0.14986164622E+01  0.96098364404E+01  0.51100000000E-03 0.  1.
        -12    1    3    3    0    0  0.45722240279E+01 -0.94351338035E+01  0.24939269588E+02  0.27053542283E+02  0.00000000000E+00 0.  1.
</event>
<event>
 7    1  0.6136531E-013  0.5052886E+02  0.7816164E-02  0.1300439E+00
        -11   -1    0    0    0    0  0.00000000000E+00  0.00000000000E+00  0.45593999997E+02  0.45594000000E+02  0.51100000000E-03 0. -1.
         11   -1    0    0    0    0 -0.00000000000E+00 -0.00000000000E+00 -0.45593999997E+02  0.45594000000E+02  0.51100000000E-03 0.  1.
    9900012    2    1    2    0    0  0.85837070335E+01  0.34793819320E+02 -0.19206142148E+02  0.50528858524E+02  0.29999995970E+02 0.  0.
         12    1    1    2    0    0 -0.85837070335E+01 -0.34793819320E+02  0.19206142148E+02  0.40659141476E+02  0.00000000000E+00 0. -1.
         11    1    3    3    0    0  0.22105799388E+01 -0.12354941349E+01  0.14214734284E+01  0.29040827110E+01  0.51100000000E-03 0. -1.
        -11    1    3    3    0    0  0.66195637062E+01  0.35948031405E+02 -0.24332569822E+02  0.43910745154E+02  0.51100000000E-03 0.  1.
        -12    1    3    3    0    0 -0.24643661150E+00  0.81282049674E-01  0.37049542455E+01  0.37140306590E+01  0.00000000000E+00 0.  1.
</event>
<event>
 7    1  0.6136531E-013  0.5052886E+02  0.7816164E-02  0.1300439E+00
        -11   -1    0    0    0    0  0.00000000000E+00  0.00000000000E+00  0.45593999997E+02  0.45594000000E+02  0.51100000000E-03 0.  1.
         11   -1    0    0    0    0 -0.00000000000E+00 -0.00000000000E+00 -0.45593999997E+02  0.45594000000E+02  0.51100000000E-03 0. -1.
    9900012    2    1    2    0    0  0.34745510993E+02 -0.19176740725E+02  0.88412461093E+01  0.50528861399E+02  0.30000004710E+02 0.  0.
         12    1    1    2    0    0 -0.34745510993E+02  0.19176740725E+02 -0.88412461093E+01  0.40659138601E+02  0.00000000000E+00 0. -1.
         11    1    3    3    0    0  0.26930489137E+02 -0.47111153686E+01  0.74915906559E+01  0.28347306468E+02  0.51100000000E-03 0. -1.
        -11    1    3    3    0    0 -0.36843240584E+01 -0.29977238408E+00 -0.88085306322E+00  0.38000012670E+01  0.51100000000E-03 0.  1.
        -12    1    3    3    0    0  0.11499345914E+02 -0.14165852972E+02  0.22305085165E+01  0.18381553664E+02  0.00000000000E+00 0.  1.
</event>
<event>
 7    1  0.6136531E-013  0.5052886E+02  0.7816164E-02  0.1300439E+00
        -11   -1    0    0    0    0  0.00000000000E+00  0.00000000000E+00  0.45593999997E+02  0.45594000000E+02  0.51100000000E-03 0. -1.
         11   -1    0    0    0    0 -0.00000000000E+00 -0.00000000000E+00 -0.45593999997E+02  0.45594000000E+02  0.51100000000E-03 0.  1.
    9900012    2    1    2    0    0 -0.10924981529E+02 -0.36893205976E+02 -0.13141611925E+02  0.50528857946E+02  0.29999994213E+02 0.  0.
         12    1    1    2    0    0  0.10924981529E+02  0.36893205976E+02  0.13141611925E+02  0.40659142054E+02  0.00000000000E+00 0. -1.
         11    1    3    3    0    0 -0.72720672261E+01 -0.88290050939E+01  0.86875844067E+01  0.14363440249E+02  0.51100000000E-03 0. -1.
        -11    1    3    3    0    0 -0.42680310726E+01 -0.13069002620E+02 -0.91083621592E+01  0.16491730661E+02  0.51100000000E-03 0.  1.
         12    1    3    3    0    0  0.61511676976E+00 -0.14995198262E+02 -0.12720834173E+02  0.19673687036E+02  0.00000000000E+00 0. -1.
</event>
<event>
 7    1  0.6136531E-013  0.5052886E+02  0.7816164E-02  0.1300439E+00
        -11   -1    0    0    0    0  0.00000000000E+00  0.00000000000E+00  0.45593999997E+02  0.45594000000E+02  0.51100000000E-03 0.  1.
         11   -1    0    0    0    0 -0.00000000000E+00 -0.00000000000E+00 -0.45593999997E+02  0.45594000000E+02  0.51100000000E-03 0. -1.
    9900012    2    1    2    0    0  0.14392338094E+02  0.24333955836E+02  0.29221305844E+02  0.50528861819E+02  0.30000005984E+02 0.  0.
         12    1    1    2    0    0 -0.14392338094E+02 -0.24333955836E+02 -0.29221305844E+02  0.40659138181E+02  0.00000000000E+00 0. -1.
         11    1    3    3    0    0  0.76768706220E+01  0.29465343700E+01  0.23467195820E+02  0.24866155458E+02  0.51100000000E-03 0. -1.
        -11    1    3    3    0    0  0.36347773140E+01  0.14555461475E+02 -0.16926781622E+01  0.15097623140E+02  0.51100000000E-03 0.  1.
        -12    1    3    3    0    0  0.30806901580E+01  0.68319599909E+01  0.74467881863E+01  0.10565083221E+02  0.00000000000E+00 0.  1.
</event>
<event>
 7    1  0.6136531E-013  0.5052886E+02  0.7816164E-02  0.1300439E+00
        -11   -1    0    0    0    0  0.00000000000E+00  0.00000000000E+00  0.45593999997E+02  0.45594000000E+02  0.51100000000E-03 0.  1.
         11   -1    0    0    0    0 -0.00000000000E+00 -0.00000000000E+00 -0.45593999997E+02  0.45594000000E+02  0.51100000000E-03 0. -1.
    9900012    2    1    2    0    0  0.35772602857E+01 -0.19271228393E+02  0.35622867041E+02  0.50528859685E+02  0.29999999499E+02 0.  0.
         12    1    1    2    0    0 -0.35772602857E+01  0.19271228393E+02 -0.35622867041E+02  0.40659140315E+02  0.00000000000E+00 0. -1.
         11    1    3    3    0    0  0.48699975511E+01 -0.10082705740E+02 -0.75976767690E+00  0.11222971013E+02  0.51100000000E-03 0. -1.
        -11    1    3    3    0    0 -0.19469971163E+01 -0.11477827694E+02  0.33998476118E+02  0.35936439793E+02  0.51100000000E-03 0.  1.
         12    1    3    3    0    0  0.65425985083E+00  0.22893050405E+01  0.23841585993E+01  0.33694488789E+01  0.00000000000E+00 0. -1.
</event>
<event>
 7    1  0.6136531E-013  0.5052886E+02  0.7816164E-02  0.1300439E+00
        -11   -1    0    0    0    0  0.00000000000E+00  0.00000000000E+00  0.45593999997E+02  0.45594000000E+02  0.51100000000E-03 0.  1.
         11   -1    0    0    0    0 -0.00000000000E+00 -0.00000000000E+00 -0.45593999997E+02  0.45594000000E+02  0.51100000000E-03 0. -1.
    9900012    2    1    2    0    0  0.68139917439E+01  0.12403756787E+02  0.38116684308E+02  0.50528864636E+02  0.30000014548E+02 0.  0.
         12    1    1    2    0    0 -0.68139917439E+01 -0.12403756787E+02 -0.38116684308E+02  0.40659135364E+02  0.00000000000E+00 0. -1.
         11    1    3    3    0    0 -0.27933078161E+01 -0.74110984925E+01  0.64517311190E+01  0.10215272102E+02  0.51100000000E-03 0. -1.
        -11    1    3    3    0    0  0.61232051895E+01  0.60901401473E+01  0.20619619874E+02  0.22355137504E+02  0.51100000000E-03 0.  1.
         12    1    3    3    0    0  0.34840943704E+01  0.13724715132E+02  0.11045333315E+02  0.17958455030E+02  0.00000000000E+00 0. -1.
</event>
<event>
 7    1  0.6136531E-013  0.5052887E+02  0.7816164E-02  0.1300439E+00
        -11   -1    0    0    0    0  0.00000000000E+00  0.00000000000E+00  0.45593999997E+02  0.45594000000E+02  0.51100000000E-03 0. -1.
         11   -1    0    0    0    0 -0.00000000000E+00 -0.00000000000E+00 -0.45593999997E+02  0.45594000000E+02  0.51100000000E-03 0.  1.
    9900012    2    1    2    0    0  0.28424196827E+02  0.28088228732E+02 -0.75021124738E+01  0.50528865108E+02  0.30000015982E+02 0.  0.
         12    1    1    2    0    0 -0.28424196827E+02 -0.28088228732E+02  0.75021124738E+01  0.40659134892E+02  0.00000000000E+00 0. -1.
         11    1    3    3    0    0  0.17277131331E+02  0.93541494330E+01  0.91999272063E+00  0.19668395093E+02  0.51100000000E-03 0. -1.
        -11    1    3    3    0    0 -0.33654612996E+01  0.12818652248E+02 -0.73434468105E+01  0.15151580332E+02  0.51100000000E-03 0.  1.
        -12    1    3    3    0    0  0.14512526796E+02  0.59154270509E+01 -0.10786583839E+01  0.15708889684E+02  0.00000000000E+00 0.  1.
</event>
<event>
 7    1  0.6136531E-013  0.5052887E+02  0.7816164E-02  0.1300439E+00
        -11   -1    0    0    0    0  0.00000000000E+00  0.00000000000E+00  0.45593999997E+02  0.45594000000E+02  0.51100000000E-03 0. -1.
         11   -1    0    0    0    0 -0.00000000000E+00 -0.00000000000E+00 -0.45593999997E+02  0.45594000000E+02  0.51100000000E-03 0.  1.
    9900012    2    1    2    0    0 -0.39537584500E+02 -0.65905170581E+01 -0.68197552645E+01  0.50528873533E+02  0.30000041592E+02 0.  0.
         12    1    1    2    0    0  0.39537584500E+02  0.65905170581E+01  0.68197552645E+01  0.40659126467E+02  0.00000000000E+00 0. -1.
         11    1    3    3    0    0 -0.23022758014E+02  0.45651077867E+01 -0.83952707268E+01  0.24927257501E+02  0.51100000000E-03 0. -1.
        -11    1    3    3    0    0 -0.41720559851E+01 -0.12220016199E+02 -0.98893051125E+00  0.12950398869E+02  0.51100000000E-03 0.  1.
        -12    1    3    3    0    0 -0.12342770500E+02  0.10643913539E+01  0.25644459735E+01  0.12651217164E+02  0.00000000000E+00 0.  1.
</event>
<event>
 7    1  0.6136531E-013  0.5052886E+02  0.7816164E-02  0.1300439E+00
        -11   -1    0    0    0    0  0.00000000000E+00  0.00000000000E+00  0.45593999997E+02  0.45594000000E+02  0.51100000000E-03 0.  1.
         11   -1    0    0    0    0 -0.00000000000E+00 -0.00000000000E+00 -0.45593999997E+02  0.45594000000E+02  0.51100000000E-03 0. -1.
    9900012    2    1    2    0    0 -0.16572955502E+02 -0.36948422032E+02  0.36492354752E+01  0.50528860015E+02  0.30000000502E+02 0.  0.
         12    1    1    2    0    0  0.16572955502E+02  0.36948422032E+02 -0.36492354752E+01  0.40659139985E+02  0.00000000000E+00 0. -1.
         11    1    3    3    0    0 -0.45804688256E+01 -0.31399237495E+01 -0.52699992615E+01  0.76558936965E+01  0.51100000000E-03 0. -1.
        -11    1    3    3    0    0 -0.89480642875E+00 -0.28404232755E+02  0.14711884370E+01  0.28456379120E+02  0.51100000000E-03 0.  1.
        -12    1    3    3    0    0 -0.11097680248E+02 -0.54042655284E+01  0.74480462997E+01  0.14416587199E+02  0.00000000000E+00 0.  1.
</event>
<event>
 7    1  0.6136531E-013  0.5052886E+02  0.7816164E-02  0.1300439E+00
        -11   -1    0    0    0    0  0.00000000000E+00  0.00000000000E+00  0.45593999997E+02  0.45594000000E+02  0.51100000000E-03 0.  1.
         11   -1    0    0    0    0 -0.00000000000E+00 -0.00000000000E+00 -0.45593999997E+02  0.45594000000E+02  0.51100000000E-03 0. -1.
    9900012    2    1    2    0    0 -0.36105707940E+01 -0.16591172647E+02  0.36944042999E+02  0.50528861490E+02  0.30000004984E+02 0.  0.
         12    1    1    2    0    0  0.36105707940E+01  0.16591172647E+02 -0.36944042999E+02  0.40659138510E+02  0.00000000000E+00 0. -1.
         11    1    3    3    0    0  0.54407074327E+01 -0.13364502968E+02  0.16298685038E+02  0.21768288201E+02  0.51100000000E-03 0.  1.
        -11    1    3    3    0    0 -0.10502275749E+02 -0.22440697683E+01  0.31698079507E+01  0.11197380397E+02  0.51100000000E-03 0. -1.
        -12    1    3    3    0    0  0.14509975228E+01 -0.98259991000E+00  0.17475550011E+02  0.17563192892E+02  0.00000000000E+00 0.  1.
</event>
<event>
 7    1  0.6136531E-013  0.5052887E+02  0.7816164E-02  0.1300439E+00
        -11   -1    0    0    0    0  0.00000000000E+00  0.00000000000E+00  0.45593999997E+02  0.45594000000E+02  0.51100000000E-03 0.  1.
         11   -1    0    0    0    0 -0.00000000000E+00 -0.00000000000E+00 -0.45593999997E+02  0.45594000000E+02  0.51100000000E-03 0. -1.
    9900012    2    1    2    0    0  0.10856505860E+02  0.38198261217E+02  0.87289126846E+01  0.50528870691E+02  0.30000032953E+02 0.  0.
         12    1    1    2    0    0 -0.10856505860E+02 -0.38198261217E+02 -0.87289126846E+01  0.40659129309E+02  0.00000000000E+00 0. -1.
         11    1    3    3    0    0 -0.14818942703E+01 -0.47341052175E+00 -0.62738207186E+01  0.64638189038E+01  0.51100000000E-03 0. -1.
        -11    1    3    3    0    0  0.30489079420E+01  0.14174041691E+02  0.14585457730E+01  0.14571432789E+02  0.51100000000E-03 0.  1.
         12    1    3    3    0    0  0.92894921879E+01  0.24497630048E+02  0.13544187630E+02  0.29493618999E+02  0.00000000000E+00 0. -1.
</event>
<event>
 7    1  0.6136531E-013  0.5052886E+02  0.7816164E-02  0.1300439E+00
        -11   -1    0    0    0    0  0.00000000000E+00  0.00000000000E+00  0.45593999997E+02  0.45594000000E+02  0.51100000000E-03 0. -1.
         11   -1    0    0    0    0 -0.00000000000E+00 -0.00000000000E+00 -0.45593999997E+02  0.45594000000E+02  0.51100000000E-03 0.  1.
    9900012    2    1    2    0    0 -0.29549679665E+02 -0.18708260350E+02  0.20736035184E+02  0.50528859223E+02  0.29999998093E+02 0.  0.
         12    1    1    2    0    0  0.29549679665E+02  0.18708260350E+02 -0.20736035184E+02  0.40659140777E+02  0.00000000000E+00 0. -1.
         11    1    3    3    0    0 -0.15001496450E+02 -0.26155177221E+01  0.14931379454E+02  0.21326788819E+02  0.51100000000E-03 0. -1.
        -11    1    3    3    0    0 -0.10315260629E+02 -0.84740099870E+01 -0.59112207551E+01  0.14599862266E+02  0.51100000000E-03 0.  1.
        -12    1    3    3    0    0 -0.42329225861E+01 -0.76187326413E+01  0.11715876485E+02  0.14602208138E+02  0.00000000000E+00 0.  1.
</event>
<event>
 7    1  0.6136531E-013  0.5052885E+02  0.7816164E-02  0.1300439E+00
        -11   -1    0    0    0    0  0.00000000000E+00  0.00000000000E+00  0.45593999997E+02  0.45594000000E+02  0.51100000000E-03 0.  1.
         11   -1    0    0    0    0 -0.00000000000E+00 -0.00000000000E+00 -0.45593999997E+02  0.45594000000E+02  0.51100000000E-03 0. -1.
    9900012    2    1    2    0    0 -0.22007864187E+02 -0.18965119218E+02  0.28445470590E+02  0.50528848138E+02  0.29999964401E+02 0.  0.
         12    1    1    2    0    0  0.22007864187E+02  0.18965119218E+02 -0.28445470590E+02  0.40659151862E+02  0.00000000000E+00 0. -1.
         11    1    3    3    0    0 -0.77478355397E+00  0.25501934989E+01 -0.13980906387E+01  0.30097232651E+01  0.51100000000E-03 0. -1.
        -11    1    3    3    0    0 -0.95927094950E+01 -0.52654635915E+01  0.24493266728E+02  0.26826578194E+02  0.51100000000E-03 0.  1.
         12    1    3    3    0    0 -0.11640371138E+02 -0.16249849126E+02  0.53502945004E+01  0.20692546679E+02  0.00000000000E+00 0. -1.
</event>
<event>
 7    1  0.6136531E-013  0.5052887E+02  0.7816164E-02  0.1300439E+00
        -11   -1    0    0    0    0  0.00000000000E+00  0.00000000000E+00  0.45593999997E+02  0.45594000000E+02  0.51100000000E-03 0.  1.
         11   -1    0    0    0    0 -0.00000000000E+00 -0.00000000000E+00 -0.45593999997E+02  0.45594000000E+02  0.51100000000E-03 0. -1.
    9900012    2    1    2    0    0 -0.40523159974E+01 -0.39767374445E+02  0.74363546739E+01  0.50528871799E+02  0.30000036321E+02 0.  0.
         12    1    1    2    0    0  0.40523159974E+01  0.39767374445E+02 -0.74363546739E+01  0.40659128201E+02  0.00000000000E+00 0. -1.
         11    1    3    3    0    0 -0.63054126097E+01 -0.19469402513E+02 -0.85609174878E+01  0.22183443621E+02  0.51100000000E-03 0. -1.
        -11    1    3    3    0    0 -0.64353253487E+00 -0.18903616335E+02  0.16489606545E+02  0.25093185707E+02  0.51100000000E-03 0.  1.
         12    1    3    3    0    0  0.28966291472E+01 -0.13943555975E+01 -0.49233438319E+00  0.32522424715E+01  0.00000000000E+00 0. -1.
</event>
<event>
 7    1  0.6136531E-013  0.5052886E+02  0.7816164E-02  0.1300439E+00
        -11   -1    0    0    0    0  0.00000000000E+00  0.00000000000E+00  0.45593999997E+02  0.45594000000E+02  0.51100000000E-03 0.  1.
         11   -1    0    0    0    0 -0.00000000000E+00 -0.00000000000E+00 -0.45593999997E+02  0.45594000000E+02  0.51100000000E-03 0. -1.
    9900012    2    1    2    0    0 -0.19212329122E+02  0.13452397129E+01  0.35808417921E+02  0.50528855220E+02  0.29999985928E+02 0.  0.
         12    1    1    2    0    0  0.19212329122E+02 -0.13452397129E+01 -0.35808417921E+02  0.40659144780E+02  0.00000000000E+00 0. -1.
         11    1    3    3    0    0  0.28242613118E+00  0.62935120453E+01 -0.20955423558E+01  0.66392286005E+01  0.51100000000E-03 0. -1.
        -11    1    3    3    0    0 -0.17523623147E+01 -0.15741255215E+01  0.12500617170E+02  0.12720616130E+02  0.51100000000E-03 0.  1.
         12    1    3    3    0    0 -0.17742392939E+02 -0.33741468109E+01  0.25403343107E+02  0.31169010490E+02  0.00000000000E+00 0. -1.
</event>
<event>
 7    1  0.6136531E-013  0.5052887E+02  0.7816164E-02  0.1300439E+00
        -11   -1    0    0    0    0  0.00000000000E+00  0.00000000000E+00  0.45593999997E+02  0.45594000000E+02  0.51100000000E-03 0.  1.
         11   -1    0    0    0    0 -0.00000000000E+00 -0.00000000000E+00 -0.45593999997E+02  0.45594000000E+02  0.51100000000E-03 0. -1.
    9900012    2    1    2    0    0 -0.34959123209E+02  0.20469800015E+02 -0.34658331951E+01  0.50528868087E+02  0.30000025038E+02 0.  0.
         12    1    1    2    0    0  0.34959123209E+02 -0.20469800015E+02  0.34658331951E+01  0.40659131913E+02  0.00000000000E+00 0. -1.
         11    1    3    3    0    0 -0.61813681286E+01  0.14230851679E+02 -0.83687950383E+01  0.17628476454E+02  0.51100000000E-03 0. -1.
        -11    1    3    3    0    0 -0.19614536796E+02  0.65827330840E+00 -0.26159413953E+01  0.19799154707E+02  0.51100000000E-03 0.  1.
        -12    1    3    3    0    0 -0.91632182838E+01  0.55806750275E+01  0.75189032384E+01  0.13101236926E+02  0.00000000000E+00 0.  1.
</event>
<event>
 7    1  0.6136531E-013  0.5052886E+02  0.7816164E-02  0.1300439E+00
        -11   -1    0    0    0    0  0.00000000000E+00  0.00000000000E+00  0.45593999997E+02  0.45594000000E+02  0.51100000000E-03 0.  1.
         11   -1    0    0    0    0 -0.00000000000E+00 -0.00000000000E+00 -0.45593999997E+02  0.45594000000E+02  0.51100000000E-03 0. -1.
    9900012    2    1    2    0    0 -0.19295580688E+02  0.33230710811E+01  0.35634297963E+02  0.50528862936E+02  0.30000009380E+02 0.  0.
         12    1    1    2    0    0  0.19295580688E+02 -0.33230710811E+01 -0.35634297963E+02  0.40659137064E+02  0.00000000000E+00 0. -1.
         11    1    3    3    0    0 -0.12835988927E+02  0.47835737782E+01  0.40233662739E+00  0.13704271774E+02  0.51100000000E-03 0. -1.
        -11    1    3    3    0    0  0.49719804342E-01  0.23385584014E+01  0.15973725921E+02  0.16144077785E+02  0.51100000000E-03 0.  1.
        -12    1    3    3    0    0 -0.65093115654E+01 -0.37990610984E+01  0.19258235414E+02  0.20680513378E+02  0.00000000000E+00 0.  1.
</event>
<event>
 7    1  0.6136531E-013  0.5052886E+02  0.7816164E-02  0.1300439E+00
        -11   -1    0    0    0    0  0.00000000000E+00  0.00000000000E+00  0.45593999997E+02  0.45594000000E+02  0.51100000000E-03 0. -1.
         11   -1    0    0    0    0 -0.00000000000E+00 -0.00000000000E+00 -0.45593999997E+02  0.45594000000E+02  0.51100000000E-03 0.  1.
    9900012    2    1    2    0    0 -0.46578035437E+01 -0.36557763420E+02 -0.17175588658E+02  0.50528855323E+02  0.29999986239E+02 0.  0.
         12    1    1    2    0    0  0.46578035437E+01  0.36557763420E+02  0.17175588658E+02  0.40659144677E+02  0.00000000000E+00 0. -1.
         11    1    3    3    0    0 -0.77550064797E+00  0.99434780028E-01  0.76069583045E+00  0.10908468903E+01  0.51100000000E-03 0. -1.
        -11    1    3    3    0    0 -0.14088155808E+02 -0.30857045449E+02 -0.10364844669E+02  0.35469189351E+02  0.51100000000E-03 0.  1.
        -12    1    3    3    0    0  0.10205852912E+02 -0.58001527509E+01 -0.75714398193E+01  0.13968819082E+02  0.00000000000E+00 0.  1.
</event>
<event>
 7    1  0.6136531E-013  0.5052885E+02  0.7816164E-02  0.1300439E+00
        -11   -1    0    0    0    0  0.00000000000E+00  0.00000000000E+00  0.45593999997E+02  0.45594000000E+02  0.51100000000E-03 0.  1.
         11   -1    0    0    0    0 -0.00000000000E+00 -0.00000000000E+00 -0.45593999997E+02  0.45594000000E+02  0.51100000000E-03 0. -1.
    9900012    2    1    2    0    0  0.13519116404E+02  0.25011920855E+02  0.29065507087E+02  0.50528851024E+02  0.29999973174E+02 0.  0.
         12    1    1    2    0    0 -0.13519116404E+02 -0.25011920855E+02 -0.29065507087E+02  0.40659148976E+02  0.00000000000E+00 0. -1.
         11    1    3    3    0    0  0.14204345110E+02  0.86138377875E+00  0.20282111397E+02  0.24776388861E+02  0.51100000000E-03 0. -1.
        -11    1    3    3    0    0  0.19960302891E+00  0.11742026174E+02  0.36860297142E+01  0.12308608181E+02  0.51100000000E-03 0.  1.
         12    1    3    3    0    0 -0.88483173431E+00  0.12408510902E+02  0.50973659752E+01  0.13443853982E+02  0.00000000000E+00 0. -1.
</event>
<event>
 7    1  0.6136531E-013  0.5052886E+02  0.7816164E-02  0.1300439E+00
        -11   -1    0    0    0    0  0.00000000000E+00  0.00000000000E+00  0.45593999997E+02  0.45594000000E+02  0.51100000000E-03 0.  1.
         11   -1    0    0    0    0 -0.00000000000E+00 -0.00000000000E+00 -0.45593999997E+02  0.45594000000E+02  0.51100000000E-03 0. -1.
    9900012    2    1    2    0    0  0.62352266807E+01 -0.18276756441E+02  0.35780551400E+02  0.50528859131E+02  0.29999997813E+02 0.  0.
         12    1    1    2    0    0 -0.62352266807E+01  0.18276756441E+02 -0.35780551400E+02  0.40659140869E+02  0.00000000000E+00 0. -1.
         11    1    3    3    0    0 -0.21888786069E+01 -0.13840815826E+02  0.11759195836E+02  0.18293115078E+02  0.51100000000E-03 0. -1.
        -11    1    3    3    0    0 -0.13493808149E+01  0.61664378773E+01  0.36958546859E+01  0.73147198715E+01  0.51100000000E-03 0.  1.
        -12    1    3    3    0    0  0.97734861025E+01 -0.10602378492E+02  0.20325500878E+02  0.24921024181E+02  0.00000000000E+00 0.  1.
</event>
<event>
 7    1  0.6136531E-013  0.5052885E+02  0.7816164E-02  0.1300439E+00
        -11   -1    0    0    0    0  0.00000000000E+00  0.00000000000E+00  0.45593999997E+02  0.45594000000E+02  0.51100000000E-03 0.  1.
         11   -1    0    0    0    0 -0.00000000000E+00 -0.00000000000E+00 -0.45593999997E+02  0.45594000000E+02  0.51100000000E-03 0. -1.
    9900012    2    1    2    0    0  0.30190252937E+02 -0.16017411784E+00  0.27233982466E+02  0.50528845691E+02  0.29999956962E+02 0.  0.
         12    1    1    2    0    0 -0.30190252937E+02  0.16017411784E+00 -0.27233982466E+02  0.40659154309E+02  0.00000000000E+00 0. -1.
         11    1    3    3    0    0  0.40979838430E+01  0.59056576283E+01  0.90570050781E+01  0.11562854528E+02  0.51100000000E-03 0. -1.
        -11    1    3    3    0    0  0.20615018095E+02 -0.13434741669E+02  0.96351702154E+01  0.26425513431E+02  0.51100000000E-03 0.  1.
        -12    1    3    3    0    0  0.54772509992E+01  0.73689099226E+01  0.85418071723E+01  0.12540477731E+02  0.00000000000E+00 0.  1.
</event>
<event>
 7    1  0.6136531E-013  0.5052885E+02  0.7816164E-02  0.1300439E+00
        -11   -1    0    0    0    0  0.00000000000E+00  0.00000000000E+00  0.45593999997E+02  0.45594000000E+02  0.51100000000E-03 0.  1.
         11   -1    0    0    0    0 -0.00000000000E+00 -0.00000000000E+00 -0.45593999997E+02  0.45594000000E+02  0.51100000000E-03 0. -1.
    9900012    2    1    2    0    0 -0.22355824262E+02  0.33950535258E+02  0.86304033496E+00  0.50528848984E+02  0.29999966971E+02 0.  0.
         12    1    1    2    0    0  0.22355824262E+02 -0.33950535258E+02 -0.86304033496E+00  0.40659151016E+02  0.00000000000E+00 0. -1.
         11    1    3    3    0    0  0.36346517995E+01 -0.89296261036E+00 -0.67018597871E+00  0.38022658290E+01  0.51100000000E-03 0. -1.
        -11    1    3    3    0    0 -0.23930426101E+02  0.19315888379E+02  0.34491765785E+01  0.30946173537E+02  0.51100000000E-03 0.  1.
        -12    1    3    3    0    0 -0.20600499605E+01  0.15527609489E+02 -0.19159502648E+01  0.15780409618E+02  0.00000000000E+00 0.  1.
</event>
<event>
 7    1  0.6136531E-013  0.5052887E+02  0.7816164E-02  0.1300439E+00
        -11   -1    0    0    0    0  0.00000000000E+00  0.00000000000E+00  0.45593999997E+02  0.45594000000E+02  0.51100000000E-03 0. -1.
         11   -1    0    0    0    0 -0.00000000000E+00 -0.00000000000E+00 -0.45593999997E+02  0.45594000000E+02  0.51100000000E-03 0.  1.
    9900012    2    1    2    0    0  0.18658941313E+02 -0.25704876175E+02 -0.25382435523E+02  0.50528870850E+02  0.30000033437E+02 0.  0.
         12    1    1    2    0    0 -0.18658941313E+02  0.25704876175E+02  0.25382435523E+02  0.40659129150E+02  0.00000000000E+00 0. -1.
         11    1    3    3    0    0  0.34084453593E+01 -0.13486896446E+01  0.63077813747E+01  0.72955170932E+01  0.51100000000E-03 0. -1.
        -11    1    3    3    0    0  0.88071225915E+01 -0.88909049872E+01 -0.15656477685E+02  0.20043425196E+02  0.51100000000E-03 0.  1.
         12    1    3    3    0    0  0.64433733623E+01 -0.15465281544E+02 -0.16033739213E+02  0.23189928561E+02  0.00000000000E+00 0. -1.
</event>
<event>
 7    1  0.6136531E-013  0.5052886E+02  0.7816164E-02  0.1300439E+00
        -11   -1    0    0    0    0  0.00000000000E+00  0.00000000000E+00  0.45593999997E+02  0.45594000000E+02  0.51100000000E-03 0. -1.
         11   -1    0    0    0    0 -0.00000000000E+00 -0.00000000000E+00 -0.45593999997E+02  0.45594000000E+02  0.51100000000E-03 0.  1.
    9900012    2    1    2    0    0 -0.63191544199E+01 -0.26973321006E+02 -0.29760273842E+02  0.50528860095E+02  0.30000000746E+02 0.  0.
         12    1    1    2    0    0  0.63191544199E+01  0.26973321006E+02  0.29760273842E+02  0.40659139905E+02  0.00000000000E+00 0. -1.
         11    1    3    3    0    0  0.29828956397E+00 -0.13560323439E+01  0.32846031110E+01  0.35660087268E+01  0.51100000000E-03 0. -1.
        -11    1    3    3    0    0 -0.34242449497E+01 -0.97162769330E+01 -0.28220424523E+02  0.30042034742E+02  0.51100000000E-03 0.  1.
        -12    1    3    3    0    0 -0.31931990341E+01 -0.15901011729E+02 -0.48244524297E+01  0.16920816627E+02  0.00000000000E+00 0.  1.
</event>
<event>
 7    1  0.6136531E-013  0.5052888E+02  0.7816164E-02  0.1300439E+00
        -11   -1    0    0    0    0  0.00000000000E+00  0.00000000000E+00  0.45593999997E+02  0.45594000000E+02  0.51100000000E-03 0.  1.
         11   -1    0    0    0    0 -0.00000000000E+00 -0.00000000000E+00 -0.45593999997E+02  0.45594000000E+02  0.51100000000E-03 0. -1.
    9900012    2    1    2    0    0 -0.22654101332E+02  0.15920292393E+02  0.29774143546E+02  0.50528884897E+02  0.30000076133E+02 0.  0.
         12    1    1    2    0    0  0.22654101332E+02 -0.15920292393E+02 -0.29774143546E+02  0.40659115103E+02  0.00000000000E+00 0. -1.
         11    1    3    3    0    0  0.27674983820E+01  0.10498971884E+02  0.18028551330E+02  0.21045572485E+02  0.51100000000E-03 0. -1.
        -11    1    3    3    0    0 -0.14144432876E+01 -0.85853400094E+00  0.25082891315E+01  0.30048702257E+01  0.51100000000E-03 0.  1.
         12    1    3    3    0    0 -0.24007156426E+02  0.62798545104E+01  0.92373030850E+01  0.26478442186E+02  0.00000000000E+00 0. -1.
</event>
<event>
 7    1  0.6136531E-013  0.5052886E+02  0.7816164E-02  0.1300439E+00
        -11   -1    0    0    0    0  0.00000000000E+00  0.00000000000E+00  0.45593999997E+02  0.45594000000E+02  0.51100000000E-03 0. -1.
         11   -1    0    0    0    0 -0.00000000000E+00 -0.00000000000E+00 -0.45593999997E+02  0.45594000000E+02  0.51100000000E-03 0.  1.
    9900012    2    1    2    0    0 -0.19146047724E+02  0.25833971992E+02 -0.24883733873E+02  0.50528862481E+02  0.30000007999E+02 0.  0.
         12    1    1    2    0    0  0.19146047724E+02 -0.25833971992E+02  0.24883733873E+02  0.40659137519E+02  0.00000000000E+00 0. -1.
         11    1    3    3    0    0 -0.77598978630E+01  0.23913056927E+02 -0.16830543147E+02  0.30254214406E+02  0.51100000000E-03 0. -1.
        -11    1    3    3    0    0  0.15877098835E+01 -0.30083129986E+01  0.11854062837E+01  0.36022157195E+01  0.51100000000E-03 0.  1.
        -12    1    3    3    0    0 -0.12973859744E+02  0.49292280634E+01 -0.92385970098E+01  0.16672432356E+02  0.00000000000E+00 0.  1.
</event>
<event>
 7    1  0.6136531E-013  0.5052887E+02  0.7816164E-02  0.1300439E+00
        -11   -1    0    0    0    0  0.00000000000E+00  0.00000000000E+00  0.45593999997E+02  0.45594000000E+02  0.51100000000E-03 0.  1.
         11   -1    0    0    0    0 -0.00000000000E+00 -0.00000000000E+00 -0.45593999997E+02  0.45594000000E+02  0.51100000000E-03 0. -1.
    9900012    2    1    2    0    0  0.38396072389E+01  0.36399165373E+02  0.17706578138E+02  0.50528871468E+02  0.30000035315E+02 0.  0.
         12    1    1    2    0    0 -0.38396072389E+01 -0.36399165373E+02 -0.17706578138E+02  0.40659128532E+02  0.00000000000E+00 0. -1.
         11    1    3    3    0    0  0.66121577857E+00  0.85982544522E+01  0.70801801494E+00  0.86526571469E+01  0.51100000000E-03 0. -1.
        -11    1    3    3    0    0  0.49571985531E+01 -0.40309965824E+01  0.28771140350E+01  0.70071774898E+01  0.51100000000E-03 0.  1.
        -12    1    3    3    0    0 -0.17788070928E+01  0.31831907503E+02  0.14121446088E+02  0.34869036832E+02  0.00000000000E+00 0.  1.
</event>
<event>
 7    1  0.6136531E-013  0.5052883E+02  0.7816164E-02  0.1300439E+00
        -11   -1    0    0    0    0  0.00000000000E+00  0.00000000000E+00  0.45593999997E+02  0.45594000000E+02  0.51100000000E-03 0.  1.
         11   -1    0    0    0    0 -0.00000000000E+00 -0.00000000000E+00 -0.45593999997E+02  0.45594000000E+02  0.51100000000E-03 0. -1.
    9900012    2    1    2    0    0  0.31383145861E+02 -0.22516340100E+02  0.12699621697E+02  0.50528833667E+02  0.29999920414E+02 0.  0.
         12    1    1    2    0    0 -0.31383145861E+02  0.22516340100E+02 -0.12699621697E+02  0.40659166333E+02  0.00000000000E+00 0. -1.
         11    1    3    3    0    0 -0.14117768455E+01  0.16459613333E+01  0.40861018618E+01  0.46258546516E+01  0.51100000000E-03 0. -1.
        -11    1    3    3    0    0  0.16771336063E+02 -0.11480773200E+02 -0.55152083437E+01  0.21059520174E+02  0.51100000000E-03 0.  1.
        -12    1    3    3    0    0  0.16023586644E+02 -0.12681528233E+02  0.14128728179E+02  0.24843458841E+02  0.00000000000E+00 0.  1.
</event>
<event>
 7    1  0.6136531E-013  0.5052885E+02  0.7816164E-02  0.1300439E+00
        -11   -1    0    0    0    0  0.00000000000E+00  0.00000000000E+00  0.45593999997E+02  0.45594000000E+02  0.51100000000E-03 0.  1.
         11   -1    0    0    0    0 -0.00000000000E+00 -0.00000000000E+00 -0.45593999997E+02  0.45594000000E+02  0.51100000000E-03 0. -1.
    9900012    2    1    2    0    0 -0.10786351805E+02 -0.38380269941E+02  0.79859701582E+01  0.50528853116E+02  0.29999979531E+02 0.  0.
         12    1    1    2    0    0  0.10786351805E+02  0.38380269941E+02 -0.79859701582E+01  0.40659146884E+02  0.00000000000E+00 0. -1.
         11    1    3    3    0    0 -0.52194070306E+01  0.24840629551E+01  0.34381430256E+01  0.67255933746E+01  0.51100000000E-03 0. -1.
        -11    1    3    3    0    0 -0.58633760634E+01 -0.33246268054E+02 -0.19080261044E+01  0.33813223483E+02  0.51100000000E-03 0.  1.
        -12    1    3    3    0    0  0.29643128943E+00 -0.76180648412E+01  0.64558532370E+01  0.99900362587E+01  0.00000000000E+00 0.  1.
</event>
<event>
 7    1  0.6136531E-013  0.5052886E+02  0.7816164E-02  0.1300439E+00
        -11   -1    0    0    0    0  0.00000000000E+00  0.00000000000E+00  0.45593999997E+02  0.45594000000E+02  0.51100000000E-03 0.  1.
         11   -1    0    0    0    0 -0.00000000000E+00 -0.00000000000E+00 -0.45593999997E+02  0.45594000000E+02  0.51100000000E-03 0. -1.
    9900012    2    1    2    0    0  0.18473003193E+02  0.11409031766E+02  0.34376555201E+02  0.50528863261E+02  0.30000010369E+02 0.  0.
         12    1    1    2    0    0 -0.18473003193E+02 -0.11409031766E+02 -0.34376555201E+02  0.40659136739E+02  0.00000000000E+00 0. -1.
         11    1    3    3    0    0  0.95479058844E+01  0.10317394953E+02  0.32102178383E+02  0.35045128086E+02  0.51100000000E-03 0. -1.
        -11    1    3    3    0    0  0.95032111355E+01 -0.13507762147E+01  0.57555852772E+01  0.11192067745E+02  0.51100000000E-03 0.  1.
         12    1    3    3    0    0 -0.57811382669E+00  0.24424130281E+01 -0.34812084588E+01  0.42916674300E+01  0.00000000000E+00 0. -1.
</event>
<event>
 7    1  0.6136531E-013  0.5052885E+02  0.7816164E-02  0.1300439E+00
        -11   -1    0    0    0    0  0.00000000000E+00  0.00000000000E+00  0.45593999997E+02  0.45594000000E+02  0.51100000000E-03 0. -1.
         11   -1    0    0    0    0 -0.00000000000E+00 -0.00000000000E+00 -0.45593999997E+02  0.45594000000E+02  0.51100000000E-03 0.  1.
    9900012    2    1    2    0    0  0.26059126737E+02 -0.25548284336E+02 -0.17926899488E+02  0.50528847967E+02  0.29999963880E+02 0.  0.
         12    1    1    2    0    0 -0.26059126737E+02  0.25548284336E+02  0.17926899488E+02  0.40659152033E+02  0.00000000000E+00 0. -1.
         11    1    3    3    0    0 -0.21941620541E+01 -0.10546997616E+01  0.34185434505E+01  0.41968057247E+01  0.51100000000E-03 0. -1.
        -11    1    3    3    0    0  0.16103724225E+02 -0.11113589111E+02 -0.20351522222E+02  0.28231653402E+02  0.51100000000E-03 0.  1.
         12    1    3    3    0    0  0.12149564566E+02 -0.13379995464E+02 -0.99392071660E+00  0.18100388840E+02  0.00000000000E+00 0. -1.
</event>
<event>
 7    1  0.6136531E-013  0.5052886E+02  0.7816164E-02  0.1300439E+00
        -11   -1    0    0    0    0  0.00000000000E+00  0.00000000000E+00  0.45593999997E+02  0.45594000000E+02  0.51100000000E-03 0. -1.
         11   -1    0    0    0    0 -0.00000000000E+00 -0.00000000000E+00 -0.45593999997E+02  0.45594000000E+02  0.51100000000E-03 0.  1.
    9900012    2    1    2    0    0 -0.31531589242E+02  0.22262089363E+02 -0.12779820410E+02  0.50528861388E+02  0.30000004675E+02 0.  0.
         12    1    1    2    0    0  0.31531589242E+02 -0.22262089363E+02  0.12779820410E+02  0.40659138612E+02  0.00000000000E+00 0. -1.
         11    1    3    3    0    0  0.14749373461E+01  0.11789523323E+02 -0.33896129141E+00  0.11886260782E+02  0.51100000000E-03 0. -1.
        -11    1    3    3    0    0 -0.25287359543E+02  0.11007430422E+02 -0.52399409644E+01  0.28072603348E+02  0.51100000000E-03 0.  1.
         12    1    3    3    0    0 -0.77191670455E+01 -0.53486438178E+00 -0.72009181540E+01  0.10569997258E+02  0.00000000000E+00 0. -1.
</event>
<event>
 7    1  0.6136531E-013  0.5052886E+02  0.7816164E-02  0.1300439E+00
        -11   -1    0    0    0    0  0.00000000000E+00  0.00000000000E+00  0.45593999997E+02  0.45594000000E+02  0.51100000000E-03 0.  1.
         11   -1    0    0    0    0 -0.00000000000E+00 -0.00000000000E+00 -0.45593999997E+02  0.45594000000E+02  0.51100000000E-03 0. -1.
    9900012    2    1    2    0    0  0.27500134850E+02 -0.13233456752E+02  0.26866038131E+02  0.50528858356E+02  0.29999995458E+02 0.  0.
         12    1    1    2    0    0 -0.27500134850E+02  0.13233456752E+02 -0.26866038131E+02  0.40659141644E+02  0.00000000000E+00 0. -1.
         11    1    3    3    0    0  0.12211293331E+00  0.11520561443E+01 -0.28548866131E+01  0.30809937947E+01  0.51100000000E-03 0. -1.
        -11    1    3    3    0    0  0.30357128294E+02 -0.10633096938E+02  0.25214977504E+02  0.40870687290E+02  0.51100000000E-03 0.  1.
        -12    1    3    3    0    0 -0.29791063769E+01 -0.37524159589E+01  0.45059472398E+01  0.65771772715E+01  0.00000000000E+00 0.  1.
</event>
<event>
 7    1  0.6136531E-013  0.5052886E+02  0.7816164E-02  0.1300439E+00
        -11   -1    0    0    0    0  0.00000000000E+00  0.00000000000E+00  0.45593999997E+02  0.45594000000E+02  0.51100000000E-03 0. -1.
         11   -1    0    0    0    0 -0.00000000000E+00 -0.00000000000E+00 -0.45593999997E+02  0.45594000000E+02  0.51100000000E-03 0.  1.
    9900012    2    1    2    0    0 -0.29705860518E+02 -0.17750371816E+02 -0.21346005683E+02  0.50528858256E+02  0.29999995156E+02 0.  0.
         12    1    1    2    0    0  0.29705860518E+02  0.17750371816E+02  0.21346005683E+02  0.40659141744E+02  0.00000000000E+00 0. -1.
         11    1    3    3    0    0 -0.22212152272E+02 -0.12615378881E+01 -0.77754610712E+01  0.23567540846E+02  0.51100000000E-03 0. -1.
        -11    1    3    3    0    0 -0.24654108316E+01 -0.76115484658E+01 -0.14659676519E+02  0.16700899273E+02  0.51100000000E-03 0.  1.
         12    1    3    3    0    0 -0.50282974143E+01 -0.88772854616E+01  0.10891319069E+01  0.10260418138E+02  0.00000000000E+00 0. -1.
</event>
<event>
 7    1  0.6136531E-013  0.5052886E+02  0.7816164E-02  0.1300439E+00
        -11   -1    0    0    0    0  0.00000000000E+00  0.00000000000E+00  0.45593999997E+02  0.45594000000E+02  0.51100000000E-03 0. -1.
         11   -1    0    0    0    0 -0.00000000000E+00 -0.00000000000E+00 -0.45593999997E+02  0.45594000000E+02  0.51100000000E-03 0.  1.
    9900012    2    1    2    0    0 -0.23676355227E+01  0.11887490499E+02 -0.38810405973E+02  0.50528859083E+02  0.29999997667E+02 0.  0.
         12    1    1    2    0    0  0.23676355227E+01 -0.11887490499E+02  0.38810405973E+02  0.40659140917E+02  0.00000000000E+00 0. -1.
         11    1    3    3    0    0  0.26961837935E+01 -0.30176145270E+01 -0.67421520889E+01  0.78633338689E+01  0.51100000000E-03 0. -1.
        -11    1    3    3    0    0 -0.11749648736E+02  0.51035717891E+01 -0.62541661250E+01  0.14255359856E+02  0.51100000000E-03 0.  1.
        -12    1    3    3    0    0  0.66858294201E+01  0.98015332366E+01 -0.25814087759E+02  0.28410165358E+02  0.00000000000E+00 0.  1.
</event>
<event>
 7    1  0.6136531E-013  0.5052887E+02  0.7816164E-02  0.1300439E+00
        -11   -1    0    0    0    0  0.00000000000E+00  0.00000000000E+00  0.45593999997E+02  0.45594000000E+02  0.51100000000E-03 0.  1.
         11   -1    0    0    0    0 -0.00000000000E+00 -0.00000000000E+00 -0.45593999997E+02  0.45594000000E+02  0.51100000000E-03 0. -1.
    9900012    2    1    2    0    0 -0.28814651381E+02 -0.17366143509E+02  0.22831954146E+02  0.50528865668E+02  0.30000017683E+02 0.  0.
         12    1    1    2    0    0  0.28814651381E+02  0.17366143509E+02 -0.22831954146E+02  0.40659134332E+02  0.00000000000E+00 0. -1.
         11    1    3    3    0    0 -0.60456423885E+01 -0.10513311212E+02 -0.45188160064E+01  0.12942148310E+02  0.51100000000E-03 0. -1.
        -11    1    3    3    0    0 -0.75940734151E+01  0.12080898336E+01  0.13416353123E+02  0.15463762914E+02  0.51100000000E-03 0.  1.
         12    1    3    3    0    0 -0.15174935577E+02 -0.80609221305E+01  0.13934417030E+02  0.22122954444E+02  0.00000000000E+00 0. -1.
</event>
<event>
 7    1  0.6136531E-013  0.5052886E+02  0.7816164E-02  0.1300439E+00
        -11   -1    0    0    0    0  0.00000000000E+00  0.00000000000E+00  0.45593999997E+02  0.45594000000E+02  0.51100000000E-03 0.  1.
         11   -1    0    0    0    0 -0.00000000000E+00 -0.00000000000E+00 -0.45593999997E+02  0.45594000000E+02  0.51100000000E-03 0. -1.
    9900012    2    1    2    0    0 -0.19896472740E+02 -0.19849563708E+02  0.29381814144E+02  0.50528858232E+02  0.29999995083E+02 0.  0.
         12    1    1    2    0    0  0.19896472740E+02  0.19849563708E+02 -0.29381814144E+02  0.40659141768E+02  0.00000000000E+00 0. -1.
         11    1    3    3    0    0 -0.82413794513E+01 -0.57035962393E+00  0.40873808183E+00  0.82711977634E+01  0.51100000000E-03 0. -1.
        -11    1    3    3    0    0 -0.20661253755E+01 -0.11827071499E+02  0.27522288658E+02  0.30027068913E+02  0.51100000000E-03 0.  1.
        -12    1    3    3    0    0 -0.95889679133E+01 -0.74521325845E+01  0.14507874047E+01  0.12230591555E+02  0.00000000000E+00 0.  1.
</event>
<event>
 7    1  0.6136531E-013  0.5052887E+02  0.7816164E-02  0.1300439E+00
        -11   -1    0    0    0    0  0.00000000000E+00  0.00000000000E+00  0.45593999997E+02  0.45594000000E+02  0.51100000000E-03 0. -1.
         11   -1    0    0    0    0 -0.00000000000E+00 -0.00000000000E+00 -0.45593999997E+02  0.45594000000E+02  0.51100000000E-03 0.  1.
    9900012    2    1    2    0    0  0.22602735794E+02 -0.17839218160E+02 -0.28706157260E+02  0.50528870219E+02  0.30000031517E+02 0.  0.
         12    1    1    2    0    0 -0.22602735794E+02  0.17839218160E+02  0.28706157260E+02  0.40659129781E+02  0.00000000000E+00 0. -1.
         11    1    3    3    0    0  0.28569318664E+01 -0.79492725707E-01  0.51347969923E+01  0.58766077967E+01  0.51100000000E-03 0. -1.
        -11    1    3    3    0    0  0.14890335663E+02 -0.54801633101E+01 -0.17042687389E+02  0.23285349037E+02  0.51100000000E-03 0.  1.
         12    1    3    3    0    0  0.48554682651E+01 -0.12279562124E+02 -0.16798266863E+02  0.21366913386E+02  0.00000000000E+00 0. -1.
</event>
<event>
 7    1  0.6136531E-013  0.5052886E+02  0.7816164E-02  0.1300439E+00
        -11   -1    0    0    0    0  0.00000000000E+00  0.00000000000E+00  0.45593999997E+02  0.45594000000E+02  0.51100000000E-03 0.  1.
         11   -1    0    0    0    0 -0.00000000000E+00 -0.00000000000E+00 -0.45593999997E+02  0.45594000000E+02  0.51100000000E-03 0. -1.
    9900012    2    1    2    0    0 -0.21030164007E+02 -0.78459893027E+01  0.33901890952E+02  0.50528861341E+02  0.30000004533E+02 0.  0.
         12    1    1    2    0    0  0.21030164007E+02  0.78459893027E+01 -0.33901890952E+02  0.40659138659E+02  0.00000000000E+00 0. -1.
         11    1    3    3    0    0  0.48540625476E+01 -0.65791935365E+01  0.15445945999E+02  0.17476411499E+02  0.51100000000E-03 0. -1.
        -11    1    3    3    0    0 -0.13783776766E+02 -0.62699129987E+00  0.15151165381E+02  0.20492521384E+02  0.51100000000E-03 0.  1.
         12    1    3    3    0    0 -0.12100449789E+02 -0.63980446635E+00  0.33047795725E+01  0.12559928458E+02  0.00000000000E+00 0. -1.
</event>
<event>
 7    1  0.6136531E-013  0.5052886E+02  0.7816164E-02  0.1300439E+00
        -11   -1    0    0    0    0  0.00000000000E+00  0.00000000000E+00  0.45593999997E+02  0.45594000000E+02  0.51100000000E-03 0.  1.
         11   -1    0    0    0    0 -0.00000000000E+00 -0.00000000000E+00 -0.45593999997E+02  0.45594000000E+02  0.51100000000E-03 0. -1.
    9900012    2    1    2    0    0  0.81957340913E+01  0.22635559562E+02  0.32766249781E+02  0.50528859101E+02  0.29999997723E+02 0.  0.
         12    1    1    2    0    0 -0.81957340913E+01 -0.22635559562E+02 -0.32766249781E+02  0.40659140899E+02  0.00000000000E+00 0. -1.
         11    1    3    3    0    0  0.35726203601E+01 -0.25023581197E+01  0.83455657540E+01  0.94166809658E+01  0.51100000000E-03 0. -1.
        -11    1    3    3    0    0 -0.29601781771E+01  0.22993991882E+02  0.23771464898E+02  0.33204952359E+02  0.51100000000E-03 0.  1.
        -12    1    3    3    0    0  0.75832919083E+01  0.21439257997E+01  0.64921912891E+00  0.79072257763E+01  0.00000000000E+00 0.  1.
</event>
<event>
 7    1  0.6136531E-013  0.5052887E+02  0.7816164E-02  0.1300439E+00
        -11   -1    0    0    0    0  0.00000000000E+00  0.00000000000E+00  0.45593999997E+02  0.45594000000E+02  0.51100000000E-03 0.  1.
         11   -1    0    0    0    0 -0.00000000000E+00 -0.00000000000E+00 -0.45593999997E+02  0.45594000000E+02  0.51100000000E-03 0. -1.
    9900012    2    1    2    0    0  0.27393971880E+02 -0.29097519314E+02  0.74879836165E+01  0.50528865427E+02  0.30000016952E+02 0.  0.
         12    1    1    2    0    0 -0.27393971880E+02  0.29097519314E+02 -0.74879836165E+01  0.40659134573E+02  0.00000000000E+00 0. -1.
         11    1    3    3    0    0  0.57004804811E+01 -0.19128547744E+02 -0.81409340135E+01  0.21556243258E+02  0.51100000000E-03 0. -1.
        -11    1    3    3    0    0  0.10898629761E+02 -0.73514709629E+01  0.10017612020E+02  0.16528061194E+02  0.51100000000E-03 0.  1.
         12    1    3    3    0    0  0.10794861638E+02 -0.26175006066E+01  0.56113056102E+01  0.12444560975E+02  0.00000000000E+00 0. -1.
</event>
<event>
 7    1  0.6136531E-013  0.5052885E+02  0.7816164E-02  0.1300439E+00
        -11   -1    0    0    0    0  0.00000000000E+00  0.00000000000E+00  0.45593999997E+02  0.45594000000E+02  0.51100000000E-03 0.  1.
         11   -1    0    0    0    0 -0.00000000000E+00 -0.00000000000E+00 -0.45593999997E+02  0.45594000000E+02  0.51100000000E-03 0. -1.
    9900012    2    1    2    0    0 -0.39128498826E+02 -0.91166456762E+01 -0.62461030959E+01  0.50528850321E+02  0.29999971034E+02 0.  0.
         12    1    1    2    0    0  0.39128498826E+02  0.91166456762E+01  0.62461030959E+01  0.40659149679E+02  0.00000000000E+00 0. -1.
         11    1    3    3    0    0  0.28853569977E+01 -0.28274775485E+01  0.31852758540E+01  0.51445016103E+01  0.51100000000E-03 0. -1.
        -11    1    3    3    0    0 -0.40419378041E+02 -0.83977110872E+01 -0.10394136457E+02  0.42570949551E+02  0.51100000000E-03 0.  1.
        -12    1    3    3    0    0 -0.15944777825E+01  0.21085429595E+01  0.96275750688E+00  0.28133991590E+01  0.00000000000E+00 0.  1.
</event>
<event>
 7    1  0.6136531E-013  0.5052886E+02  0.7816164E-02  0.1300439E+00
        -11   -1    0    0    0    0  0.00000000000E+00  0.00000000000E+00  0.45593999997E+02  0.45594000000E+02  0.51100000000E-03 0.  1.
         11   -1    0    0    0    0 -0.00000000000E+00 -0.00000000000E+00 -0.45593999997E+02  0.45594000000E+02  0.51100000000E-03 0. -1.
    9900012    2    1    2    0    0  0.16088465647E+02  0.10924314124E+02  0.35706949145E+02  0.50528861012E+02  0.30000003533E+02 0.  0.
         12    1    1    2    0    0 -0.16088465647E+02 -0.10924314124E+02 -0.35706949145E+02  0.40659138988E+02  0.00000000000E+00 0. -1.
         11    1    3    3    0    0  0.84399851149E+01  0.12832978391E+02  0.32701983922E+01  0.15703912917E+02  0.51100000000E-03 0. -1.
        -11    1    3    3    0    0  0.30530278183E+01  0.40519616054E+01  0.14945089299E+02  0.15782745836E+02  0.51100000000E-03 0.  1.
         12    1    3    3    0    0  0.45954527142E+01 -0.59606258726E+01  0.17491661454E+02  0.19042202259E+02  0.00000000000E+00 0. -1.
</event>
<event>
 7    1  0.6136531E-013  0.5052885E+02  0.7816164E-02  0.1300439E+00
        -11   -1    0    0    0    0  0.00000000000E+00  0.00000000000E+00  0.45593999997E+02  0.45594000000E+02  0.51100000000E-03 0. -1.
         11   -1    0    0    0    0 -0.00000000000E+00 -0.00000000000E+00 -0.45593999997E+02  0.45594000000E+02  0.51100000000E-03 0.  1.
    9900012    2    1    2    0    0 -0.40200132006E+02  0.46952872020E+01 -0.38820669595E+01  0.50528846307E+02  0.29999958833E+02 0.  0.
         12    1    1    2    0    0  0.40200132006E+02 -0.46952872020E+01  0.38820669595E+01  0.40659153693E+02  0.00000000000E+00 0. -1.
         11    1    3    3    0    0 -0.29413368227E+01 -0.27152618920E+00  0.67894802575E+01  0.74042036171E+01  0.51100000000E-03 0. -1.
        -11    1    3    3    0    0 -0.28506780006E+02  0.32882377110E+01 -0.15886025655E+02  0.32799616231E+02  0.51100000000E-03 0.  1.
        -12    1    3    3    0    0 -0.87520151772E+01  0.16785756803E+01  0.52144784383E+01  0.10325026458E+02  0.00000000000E+00 0.  1.
</event>
<event>
 7    1  0.6136531E-013  0.5052886E+02  0.7816164E-02  0.1300439E+00
        -11   -1    0    0    0    0  0.00000000000E+00  0.00000000000E+00  0.45593999997E+02  0.45594000000E+02  0.51100000000E-03 0. -1.
         11   -1    0    0    0    0 -0.00000000000E+00 -0.00000000000E+00 -0.45593999997E+02  0.45594000000E+02  0.51100000000E-03 0.  1.
    9900012    2    1    2    0    0  0.11983489975E+02  0.28933346894E+02 -0.25931116610E+02  0.50528863227E+02  0.30000010265E+02 0.  0.
         12    1    1    2    0    0 -0.11983489975E+02 -0.28933346894E+02  0.25931116610E+02  0.40659136773E+02  0.00000000000E+00 0. -1.
         11    1    3    3    0    0  0.83124066612E+01  0.14952847892E+02 -0.18131214907E+01  0.17203812786E+02  0.51100000000E-03 0. -1.
        -11    1    3    3    0    0 -0.34876880774E+01  0.15304105905E+02 -0.17128060019E+02  0.23232521730E+02  0.51100000000E-03 0.  1.
        -12    1    3    3    0    0  0.71587713914E+01 -0.13236069026E+01 -0.69899351002E+01  0.10092528710E+02  0.00000000000E+00 0.  1.
</event>
<event>
 7    1  0.6136531E-013  0.5052885E+02  0.7816164E-02  0.1300439E+00
        -11   -1    0    0    0    0  0.00000000000E+00  0.00000000000E+00  0.45593999997E+02  0.45594000000E+02  0.51100000000E-03 0. -1.
         11   -1    0    0    0    0 -0.00000000000E+00 -0.00000000000E+00 -0.45593999997E+02  0.45594000000E+02  0.51100000000E-03 0.  1.
    9900012    2    1    2    0    0 -0.15644470158E+02  0.19061412883E+02  0.32327686083E+02  0.50528853487E+02  0.29999980660E+02 0.  0.
         12    1    1    2    0    0  0.15644470158E+02 -0.19061412883E+02 -0.32327686083E+02  0.40659146513E+02  0.00000000000E+00 0. -1.
         11    1    3    3    0    0 -0.10182108468E+02  0.51535024357E+01  0.22439966096E+02  0.25175106730E+02  0.51100000000E-03 0. -1.
        -11    1    3    3    0    0  0.22087287723E+01  0.13087265638E+02  0.60845952658E+00  0.13286279687E+02  0.51100000000E-03 0.  1.
        -12    1    3    3    0    0 -0.76710904625E+01  0.82064480951E+00  0.92792604611E+01  0.12067467070E+02  0.00000000000E+00 0.  1.
</event>
<event>
 7    1  0.6136531E-013  0.5052886E+02  0.7816164E-02  0.1300439E+00
        -11   -1    0    0    0    0  0.00000000000E+00  0.00000000000E+00  0.45593999997E+02  0.45594000000E+02  0.51100000000E-03 0.  1.
         11   -1    0    0    0    0 -0.00000000000E+00 -0.00000000000E+00 -0.45593999997E+02  0.45594000000E+02  0.51100000000E-03 0. -1.
    9900012    2    1    2    0    0  0.11356673588E+02 -0.12396518703E+02  0.37020512634E+02  0.50528855068E+02  0.29999985464E+02 0.  0.
         12    1    1    2    0    0 -0.11356673588E+02  0.12396518703E+02 -0.37020512634E+02  0.40659144932E+02  0.00000000000E+00 0. -1.
         11    1    3    3    0    0  0.21265574674E+01 -0.48881261030E+01  0.34094656304E+02  0.34508862807E+02  0.51100000000E-03 0. -1.
        -11    1    3    3    0    0  0.61810092222E+01 -0.55287022834E+01  0.67874583466E+01  0.10716390018E+02  0.51100000000E-03 0.  1.
         12    1    3    3    0    0  0.30491068979E+01 -0.19796903167E+01 -0.38616020162E+01  0.53036022435E+01  0.00000000000E+00 0. -1.
</event>
<event>
 7    1  0.6136531E-013  0.5052886E+02  0.7816164E-02  0.1300439E+00
        -11   -1    0    0    0    0  0.00000000000E+00  0.00000000000E+00  0.45593999997E+02  0.45594000000E+02  0.51100000000E-03 0.  1.
         11   -1    0    0    0    0 -0.00000000000E+00 -0.00000000000E+00 -0.45593999997E+02  0.45594000000E+02  0.51100000000E-03 0. -1.
    9900012    2    1    2    0    0 -0.30349149334E+02  0.26781255597E+02  0.38547557631E+01  0.50528860085E+02  0.30000000713E+02 0.  0.
         12    1    1    2    0    0  0.30349149334E+02 -0.26781255597E+02 -0.38547557631E+01  0.40659139915E+02  0.00000000000E+00 0. -1.
         11    1    3    3    0    0 -0.18371483968E+01  0.14804089730E+02  0.73650896373E+01  0.16636728423E+02  0.51100000000E-03 0. -1.
        -11    1    3    3    0    0 -0.19057669743E+02  0.48670840889E+01  0.37340130632E+01  0.20020642781E+02  0.51100000000E-03 0.  1.
         12    1    3    3    0    0 -0.94543311947E+01  0.71100817776E+01 -0.72443469374E+01  0.13871488881E+02  0.00000000000E+00 0. -1.
</event>
<event>
 7    1  0.6136531E-013  0.5052893E+02  0.7816164E-02  0.1300439E+00
        -11   -1    0    0    0    0  0.00000000000E+00  0.00000000000E+00  0.45593999997E+02  0.45594000000E+02  0.51100000000E-03 0. -1.
         11   -1    0    0    0    0 -0.00000000000E+00 -0.00000000000E+00 -0.45593999997E+02  0.45594000000E+02  0.51100000000E-03 0.  1.
    9900012    2    1    2    0    0  0.40595076098E+02  0.16605846341E+01  0.15627423143E+01  0.50528930800E+02  0.30000215658E+02 0.  0.
         12    1    1    2    0    0 -0.40595076098E+02 -0.16605846341E+01 -0.15627423143E+01  0.40659069200E+02  0.00000000000E+00 0. -1.
         11    1    3    3    0    0  0.11550147012E+02  0.55305411865E+01 -0.75155306979E+01  0.14848433714E+02  0.51100000000E-03 0.  1.
        -11    1    3    3    0    0  0.25928584282E+02 -0.36529284613E+01  0.11121602445E+00  0.26184876140E+02  0.51100000000E-03 0. -1.
         12    1    3    3    0    0  0.31163448041E+01 -0.21702809106E+00  0.89670569878E+01  0.94956209461E+01  0.00000000000E+00 0. -1.
</event>
<event>
 7    1  0.6136531E-013  0.5052879E+02  0.7816164E-02  0.1300439E+00
        -11   -1    0    0    0    0  0.00000000000E+00  0.00000000000E+00  0.45593999997E+02  0.45594000000E+02  0.51100000000E-03 0.  1.
         11   -1    0    0    0    0 -0.00000000000E+00 -0.00000000000E+00 -0.45593999997E+02  0.45594000000E+02  0.51100000000E-03 0. -1.
    9900012    2    1    2    0    0  0.89681045589E+01 -0.21882587242E+02  0.33074108805E+02  0.50528791977E+02  0.29999793694E+02 0.  0.
         12    1    1    2    0    0 -0.89681045589E+01  0.21882587242E+02 -0.33074108805E+02  0.40659208023E+02  0.00000000000E+00 0. -1.
         11    1    3    3    0    0  0.43734502185E+01 -0.17072800943E+02  0.25638443939E+01  0.17809573189E+02  0.51100000000E-03 0.  1.
        -11    1    3    3    0    0  0.49830702443E+00 -0.63242261100E+01  0.24383367626E+02  0.25195094023E+02  0.51100000000E-03 0. -1.
        -12    1    3    3    0    0  0.40963473160E+01  0.15144398105E+01  0.61268967852E+01  0.75241247657E+01  0.00000000000E+00 0.  1.
</event>
<event>
 7    1  0.6136531E-013  0.5052887E+02  0.7816164E-02  0.1300439E+00
        -11   -1    0    0    0    0  0.00000000000E+00  0.00000000000E+00  0.45593999997E+02  0.45594000000E+02  0.51100000000E-03 0. -1.
         11   -1    0    0    0    0 -0.00000000000E+00 -0.00000000000E+00 -0.45593999997E+02  0.45594000000E+02  0.51100000000E-03 0.  1.
    9900012    2    1    2    0    0  0.26555742560E+02 -0.29990579930E+02 -0.69658300837E+01  0.50528866509E+02  0.30000020242E+02 0.  0.
         12    1    1    2    0    0 -0.26555742560E+02  0.29990579930E+02  0.69658300837E+01  0.40659133491E+02  0.00000000000E+00 0. -1.
         11    1    3    3    0    0 -0.40583347968E+01  0.21906935922E-01 -0.13940465468E+00  0.40607875044E+01  0.51100000000E-03 0. -1.
        -11    1    3    3    0    0  0.15437005541E+02 -0.25993211989E+02 -0.53150534589E+01  0.30695243981E+02  0.51100000000E-03 0.  1.
         12    1    3    3    0    0  0.15177071816E+02 -0.40192748775E+01 -0.15113719701E+01  0.15772835024E+02  0.00000000000E+00 0. -1.
</event>
<event>
 7    1  0.6136531E-013  0.5052886E+02  0.7816164E-02  0.1300439E+00
        -11   -1    0    0    0    0  0.00000000000E+00  0.00000000000E+00  0.45593999997E+02  0.45594000000E+02  0.51100000000E-03 0.  1.
         11   -1    0    0    0    0 -0.00000000000E+00 -0.00000000000E+00 -0.45593999997E+02  0.45594000000E+02  0.51100000000E-03 0. -1.
    9900012    2    1    2    0    0  0.25031619307E+02 -0.27283261628E+02 -0.16799026354E+02  0.50528860602E+02  0.30000002284E+02 0.  0.
         12    1    1    2    0    0 -0.25031619307E+02  0.27283261628E+02  0.16799026354E+02  0.40659139398E+02  0.00000000000E+00 0. -1.
         11    1    3    3    0    0  0.13578948334E+02 -0.18387463807E+02 -0.12993563616E+02  0.26292952645E+02  0.51100000000E-03 0. -1.
        -11    1    3    3    0    0  0.11955569844E+02  0.25071621002E+01 -0.36447616587E-01  0.12215680120E+02  0.51100000000E-03 0.  1.
        -12    1    3    3    0    0 -0.50289887173E+00 -0.11402959922E+02 -0.37690151206E+01  0.12020227836E+02  0.00000000000E+00 0.  1.
</event>
<event>
 7    1  0.6136531E-013  0.5052889E+02  0.7816164E-02  0.1300439E+00
        -11   -1    0    0    0    0  0.00000000000E+00  0.00000000000E+00  0.45593999997E+02  0.45594000000E+02  0.51100000000E-03 0.  1.
         11   -1    0    0    0    0 -0.00000000000E+00 -0.00000000000E+00 -0.45593999997E+02  0.45594000000E+02  0.51100000000E-03 0. -1.
    9900012    2    1    2    0    0  0.83238501605E+01  0.63651104321E+01  0.39285650129E+02  0.50528887635E+02  0.30000084454E+02 0.  0.
         12    1    1    2    0    0 -0.83238501605E+01 -0.63651104321E+01 -0.39285650129E+02  0.40659112365E+02  0.00000000000E+00 0. -1.
         11    1    3    3    0    0 -0.64660841693E+01  0.43602244039E+01  0.43518488403E+01  0.89308672550E+01  0.51100000000E-03 0. -1.
        -11    1    3    3    0    0  0.10538847689E+02  0.70835324413E+00  0.35572850364E+02  0.37107906950E+02  0.51100000000E-03 0.  1.
        -12    1    3    3    0    0  0.42510866407E+01  0.12965327840E+01 -0.63904907562E+00  0.44901134293E+01  0.00000000000E+00 0.  1.
</event>
<event>
 7    1  0.6136531E-013  0.5052886E+02  0.7816164E-02  0.1300439E+00
        -11   -1    0    0    0    0  0.00000000000E+00  0.00000000000E+00  0.45593999997E+02  0.45594000000E+02  0.51100000000E-03 0.  1.
         11   -1    0    0    0    0 -0.00000000000E+00 -0.00000000000E+00 -0.45593999997E+02  0.45594000000E+02  0.51100000000E-03 0. -1.
    9900012    2    1    2    0    0 -0.22014013161E+02  0.14640183037E+02  0.30890350743E+02  0.50528861989E+02  0.30000006500E+02 0.  0.
         12    1    1    2    0    0  0.22014013161E+02 -0.14640183037E+02 -0.30890350743E+02  0.40659138011E+02  0.00000000000E+00 0. -1.
         11    1    3    3    0    0 -0.14152010671E+01  0.28203662092E+01 -0.10194627681E+01  0.33161067852E+01  0.51100000000E-03 0. -1.
        -11    1    3    3    0    0 -0.42970934827E+01 -0.66156413912E+01  0.16194562987E+02  0.18013761240E+02  0.51100000000E-03 0.  1.
        -12    1    3    3    0    0 -0.16301718612E+02  0.18435458219E+02  0.15715250524E+02  0.29198993963E+02  0.00000000000E+00 0.  1.
</event>
<event>
 7    1  0.6136531E-013  0.5052886E+02  0.7816164E-02  0.1300439E+00
        -11   -1    0    0    0    0  0.00000000000E+00  0.00000000000E+00  0.45593999997E+02  0.45594000000E+02  0.51100000000E-03 0.  1.
         11   -1    0    0    0    0 -0.00000000000E+00 -0.00000000000E+00 -0.45593999997E+02  0.45594000000E+02  0.51100000000E-03 0. -1.
    9900012    2    1    2    0    0 -0.22350649595E+02  0.25309904506E+02  0.22650010320E+02  0.50528858705E+02  0.29999996518E+02 0.  0.
         12    1    1    2    0    0  0.22350649595E+02 -0.25309904506E+02 -0.22650010320E+02  0.40659141295E+02  0.00000000000E+00 0. -1.
         11    1    3    3    0    0 -0.11121045142E+02  0.75637255745E+01 -0.52216618721E+01  0.14427520320E+02  0.51100000000E-03 0. -1.
        -11    1    3    3    0    0 -0.11203143886E+02  0.18516803001E+02  0.24712865133E+02  0.32849781272E+02  0.51100000000E-03 0.  1.
        -12    1    3    3    0    0 -0.26460566561E-01 -0.77062406960E+00  0.31588070586E+01  0.32515571118E+01  0.00000000000E+00 0.  1.
</event>
<event>
 7    1  0.6136531E-013  0.5052887E+02  0.7816164E-02  0.1300439E+00
        -11   -1    0    0    0    0  0.00000000000E+00  0.00000000000E+00  0.45593999997E+02  0.45594000000E+02  0.51100000000E-03 0.  1.
         11   -1    0    0    0    0 -0.00000000000E+00 -0.00000000000E+00 -0.45593999997E+02  0.45594000000E+02  0.51100000000E-03 0. -1.
    9900012    2    1    2    0    0  0.33809497524E+01  0.28481586189E+01  0.40418086045E+02  0.50528874232E+02  0.30000043714E+02 0.  0.
         12    1    1    2    0    0 -0.33809497524E+01 -0.28481586189E+01 -0.40418086045E+02  0.40659125768E+02  0.00000000000E+00 0. -1.
         11    1    3    3    0    0 -0.91116599065E+01 -0.74701122106E+01  0.11497125579E+02  0.16462345505E+02  0.51100000000E-03 0. -1.
        -11    1    3    3    0    0  0.92221031812E+01  0.26855318825E+01  0.17232913433E+02  0.19728978033E+02  0.51100000000E-03 0.  1.
         12    1    3    3    0    0  0.32705064777E+01  0.76327389470E+01  0.11688047033E+02  0.14337550694E+02  0.00000000000E+00 0. -1.
</event>
<event>
 7    1  0.6136531E-013  0.5052887E+02  0.7816164E-02  0.1300439E+00
        -11   -1    0    0    0    0  0.00000000000E+00  0.00000000000E+00  0.45593999997E+02  0.45594000000E+02  0.51100000000E-03 0. -1.
         11   -1    0    0    0    0 -0.00000000000E+00 -0.00000000000E+00 -0.45593999997E+02  0.45594000000E+02  0.51100000000E-03 0.  1.
    9900012    2    1    2    0    0  0.73708519132E+01 -0.34757358966E+02 -0.19767678808E+02  0.50528873279E+02  0.30000040820E+02 0.  0.
         12    1    1    2    0    0 -0.73708519132E+01  0.34757358966E+02  0.19767678808E+02  0.40659126721E+02  0.00000000000E+00 0. -1.
         11    1    3    3    0    0  0.14530190272E+02 -0.47118638983E+01 -0.70360168067E+01  0.16817658086E+02  0.51100000000E-03 0. -1.
        -11    1    3    3    0    0 -0.29434121469E+01 -0.58462210160E+01 -0.15732553188E+01  0.67317982586E+01  0.51100000000E-03 0.  1.
         12    1    3    3    0    0 -0.42159262116E+01 -0.24199274052E+02 -0.11158406682E+02  0.26979416935E+02  0.00000000000E+00 0. -1.
</event>
<event>
 7    1  0.6136531E-013  0.5052885E+02  0.7816164E-02  0.1300439E+00
        -11   -1    0    0    0    0  0.00000000000E+00  0.00000000000E+00  0.45593999997E+02  0.45594000000E+02  0.51100000000E-03 0.  1.
         11   -1    0    0    0    0 -0.00000000000E+00 -0.00000000000E+00 -0.45593999997E+02  0.45594000000E+02  0.51100000000E-03 0. -1.
    9900012    2    1    2    0    0  0.34081557492E+02  0.19342182514E+02  0.10839457229E+02  0.50528850740E+02  0.29999972309E+02 0.  0.
         12    1    1    2    0    0 -0.34081557492E+02 -0.19342182514E+02 -0.10839457229E+02  0.40659149260E+02  0.00000000000E+00 0. -1.
         11    1    3    3    0    0 -0.33389152228E+01 -0.20879825833E+01  0.32089815140E+01  0.50799201521E+01  0.51100000000E-03 0. -1.
        -11    1    3    3    0    0  0.33237458257E+02  0.13639273414E+02  0.54162711897E+01  0.36333103425E+02  0.51100000000E-03 0.  1.
        -12    1    3    3    0    0  0.41830144585E+01  0.77908916835E+01  0.22142045254E+01  0.91158271630E+01  0.00000000000E+00 0.  1.
</event>
<event>
 7    1  0.6136531E-013  0.5052885E+02  0.7816164E-02  0.1300439E+00
        -11   -1    0    0    0    0  0.00000000000E+00  0.00000000000E+00  0.45593999997E+02  0.45594000000E+02  0.51100000000E-03 0.  1.
         11   -1    0    0    0    0 -0.00000000000E+00 -0.00000000000E+00 -0.45593999997E+02  0.45594000000E+02  0.51100000000E-03 0. -1.
    9900012    2    1    2    0    0  0.23792751492E+02  0.28763634286E+02  0.16115983121E+02  0.50528848596E+02  0.29999965793E+02 0.  0.
         12    1    1    2    0    0 -0.23792751492E+02 -0.28763634286E+02 -0.16115983121E+02  0.40659151404E+02  0.00000000000E+00 0. -1.
         11    1    3    3    0    0  0.97870435711E+01  0.21384194203E+02  0.14006066829E+02  0.27372246745E+02  0.51100000000E-03 0.  1.
        -11    1    3    3    0    0 -0.93806200112E+00 -0.37845897173E+01 -0.14620533837E+01  0.41642142121E+01  0.51100000000E-03 0. -1.
         12    1    3    3    0    0  0.14943769922E+02  0.11164029800E+02  0.35719696766E+01  0.18992387639E+02  0.00000000000E+00 0. -1.
</event>
<event>
 7    1  0.6136531E-013  0.5052887E+02  0.7816164E-02  0.1300439E+00
        -11   -1    0    0    0    0  0.00000000000E+00  0.00000000000E+00  0.45593999997E+02  0.45594000000E+02  0.51100000000E-03 0.  1.
         11   -1    0    0    0    0 -0.00000000000E+00 -0.00000000000E+00 -0.45593999997E+02  0.45594000000E+02  0.51100000000E-03 0. -1.
    9900012    2    1    2    0    0 -0.75144183385E+01  0.25844045074E+02  0.30475955923E+02  0.50528867715E+02  0.30000023907E+02 0.  0.
         12    1    1    2    0    0  0.75144183385E+01 -0.25844045074E+02 -0.30475955923E+02  0.40659132285E+02  0.00000000000E+00 0. -1.
         11    1    3    3    0    0 -0.26679830105E+01  0.62351608602E+01  0.11525883879E+02  0.13373158332E+02  0.51100000000E-03 0. -1.
        -11    1    3    3    0    0  0.34409529696E+01 -0.49119272157E+01  0.46181333907E+01  0.75693026486E+01  0.51100000000E-03 0.  1.
        -12    1    3    3    0    0 -0.82873882975E+01  0.24520811429E+02  0.14331938653E+02  0.29586406735E+02  0.00000000000E+00 0.  1.
</event>
<event>
 7    1  0.6136531E-013  0.5052887E+02  0.7816164E-02  0.1300439E+00
        -11   -1    0    0    0    0  0.00000000000E+00  0.00000000000E+00  0.45593999997E+02  0.45594000000E+02  0.51100000000E-03 0.  1.
         11   -1    0    0    0    0 -0.00000000000E+00 -0.00000000000E+00 -0.45593999997E+02  0.45594000000E+02  0.51100000000E-03 0. -1.
    9900012    2    1    2    0    0  0.39826301943E+02 -0.74142612821E+01 -0.34726171998E+01  0.50528872279E+02  0.30000037779E+02 0.  0.
         12    1    1    2    0    0 -0.39826301943E+02  0.74142612821E+01  0.34726171998E+01  0.40659127721E+02  0.00000000000E+00 0. -1.
         11    1    3    3    0    0 -0.25479953058E+01  0.10627099011E+01  0.35054982154E+01  0.44620791579E+01  0.51100000000E-03 0. -1.
        -11    1    3    3    0    0  0.24868963518E+02 -0.61134249533E+01  0.29913406567E+01  0.25783472037E+02  0.51100000000E-03 0.  1.
         12    1    3    3    0    0  0.17505333731E+02 -0.23635462300E+01 -0.99694560719E+01  0.20283321084E+02  0.00000000000E+00 0. -1.
</event>
<event>
 7    1  0.6136531E-013  0.5052888E+02  0.7816164E-02  0.1300439E+00
        -11   -1    0    0    0    0  0.00000000000E+00  0.00000000000E+00  0.45593999997E+02  0.45594000000E+02  0.51100000000E-03 0.  1.
         11   -1    0    0    0    0 -0.00000000000E+00 -0.00000000000E+00 -0.45593999997E+02  0.45594000000E+02  0.51100000000E-03 0. -1.
    9900012    2    1    2    0    0 -0.16096860165E+01  0.12759395265E+02  0.38571635559E+02  0.50528876469E+02  0.30000050516E+02 0.  0.
         12    1    1    2    0    0  0.16096860165E+01 -0.12759395265E+02 -0.38571635559E+02  0.40659123531E+02  0.00000000000E+00 0. -1.
         11    1    3    3    0    0 -0.34616225847E+01 -0.15575367562E+01  0.32998381292E+02  0.33215988918E+02  0.51100000000E-03 0. -1.
        -11    1    3    3    0    0  0.32030431269E+01  0.10841615736E+02  0.70269411228E+01  0.13310823372E+02  0.51100000000E-03 0.  1.
         12    1    3    3    0    0 -0.13511065587E+01  0.34753162849E+01 -0.14536868563E+01  0.40020641786E+01  0.00000000000E+00 0. -1.
</event>
<event>
 7    1  0.6136531E-013  0.5052887E+02  0.7816164E-02  0.1300439E+00
        -11   -1    0    0    0    0  0.00000000000E+00  0.00000000000E+00  0.45593999997E+02  0.45594000000E+02  0.51100000000E-03 0.  1.
         11   -1    0    0    0    0 -0.00000000000E+00 -0.00000000000E+00 -0.45593999997E+02  0.45594000000E+02  0.51100000000E-03 0. -1.
    9900012    2    1    2    0    0 -0.12476715377E+01 -0.37814999624E+02  0.14887385696E+02  0.50528866540E+02  0.30000020336E+02 0.  0.
         12    1    1    2    0    0  0.12476715377E+01  0.37814999624E+02 -0.14887385696E+02  0.40659133460E+02  0.00000000000E+00 0. -1.
         11    1    3    3    0    0 -0.35020246434E+01 -0.23054552678E+01  0.24393219785E+01  0.48507311377E+01  0.51100000000E-03 0. -1.
        -11    1    3    3    0    0  0.12583121227E+02 -0.23906660926E+02  0.22799613628E+01  0.27112019485E+02  0.51100000000E-03 0.  1.
        -12    1    3    3    0    0 -0.10328768121E+02 -0.11602883430E+02  0.10168102355E+02  0.18566115918E+02  0.00000000000E+00 0.  1.
</event>
<event>
 7    1  0.6136531E-013  0.5052884E+02  0.7816164E-02  0.1300439E+00
        -11   -1    0    0    0    0  0.00000000000E+00  0.00000000000E+00  0.45593999997E+02  0.45594000000E+02  0.51100000000E-03 0.  1.
         11   -1    0    0    0    0 -0.00000000000E+00 -0.00000000000E+00 -0.45593999997E+02  0.45594000000E+02  0.51100000000E-03 0. -1.
    9900012    2    1    2    0    0  0.29946535500E+02 -0.25488195688E+02 -0.10330747372E+02  0.50528838066E+02  0.29999933786E+02 0.  0.
         12    1    1    2    0    0 -0.29946535500E+02  0.25488195688E+02  0.10330747372E+02  0.40659161934E+02  0.00000000000E+00 0. -1.
         11    1    3    3    0    0  0.18815887928E+02 -0.13116044861E+02  0.32872399186E+01  0.23170546344E+02  0.51100000000E-03 0.  1.
        -11    1    3    3    0    0 -0.40206346449E-01 -0.93093586464E+01 -0.12689326119E+02  0.15738004085E+02  0.51100000000E-03 0. -1.
        -12    1    3    3    0    0  0.11170853918E+02 -0.30627921806E+01 -0.92866117145E+00  0.11620287637E+02  0.00000000000E+00 0.  1.
</event>
<event>
 7    1  0.6136531E-013  0.5052884E+02  0.7816164E-02  0.1300439E+00
        -11   -1    0    0    0    0  0.00000000000E+00  0.00000000000E+00  0.45593999997E+02  0.45594000000E+02  0.51100000000E-03 0.  1.
         11   -1    0    0    0    0 -0.00000000000E+00 -0.00000000000E+00 -0.45593999997E+02  0.45594000000E+02  0.51100000000E-03 0. -1.
    9900012    2    1    2    0    0  0.18913891087E+02 -0.35937497832E+02 -0.19820759386E+01  0.50528835578E+02  0.29999926222E+02 0.  0.
         12    1    1    2    0    0 -0.18913891087E+02  0.35937497832E+02  0.19820759386E+01  0.40659164422E+02  0.00000000000E+00 0. -1.
         11    1    3    3    0    0 -0.71905286652E+01 -0.91409747108E+01  0.10158512961E+01  0.11674462526E+02  0.51100000000E-03 0. -1.
        -11    1    3    3    0    0  0.89333416333E+01 -0.14592045111E+02  0.19337915890E+01  0.17218360068E+02  0.51100000000E-03 0.  1.
         12    1    3    3    0    0  0.17171078119E+02 -0.12204478010E+02 -0.49317188237E+01  0.21636012984E+02  0.00000000000E+00 0. -1.
</event>
<event>
 7    1  0.6136531E-013  0.5052886E+02  0.7816164E-02  0.1300439E+00
        -11   -1    0    0    0    0  0.00000000000E+00  0.00000000000E+00  0.45593999997E+02  0.45594000000E+02  0.51100000000E-03 0. -1.
         11   -1    0    0    0    0 -0.00000000000E+00 -0.00000000000E+00 -0.45593999997E+02  0.45594000000E+02  0.51100000000E-03 0.  1.
    9900012    2    1    2    0    0 -0.27516014457E+02  0.29312592272E+02 -0.60668361902E+01  0.50528860577E+02  0.30000002209E+02 0.  0.
         12    1    1    2    0    0  0.27516014457E+02 -0.29312592272E+02  0.60668361902E+01  0.40659139423E+02  0.00000000000E+00 0. -1.
         11    1    3    3    0    0  0.46805168911E+01  0.58301560799E+01  0.32530269195E+01  0.81535355941E+01  0.51100000000E-03 0. -1.
        -11    1    3    3    0    0 -0.11233709002E+02  0.10007289328E+02  0.16744929969E+01  0.15137568652E+02  0.51100000000E-03 0.  1.
         12    1    3    3    0    0 -0.20962822346E+02  0.13475146864E+02 -0.10994356107E+02  0.27237756331E+02  0.00000000000E+00 0. -1.
</event>
<event>
 7    1  0.6136531E-013  0.5052886E+02  0.7816164E-02  0.1300439E+00
        -11   -1    0    0    0    0  0.00000000000E+00  0.00000000000E+00  0.45593999997E+02  0.45594000000E+02  0.51100000000E-03 0.  1.
         11   -1    0    0    0    0 -0.00000000000E+00 -0.00000000000E+00 -0.45593999997E+02  0.45594000000E+02  0.51100000000E-03 0. -1.
    9900012    2    1    2    0    0  0.33035447364E+02  0.43754179527E+01 -0.23295510661E+02  0.50528857341E+02  0.29999992374E+02 0.  0.
         12    1    1    2    0    0 -0.33035447364E+02 -0.43754179527E+01  0.23295510661E+02  0.40659142659E+02  0.00000000000E+00 0. -1.
         11    1    3    3    0    0  0.18832190547E+02 -0.11606852958E+02 -0.82152105118E+01  0.23597883812E+02  0.51100000000E-03 0. -1.
        -11    1    3    3    0    0  0.10391543871E+02  0.69812993638E+01 -0.79134575654E+01  0.14810318556E+02  0.51100000000E-03 0.  1.
         12    1    3    3    0    0  0.38117129464E+01  0.90009715466E+01 -0.71668425838E+01  0.12120654974E+02  0.00000000000E+00 0. -1.
</event>
<event>
 7    1  0.6136531E-013  0.5052886E+02  0.7816164E-02  0.1300439E+00
        -11   -1    0    0    0    0  0.00000000000E+00  0.00000000000E+00  0.45593999997E+02  0.45594000000E+02  0.51100000000E-03 0.  1.
         11   -1    0    0    0    0 -0.00000000000E+00 -0.00000000000E+00 -0.45593999997E+02  0.45594000000E+02  0.51100000000E-03 0. -1.
    9900012    2    1    2    0    0 -0.84121518787E+01  0.36569032213E+02 -0.15655893610E+02  0.50528863008E+02  0.30000009600E+02 0.  0.
         12    1    1    2    0    0  0.84121518787E+01 -0.36569032213E+02  0.15655893610E+02  0.40659136992E+02  0.00000000000E+00 0. -1.
         11    1    3    3    0    0  0.32531787369E+01  0.19982388097E+02 -0.12842757038E+02  0.23975308435E+02  0.51100000000E-03 0. -1.
        -11    1    3    3    0    0 -0.14546007521E+02  0.18035194961E+02 -0.27035364830E+01  0.23327316645E+02  0.51100000000E-03 0.  1.
        -12    1    3    3    0    0  0.28806769056E+01 -0.14485508457E+01 -0.10960008870E+00  0.32262379278E+01  0.00000000000E+00 0.  1.
</event>
<event>
 7    1  0.6136531E-013  0.5052885E+02  0.7816164E-02  0.1300439E+00
        -11   -1    0    0    0    0  0.00000000000E+00  0.00000000000E+00  0.45593999997E+02  0.45594000000E+02  0.51100000000E-03 0.  1.
         11   -1    0    0    0    0 -0.00000000000E+00 -0.00000000000E+00 -0.45593999997E+02  0.45594000000E+02  0.51100000000E-03 0. -1.
    9900012    2    1    2    0    0 -0.14367070356E+02 -0.32253765109E+02  0.20160556141E+02  0.50528854679E+02  0.29999984283E+02 0.  0.
         12    1    1    2    0    0  0.14367070356E+02  0.32253765109E+02 -0.20160556141E+02  0.40659145321E+02  0.00000000000E+00 0. -1.
         11    1    3    3    0    0 -0.12347848339E+02 -0.11737727767E+02  0.15037039316E+02  0.22723471640E+02  0.51100000000E-03 0.  1.
        -11    1    3    3    0    0  0.67590020820E+01 -0.78784373525E+01 -0.24345829586E+01  0.10662132934E+02  0.51100000000E-03 0. -1.
         12    1    3    3    0    0 -0.87782240995E+01 -0.12637599989E+02  0.75580997830E+01  0.17143250105E+02  0.00000000000E+00 0. -1.
</event>
<event>
 7    1  0.6136531E-013  0.5052888E+02  0.7816164E-02  0.1300439E+00
        -11   -1    0    0    0    0  0.00000000000E+00  0.00000000000E+00  0.45593999997E+02  0.45594000000E+02  0.51100000000E-03 0. -1.
         11   -1    0    0    0    0 -0.00000000000E+00 -0.00000000000E+00 -0.45593999997E+02  0.45594000000E+02  0.51100000000E-03 0.  1.
    9900012    2    1    2    0    0 -0.33847613750E+02  0.22514481723E+02 -0.77518722489E+00  0.50528883445E+02  0.30000071720E+02 0.  0.
         12    1    1    2    0    0  0.33847613750E+02 -0.22514481723E+02  0.77518722489E+00  0.40659116555E+02  0.00000000000E+00 0. -1.
         11    1    3    3    0    0 -0.28037316080E+00  0.44540814695E+01 -0.13891461027E+01  0.46740964905E+01  0.51100000000E-03 0.  1.
        -11    1    3    3    0    0 -0.99804091037E+01  0.51601219533E+01  0.12195545381E+02  0.16582121452E+02  0.51100000000E-03 0. -1.
        -12    1    3    3    0    0 -0.23586831485E+02  0.12900278300E+02 -0.11581586503E+02  0.29272665503E+02  0.00000000000E+00 0.  1.
</event>
<event>
 7    1  0.6136531E-013  0.5052886E+02  0.7816164E-02  0.1300439E+00
        -11   -1    0    0    0    0  0.00000000000E+00  0.00000000000E+00  0.45593999997E+02  0.45594000000E+02  0.51100000000E-03 0. -1.
         11   -1    0    0    0    0 -0.00000000000E+00 -0.00000000000E+00 -0.45593999997E+02  0.45594000000E+02  0.51100000000E-03 0.  1.
    9900012    2    1    2    0    0  0.53047022999E+01 -0.25185879664E+02 -0.31475341344E+02  0.50528861868E+02  0.30000006133E+02 0.  0.
         12    1    1    2    0    0 -0.53047022999E+01  0.25185879664E+02  0.31475341344E+02  0.40659138132E+02  0.00000000000E+00 0. -1.
         11    1    3    3    0    0  0.16010306003E+01  0.43214567670E+01 -0.13673046131E+02  0.14428807238E+02  0.51100000000E-03 0. -1.
        -11    1    3    3    0    0  0.57116424403E+01 -0.24886581654E+02 -0.11426005014E+02  0.27973530286E+02  0.51100000000E-03 0.  1.
         12    1    3    3    0    0 -0.20079707407E+01 -0.46207547766E+01 -0.63762901996E+01  0.81265243438E+01  0.00000000000E+00 0. -1.
</event>
<event>
 7    1  0.6136531E-013  0.5052886E+02  0.7816164E-02  0.1300439E+00
        -11   -1    0    0    0    0  0.00000000000E+00  0.00000000000E+00  0.45593999997E+02  0.45594000000E+02  0.51100000000E-03 0. -1.
         11   -1    0    0    0    0 -0.00000000000E+00 -0.00000000000E+00 -0.45593999997E+02  0.45594000000E+02  0.51100000000E-03 0.  1.
    9900012    2    1    2    0    0 -0.19115814035E+02  0.94973700790E+01 -0.34605658058E+02  0.50528856449E+02  0.29999989664E+02 0.  0.
         12    1    1    2    0    0  0.19115814035E+02 -0.94973700790E+01  0.34605658058E+02  0.40659143551E+02  0.00000000000E+00 0. -1.
         11    1    3    3    0    0 -0.13380115366E+02  0.89471433843E+01 -0.42365461547E+01  0.16644133667E+02  0.51100000000E-03 0. -1.
        -11    1    3    3    0    0 -0.99547099056E+01 -0.13083479678E+01 -0.24058136409E+02  0.26069176271E+02  0.51100000000E-03 0.  1.
         12    1    3    3    0    0  0.42190112363E+01  0.18585746625E+01 -0.63109754945E+01  0.78155465120E+01  0.00000000000E+00 0. -1.
</event>
<event>
 7    1  0.6136531E-013  0.5052886E+02  0.7816164E-02  0.1300439E+00
        -11   -1    0    0    0    0  0.00000000000E+00  0.00000000000E+00  0.45593999997E+02  0.45594000000E+02  0.51100000000E-03 0.  1.
         11   -1    0    0    0    0 -0.00000000000E+00 -0.00000000000E+00 -0.45593999997E+02  0.45594000000E+02  0.51100000000E-03 0. -1.
    9900012    2    1    2    0    0  0.26552528402E+02 -0.28256804734E+02  0.12234446699E+02  0.50528862474E+02  0.30000007977E+02 0.  0.
         12    1    1    2    0    0 -0.26552528402E+02  0.28256804734E+02 -0.12234446699E+02  0.40659137526E+02  0.00000000000E+00 0. -1.
         11    1    3    3    0    0  0.20716347991E+02 -0.53021075491E+01 -0.12450023101E+01  0.21420304609E+02  0.51100000000E-03 0. -1.
        -11    1    3    3    0    0 -0.10229091007E+00 -0.14076730009E+02  0.11648791374E+02  0.18271812497E+02  0.51100000000E-03 0.  1.
         12    1    3    3    0    0  0.59384713215E+01 -0.88779671757E+01  0.18306576351E+01  0.10836745369E+02  0.00000000000E+00 0. -1.
</event>
<event>
 7    1  0.6136531E-013  0.5052886E+02  0.7816164E-02  0.1300439E+00
        -11   -1    0    0    0    0  0.00000000000E+00  0.00000000000E+00  0.45593999997E+02  0.45594000000E+02  0.51100000000E-03 0.  1.
         11   -1    0    0    0    0 -0.00000000000E+00 -0.00000000000E+00 -0.45593999997E+02  0.45594000000E+02  0.51100000000E-03 0. -1.
    9900012    2    1    2    0    0  0.30019629374E+02  0.26873045681E+02  0.54614167544E+01  0.50528858287E+02  0.29999995248E+02 0.  0.
         12    1    1    2    0    0 -0.30019629374E+02 -0.26873045681E+02 -0.54614167544E+01  0.40659141713E+02  0.00000000000E+00 0. -1.
         11    1    3    3    0    0 -0.13826087515E+01 -0.41472545722E+01  0.54983732715E-01  0.43719962166E+01  0.51100000000E-03 0. -1.
        -11    1    3    3    0    0  0.32339722544E+02  0.30006401920E+02  0.62224264824E+01  0.44552894429E+02  0.51100000000E-03 0.  1.
        -12    1    3    3    0    0 -0.93748441868E+00  0.10138983328E+01 -0.81599346072E+00  0.16039676407E+01  0.00000000000E+00 0.  1.
</event>
<event>
 7    1  0.6136531E-013  0.5052886E+02  0.7816164E-02  0.1300439E+00
        -11   -1    0    0    0    0  0.00000000000E+00  0.00000000000E+00  0.45593999997E+02  0.45594000000E+02  0.51100000000E-03 0.  1.
         11   -1    0    0    0    0 -0.00000000000E+00 -0.00000000000E+00 -0.45593999997E+02  0.45594000000E+02  0.51100000000E-03 0. -1.
    9900012    2    1    2    0    0 -0.14295072582E+02 -0.30320675630E+02  0.23010276637E+02  0.50528864474E+02  0.30000014055E+02 0.  0.
         12    1    1    2    0    0  0.14295072582E+02  0.30320675630E+02 -0.23010276637E+02  0.40659135526E+02  0.00000000000E+00 0. -1.
         11    1    3    3    0    0  0.14855474514E+01 -0.66931880573E+01 -0.17646553519E+01  0.70795216204E+01  0.51100000000E-03 0. -1.
        -11    1    3    3    0    0 -0.18804144800E+02 -0.94486298249E+01  0.12683496274E+02  0.24571193403E+02  0.51100000000E-03 0.  1.
        -12    1    3    3    0    0  0.30235247666E+01 -0.14178857748E+02  0.12091435715E+02  0.18878149451E+02  0.00000000000E+00 0.  1.
</event>
<event>
 7    1  0.6136531E-013  0.5052886E+02  0.7816164E-02  0.1300439E+00
        -11   -1    0    0    0    0  0.00000000000E+00  0.00000000000E+00  0.45593999997E+02  0.45594000000E+02  0.51100000000E-03 0.  1.
         11   -1    0    0    0    0 -0.00000000000E+00 -0.00000000000E+00 -0.45593999997E+02  0.45594000000E+02  0.51100000000E-03 0. -1.
    9900012    2    1    2    0    0  0.14277406671E+02  0.32733247771E+01  0.37928972365E+02  0.50528856613E+02  0.29999990160E+02 0.  0.
         12    1    1    2    0    0 -0.14277406671E+02 -0.32733247771E+01 -0.37928972365E+02  0.40659143387E+02  0.00000000000E+00 0. -1.
         11    1    3    3    0    0 -0.41449271943E+01  0.11229071900E+01  0.23490449851E+02  0.23879752437E+02  0.51100000000E-03 0. -1.
        -11    1    3    3    0    0  0.15607379677E+02 -0.29766636655E+01  0.13231978405E+02  0.20676945610E+02  0.51100000000E-03 0.  1.
        -12    1    3    3    0    0  0.28149541878E+01  0.51270812526E+01  0.12065441089E+01  0.59721585660E+01  0.00000000000E+00 0.  1.
</event>
<event>
 7    1  0.6136531E-013  0.5052887E+02  0.7816164E-02  0.1300439E+00
        -11   -1    0    0    0    0  0.00000000000E+00  0.00000000000E+00  0.45593999997E+02  0.45594000000E+02  0.51100000000E-03 0.  1.
         11   -1    0    0    0    0 -0.00000000000E+00 -0.00000000000E+00 -0.45593999997E+02  0.45594000000E+02  0.51100000000E-03 0. -1.
    9900012    2    1    2    0    0  0.38609785071E+01  0.78287096400E+01  0.39711074018E+02  0.50528865118E+02  0.30000016014E+02 0.  0.
         12    1    1    2    0    0 -0.38609785071E+01 -0.78287096400E+01 -0.39711074018E+02  0.40659134882E+02  0.00000000000E+00 0. -1.
         11    1    3    3    0    0 -0.77139337238E+01 -0.63213532238E+00  0.43233526163E+01  0.88654242237E+01  0.51100000000E-03 0. -1.
        -11    1    3    3    0    0  0.77404367478E+01  0.12073828258E+02  0.15619475743E+02  0.21205181268E+02  0.51100000000E-03 0.  1.
        -12    1    3    3    0    0  0.38344754831E+01 -0.36129832959E+01  0.19768245658E+02  0.20458259626E+02  0.00000000000E+00 0.  1.
</event>
<event>
 7    1  0.6136531E-013  0.5052887E+02  0.7816164E-02  0.1300439E+00
        -11   -1    0    0    0    0  0.00000000000E+00  0.00000000000E+00  0.45593999997E+02  0.45594000000E+02  0.51100000000E-03 0.  1.
         11   -1    0    0    0    0 -0.00000000000E+00 -0.00000000000E+00 -0.45593999997E+02  0.45594000000E+02  0.51100000000E-03 0. -1.
    9900012    2    1    2    0    0  0.25530996245E+02 -0.10015720659E+02  0.30016970297E+02  0.50528868979E+02  0.30000027748E+02 0.  0.
         12    1    1    2    0    0 -0.25530996245E+02  0.10015720659E+02 -0.30016970297E+02  0.40659131021E+02  0.00000000000E+00 0. -1.
         11    1    3    3    0    0 -0.27491961710E+00  0.43614933710E+01 -0.16240907305E+01  0.46621750485E+01  0.51100000000E-03 0. -1.
        -11    1    3    3    0    0  0.25231300293E+02 -0.81140459057E+01  0.22474860533E+02  0.34750188657E+02  0.51100000000E-03 0.  1.
         12    1    3    3    0    0  0.57461556961E+00 -0.62631681238E+01  0.91662004943E+01  0.11116505274E+02  0.00000000000E+00 0. -1.
</event>
<event>
 7    1  0.6136531E-013  0.5052892E+02  0.7816164E-02  0.1300439E+00
        -11   -1    0    0    0    0  0.00000000000E+00  0.00000000000E+00  0.45593999997E+02  0.45594000000E+02  0.51100000000E-03 0.  1.
         11   -1    0    0    0    0 -0.00000000000E+00 -0.00000000000E+00 -0.45593999997E+02  0.45594000000E+02  0.51100000000E-03 0. -1.
    9900012    2    1    2    0    0 -0.27017245317E+02  0.28393804618E+02  0.10817643898E+02  0.50528916087E+02  0.30000170936E+02 0.  0.
         12    1    1    2    0    0  0.27017245317E+02 -0.28393804618E+02 -0.10817643898E+02  0.40659083913E+02  0.00000000000E+00 0. -1.
         11    1    3    3    0    0  0.40928646309E+01  0.11349480642E+02  0.79917530461E+01  0.14471709255E+02  0.51100000000E-03 0. -1.
        -11    1    3    3    0    0 -0.18716128526E+02  0.13428180235E+02  0.17113230052E+01  0.23098444063E+02  0.51100000000E-03 0.  1.
         12    1    3    3    0    0 -0.12393981421E+02  0.36161437406E+01  0.11145678462E+01  0.12958762769E+02  0.00000000000E+00 0. -1.
</event>
<event>
 7    1  0.6136531E-013  0.5052886E+02  0.7816164E-02  0.1300439E+00
        -11   -1    0    0    0    0  0.00000000000E+00  0.00000000000E+00  0.45593999997E+02  0.45594000000E+02  0.51100000000E-03 0. -1.
         11   -1    0    0    0    0 -0.00000000000E+00 -0.00000000000E+00 -0.45593999997E+02  0.45594000000E+02  0.51100000000E-03 0.  1.
    9900012    2    1    2    0    0  0.18414808103E+02  0.19418354079E+02 -0.30610262898E+02  0.50528858011E+02  0.29999994410E+02 0.  0.
         12    1    1    2    0    0 -0.18414808103E+02 -0.19418354079E+02  0.30610262898E+02  0.40659141989E+02  0.00000000000E+00 0. -1.
         11    1    3    3    0    0 -0.21587175606E+01  0.74861902327E+01 -0.18947666365E+02  0.20486999943E+02  0.51100000000E-03 0. -1.
        -11    1    3    3    0    0  0.19615546074E+02  0.12232135130E+02 -0.14325614138E+02  0.27195918781E+02  0.51100000000E-03 0.  1.
         12    1    3    3    0    0  0.95797958939E+00 -0.29997128446E+00  0.26630176049E+01  0.28459392877E+01  0.00000000000E+00 0. -1.
</event>
<event>
 7    1  0.6136531E-013  0.5052886E+02  0.7816164E-02  0.1300439E+00
        -11   -1    0    0    0    0  0.00000000000E+00  0.00000000000E+00  0.45593999997E+02  0.45594000000E+02  0.51100000000E-03 0.  1.
         11   -1    0    0    0    0 -0.00000000000E+00 -0.00000000000E+00 -0.45593999997E+02  0.45594000000E+02  0.51100000000E-03 0. -1.
    9900012    2    1    2    0    0 -0.39843487887E+01  0.23842816494E+02  0.32692676447E+02  0.50528855556E+02  0.29999986948E+02 0.  0.
         12    1    1    2    0    0  0.39843487887E+01 -0.23842816494E+02 -0.32692676447E+02  0.40659144444E+02  0.00000000000E+00 0. -1.
         11    1    3    3    0    0  0.66274629695E+01  0.65229656680E+01 -0.18854463946E+00  0.93009620932E+01  0.51100000000E-03 0. -1.
        -11    1    3    3    0    0 -0.66541994388E+01  0.11347104657E+02  0.81378461813E+01  0.15468021690E+02  0.51100000000E-03 0.  1.
         12    1    3    3    0    0 -0.39576123194E+01  0.59727461699E+01  0.24743374905E+02  0.25759871773E+02  0.00000000000E+00 0. -1.
</event>
<event>
 7    1  0.6136531E-013  0.5052886E+02  0.7816164E-02  0.1300439E+00
        -11   -1    0    0    0    0  0.00000000000E+00  0.00000000000E+00  0.45593999997E+02  0.45594000000E+02  0.51100000000E-03 0.  1.
         11   -1    0    0    0    0 -0.00000000000E+00 -0.00000000000E+00 -0.45593999997E+02  0.45594000000E+02  0.51100000000E-03 0. -1.
    9900012    2    1    2    0    0  0.40360252390E+02  0.37945478054E+01 -0.31331984424E+01  0.50528862054E+02  0.30000006699E+02 0.  0.
         12    1    1    2    0    0 -0.40360252390E+02 -0.37945478054E+01  0.31331984424E+01  0.40659137946E+02  0.00000000000E+00 0. -1.
         11    1    3    3    0    0 -0.15129177602E+01  0.26603785784E+01 -0.11240026265E+01  0.32603552712E+01  0.51100000000E-03 0. -1.
        -11    1    3    3    0    0  0.39914595004E+02 -0.34693347668E+01 -0.64476718750E+01  0.40580582190E+02  0.51100000000E-03 0.  1.
        -12    1    3    3    0    0  0.19585751465E+01  0.46035039938E+01  0.44384760591E+01  0.66879245924E+01  0.00000000000E+00 0.  1.
</event>
<event>
 7    1  0.6136531E-013  0.5052889E+02  0.7816164E-02  0.1300439E+00
        -11   -1    0    0    0    0  0.00000000000E+00  0.00000000000E+00  0.45593999997E+02  0.45594000000E+02  0.51100000000E-03 0.  1.
         11   -1    0    0    0    0 -0.00000000000E+00 -0.00000000000E+00 -0.45593999997E+02  0.45594000000E+02  0.51100000000E-03 0. -1.
    9900012    2    1    2    0    0 -0.30693981655E+01  0.34101678957E+02  0.21927549439E+02  0.50528891093E+02  0.30000094965E+02 0.  0.
         12    1    1    2    0    0  0.30693981655E+01 -0.34101678957E+02 -0.21927549439E+02  0.40659108907E+02  0.00000000000E+00 0. -1.
         11    1    3    3    0    0 -0.33928364668E+01  0.13283917430E+02 -0.49555306144E+01  0.14578445922E+02  0.51100000000E-03 0. -1.
        -11    1    3    3    0    0 -0.54979806797E+01  0.72317350625E+01  0.99129766981E+01  0.13445924693E+02  0.51100000000E-03 0.  1.
         12    1    3    3    0    0  0.58214189810E+01  0.13586026464E+02  0.16970103355E+02  0.22504520477E+02  0.00000000000E+00 0. -1.
</event>
<event>
 7    1  0.6136531E-013  0.5052887E+02  0.7816164E-02  0.1300439E+00
        -11   -1    0    0    0    0  0.00000000000E+00  0.00000000000E+00  0.45593999997E+02  0.45594000000E+02  0.51100000000E-03 0.  1.
         11   -1    0    0    0    0 -0.00000000000E+00 -0.00000000000E+00 -0.45593999997E+02  0.45594000000E+02  0.51100000000E-03 0. -1.
    9900012    2    1    2    0    0  0.43135586091E+01 -0.31273387052E+02  0.25622900567E+02  0.50528873607E+02  0.30000041817E+02 0.  0.
         12    1    1    2    0    0 -0.43135586091E+01  0.31273387052E+02 -0.25622900567E+02  0.40659126393E+02  0.00000000000E+00 0. -1.
         11    1    3    3    0    0  0.29119207415E+01 -0.19810999501E+02 -0.17894591854E+00  0.20024659936E+02  0.51100000000E-03 0. -1.
        -11    1    3    3    0    0  0.62001890371E+01 -0.70745853259E+01  0.18302951927E+02  0.20578876333E+02  0.51100000000E-03 0.  1.
        -12    1    3    3    0    0 -0.47985511695E+01 -0.43878022242E+01  0.74988945587E+01  0.99253373388E+01  0.00000000000E+00 0.  1.
</event>
<event>
 7    1  0.6136531E-013  0.5052887E+02  0.7816164E-02  0.1300439E+00
        -11   -1    0    0    0    0  0.00000000000E+00  0.00000000000E+00  0.45593999997E+02  0.45594000000E+02  0.51100000000E-03 0.  1.
         11   -1    0    0    0    0 -0.00000000000E+00 -0.00000000000E+00 -0.45593999997E+02  0.45594000000E+02  0.51100000000E-03 0. -1.
    9900012    2    1    2    0    0 -0.35119801013E+02  0.16167149051E+02  0.12585207022E+02  0.50528873504E+02  0.30000041503E+02 0.  0.
         12    1    1    2    0    0  0.35119801013E+02 -0.16167149051E+02 -0.12585207022E+02  0.40659126496E+02  0.00000000000E+00 0. -1.
         11    1    3    3    0    0 -0.26557862249E+02  0.98431119686E+01 -0.18133781222E+01  0.28381248051E+02  0.51100000000E-03 0. -1.
        -11    1    3    3    0    0  0.27387947264E+01  0.42300585078E+01  0.25768369158E+01  0.56599010843E+01  0.51100000000E-03 0.  1.
        -12    1    3    3    0    0 -0.11300733490E+02  0.20939785751E+01  0.11821748228E+02  0.16487724368E+02  0.00000000000E+00 0.  1.
</event>
<event>
 7    1  0.6136531E-013  0.5052886E+02  0.7816164E-02  0.1300439E+00
        -11   -1    0    0    0    0  0.00000000000E+00  0.00000000000E+00  0.45593999997E+02  0.45594000000E+02  0.51100000000E-03 0.  1.
         11   -1    0    0    0    0 -0.00000000000E+00 -0.00000000000E+00 -0.45593999997E+02  0.45594000000E+02  0.51100000000E-03 0. -1.
    9900012    2    1    2    0    0 -0.72778867224E+01 -0.15573891644E+02  0.36846326027E+02  0.50528862309E+02  0.30000007473E+02 0.  0.
         12    1    1    2    0    0  0.72778867224E+01  0.15573891644E+02 -0.36846326027E+02  0.40659137691E+02  0.00000000000E+00 0. -1.
         11    1    3    3    0    0 -0.12309182512E+02  0.38475977279E+01  0.20311138699E+02  0.24059558140E+02  0.51100000000E-03 0. -1.
        -11    1    3    3    0    0  0.39249132182E+01 -0.16787697578E+02  0.16082208231E+02  0.23576877562E+02  0.51100000000E-03 0.  1.
        -12    1    3    3    0    0  0.11063825713E+01 -0.26337917944E+01  0.45297909722E+00  0.28924266063E+01  0.00000000000E+00 0.  1.
</event>
<event>
 7    1  0.6136531E-013  0.5052886E+02  0.7816164E-02  0.1300439E+00
        -11   -1    0    0    0    0  0.00000000000E+00  0.00000000000E+00  0.45593999997E+02  0.45594000000E+02  0.51100000000E-03 0.  1.
         11   -1    0    0    0    0 -0.00000000000E+00 -0.00000000000E+00 -0.45593999997E+02  0.45594000000E+02  0.51100000000E-03 0. -1.
    9900012    2    1    2    0    0 -0.14704120435E+01  0.14419909686E+02  0.37987752785E+02  0.50528864881E+02  0.30000015293E+02 0.  0.
         12    1    1    2    0    0  0.14704120435E+01 -0.14419909686E+02 -0.37987752785E+02  0.40659135119E+02  0.00000000000E+00 0. -1.
         11    1    3    3    0    0  0.12783537595E+01 -0.26023350511E+01  0.47028062757E+01  0.55247373857E+01  0.51100000000E-03 0. -1.
        -11    1    3    3    0    0 -0.12313730832E+02  0.13059998308E+02  0.28302326473E+02  0.33514373138E+02  0.51100000000E-03 0.  1.
        -12    1    3    3    0    0  0.95649650287E+01  0.39622464284E+01  0.49826200366E+01  0.11489754357E+02  0.00000000000E+00 0.  1.
</event>
<event>
 7    1  0.6136531E-013  0.5052884E+02  0.7816164E-02  0.1300439E+00
        -11   -1    0    0    0    0  0.00000000000E+00  0.00000000000E+00  0.45593999997E+02  0.45594000000E+02  0.51100000000E-03 0.  1.
         11   -1    0    0    0    0 -0.00000000000E+00 -0.00000000000E+00 -0.45593999997E+02  0.45594000000E+02  0.51100000000E-03 0. -1.
    9900012    2    1    2    0    0 -0.52324133173E+01  0.37650384916E+02  0.14430428739E+02  0.50528844732E+02  0.29999954048E+02 0.  0.
         12    1    1    2    0    0  0.52324133173E+01 -0.37650384916E+02 -0.14430428739E+02  0.40659155268E+02  0.00000000000E+00 0. -1.
         11    1    3    3    0    0 -0.69796353169E+01  0.29628342612E+02  0.92853923657E+01  0.31824086896E+02  0.51100000000E-03 0. -1.
        -11    1    3    3    0    0  0.83552960996E+01  0.62492063282E+01  0.52063590104E+00  0.10446751392E+02  0.51100000000E-03 0.  1.
        -12    1    3    3    0    0 -0.66080741000E+01  0.17728359761E+01  0.46244004726E+01  0.82580064447E+01  0.00000000000E+00 0.  1.
</event>
<event>
 7    1  0.6136531E-013  0.5052887E+02  0.7816164E-02  0.1300439E+00
        -11   -1    0    0    0    0  0.00000000000E+00  0.00000000000E+00  0.45593999997E+02  0.45594000000E+02  0.51100000000E-03 0.  1.
         11   -1    0    0    0    0 -0.00000000000E+00 -0.00000000000E+00 -0.45593999997E+02  0.45594000000E+02  0.51100000000E-03 0. -1.
    9900012    2    1    2    0    0 -0.37299808733E+01 -0.32930720453E+02  0.23554620038E+02  0.50528865332E+02  0.30000016662E+02 0.  0.
         12    1    1    2    0    0  0.37299808733E+01  0.32930720453E+02 -0.23554620038E+02  0.40659134668E+02  0.00000000000E+00 0. -1.
         11    1    3    3    0    0 -0.41668807241E+00  0.45601427444E+01  0.38023720602E+01  0.59520218703E+01  0.51100000000E-03 0. -1.
        -11    1    3    3    0    0 -0.60155365593E+01 -0.27473781084E+02  0.87502490193E+01  0.29454408589E+02  0.51100000000E-03 0.  1.
         12    1    3    3    0    0  0.27022437584E+01 -0.10017082113E+02  0.11001998959E+02  0.15122434872E+02  0.00000000000E+00 0. -1.
</event>
<event>
 7    1  0.6136531E-013  0.5052885E+02  0.7816164E-02  0.1300439E+00
        -11   -1    0    0    0    0  0.00000000000E+00  0.00000000000E+00  0.45593999997E+02  0.45594000000E+02  0.51100000000E-03 0.  1.
         11   -1    0    0    0    0 -0.00000000000E+00 -0.00000000000E+00 -0.45593999997E+02  0.45594000000E+02  0.51100000000E-03 0. -1.
    9900012    2    1    2    0    0  0.34193326793E+02 -0.89299472637E+01  0.20105687598E+02  0.50528853070E+02  0.29999979390E+02 0.  0.
         12    1    1    2    0    0 -0.34193326793E+02  0.89299472637E+01 -0.20105687598E+02  0.40659146930E+02  0.00000000000E+00 0. -1.
         11    1    3    3    0    0  0.70635072193E+01  0.47966116979E+01  0.13036312274E+02  0.15583518729E+02  0.51100000000E-03 0.  1.
        -11    1    3    3    0    0  0.14035796103E+02 -0.11998429224E+02 -0.25023649739E+01  0.18634046979E+02  0.51100000000E-03 0. -1.
         12    1    3    3    0    0  0.13094023471E+02 -0.17281297370E+01  0.95717402981E+01  0.16311287361E+02  0.00000000000E+00 0. -1.
</event>
<event>
 7    1  0.6136531E-013  0.5052884E+02  0.7816164E-02  0.1300439E+00
        -11   -1    0    0    0    0  0.00000000000E+00  0.00000000000E+00  0.45593999997E+02  0.45594000000E+02  0.51100000000E-03 0.  1.
         11   -1    0    0    0    0 -0.00000000000E+00 -0.00000000000E+00 -0.45593999997E+02  0.45594000000E+02  0.51100000000E-03 0. -1.
    9900012    2    1    2    0    0 -0.20807458085E+02  0.44640189844E+01  0.34645192703E+02  0.50528841685E+02  0.29999944785E+02 0.  0.
         12    1    1    2    0    0  0.20807458085E+02 -0.44640189844E+01 -0.34645192703E+02  0.40659158315E+02  0.00000000000E+00 0. -1.
         11    1    3    3    0    0  0.44190193845E+01  0.50000066453E+00 -0.25868666879E+01  0.51448627297E+01  0.51100000000E-03 0. -1.
        -11    1    3    3    0    0 -0.13243963011E+02  0.33572493122E+01  0.23177305109E+02  0.26904667839E+02  0.51100000000E-03 0.  1.
        -12    1    3    3    0    0 -0.11982514459E+02  0.60676900767E+00  0.14054754282E+02  0.18479311116E+02  0.00000000000E+00 0.  1.
</event>
<event>
 7    1  0.6136531E-013  0.5052886E+02  0.7816164E-02  0.1300439E+00
        -11   -1    0    0    0    0  0.00000000000E+00  0.00000000000E+00  0.45593999997E+02  0.45594000000E+02  0.51100000000E-03 0.  1.
         11   -1    0    0    0    0 -0.00000000000E+00 -0.00000000000E+00 -0.45593999997E+02  0.45594000000E+02  0.51100000000E-03 0. -1.
    9900012    2    1    2    0    0  0.29414654587E+01  0.28926670822E+02  0.28421140525E+02  0.50528859175E+02  0.29999997949E+02 0.  0.
         12    1    1    2    0    0 -0.29414654587E+01 -0.28926670822E+02 -0.28421140525E+02  0.40659140825E+02  0.00000000000E+00 0. -1.
         11    1    3    3    0    0  0.24970685911E+01  0.15279661107E+02  0.27659623785E+01  0.15727490048E+02  0.51100000000E-03 0. -1.
        -11    1    3    3    0    0  0.81170826894E+01  0.12913977023E+02  0.20403291921E+02  0.25474539356E+02  0.51100000000E-03 0.  1.
        -12    1    3    3    0    0 -0.76726858219E+01  0.73303269244E+00  0.52518862249E+01  0.93268297705E+01  0.00000000000E+00 0.  1.
</event>
<event>
 7    1  0.6136531E-013  0.5052885E+02  0.7816164E-02  0.1300439E+00
        -11   -1    0    0    0    0  0.00000000000E+00  0.00000000000E+00  0.45593999997E+02  0.45594000000E+02  0.51100000000E-03 0.  1.
         11   -1    0    0    0    0 -0.00000000000E+00 -0.00000000000E+00 -0.45593999997E+02  0.45594000000E+02  0.51100000000E-03 0. -1.
    9900012    2    1    2    0    0 -0.37192672699E+01  0.10283776616E+02  0.39160915325E+02  0.50528852203E+02  0.29999976756E+02 0.  0.
         12    1    1    2    0    0  0.37192672699E+01 -0.10283776616E+02 -0.39160915325E+02  0.40659147797E+02  0.00000000000E+00 0. -1.
         11    1    3    3    0    0  0.45766417713E+01 -0.49001664217E+01  0.49776730255E+01  0.83507191231E+01  0.51100000000E-03 0. -1.
        -11    1    3    3    0    0 -0.45547682831E+01  0.17924298179E+02  0.19927050575E+02  0.27186646064E+02  0.51100000000E-03 0.  1.
        -12    1    3    3    0    0 -0.37411407581E+01 -0.27403551415E+01  0.14256191724E+02  0.14991487015E+02  0.00000000000E+00 0.  1.
</event>
<event>
 7    1  0.6136531E-013  0.5052886E+02  0.7816164E-02  0.1300439E+00
        -11   -1    0    0    0    0  0.00000000000E+00  0.00000000000E+00  0.45593999997E+02  0.45594000000E+02  0.51100000000E-03 0. -1.
         11   -1    0    0    0    0 -0.00000000000E+00 -0.00000000000E+00 -0.45593999997E+02  0.45594000000E+02  0.51100000000E-03 0.  1.
    9900012    2    1    2    0    0 -0.29708191428E+02  0.17624829339E+02 -0.21446548051E+02  0.50528859939E+02  0.30000000272E+02 0.  0.
         12    1    1    2    0    0  0.29708191428E+02 -0.17624829339E+02  0.21446548051E+02  0.40659140061E+02  0.00000000000E+00 0. -1.
         11    1    3    3    0    0 -0.14726596245E+01 -0.48127550750E+01 -0.94030545656E+01  0.10665306991E+02  0.51100000000E-03 0. -1.
        -11    1    3    3    0    0 -0.21844271313E+02  0.10755667734E+02 -0.52233388885E+01  0.24902607233E+02  0.51100000000E-03 0.  1.
         12    1    3    3    0    0 -0.63912604905E+01  0.11681916680E+02 -0.68201545969E+01  0.14960945715E+02  0.00000000000E+00 0. -1.
</event>
<event>
 7    1  0.6136531E-013  0.5052890E+02  0.7816164E-02  0.1300439E+00
        -11   -1    0    0    0    0  0.00000000000E+00  0.00000000000E+00  0.45593999997E+02  0.45594000000E+02  0.51100000000E-03 0. -1.
         11   -1    0    0    0    0 -0.00000000000E+00 -0.00000000000E+00 -0.45593999997E+02  0.45594000000E+02  0.51100000000E-03 0.  1.
    9900012    2    1    2    0    0 -0.36219023390E+02  0.64436514056E+01  0.17315434019E+02  0.50528898264E+02  0.30000116763E+02 0.  0.
         12    1    1    2    0    0  0.36219023390E+02 -0.64436514056E+01 -0.17315434019E+02  0.40659101736E+02  0.00000000000E+00 0. -1.
         11    1    3    3    0    0 -0.11808345119E+01  0.26429433653E+01  0.52042378884E+01  0.59551332510E+01  0.51100000000E-03 0. -1.
        -11    1    3    3    0    0 -0.26873314456E+02 -0.47708151255E+01 -0.47173487276E+00  0.27297586722E+02  0.51100000000E-03 0.  1.
        -12    1    3    3    0    0 -0.81648744219E+01  0.85715231658E+01  0.12582931003E+02  0.17276178291E+02  0.00000000000E+00 0.  1.
</event>
<event>
 7    1  0.6136531E-013  0.5052886E+02  0.7816164E-02  0.1300439E+00
        -11   -1    0    0    0    0  0.00000000000E+00  0.00000000000E+00  0.45593999997E+02  0.45594000000E+02  0.51100000000E-03 0.  1.
         11   -1    0    0    0    0 -0.00000000000E+00 -0.00000000000E+00 -0.45593999997E+02  0.45594000000E+02  0.51100000000E-03 0. -1.
    9900012    2    1    2    0    0  0.19980035198E+02 -0.27611394969E+02  0.22171484300E+02  0.50528860133E+02  0.30000000860E+02 0.  0.
         12    1    1    2    0    0 -0.19980035198E+02  0.27611394969E+02 -0.22171484300E+02  0.40659139867E+02  0.00000000000E+00 0. -1.
         11    1    3    3    0    0 -0.24934545948E+01 -0.97032585201E+01 -0.31460441277E+01  0.10500863566E+02  0.51100000000E-03 0. -1.
        -11    1    3    3    0    0  0.88785894507E+01 -0.50092733871E+00  0.79974611668E+01  0.11959919072E+02  0.51100000000E-03 0.  1.
         12    1    3    3    0    0  0.13594900342E+02 -0.17407209110E+02  0.17320067261E+02  0.28068077495E+02  0.00000000000E+00 0. -1.
</event>
<event>
 7    1  0.6136531E-013  0.5052886E+02  0.7816164E-02  0.1300439E+00
        -11   -1    0    0    0    0  0.00000000000E+00  0.00000000000E+00  0.45593999997E+02  0.45594000000E+02  0.51100000000E-03 0.  1.
         11   -1    0    0    0    0 -0.00000000000E+00 -0.00000000000E+00 -0.45593999997E+02  0.45594000000E+02  0.51100000000E-03 0. -1.
    9900012    2    1    2    0    0 -0.33454881471E+02  0.12020287598E+02  0.19734468712E+02  0.50528860025E+02  0.30000000531E+02 0.  0.
         12    1    1    2    0    0  0.33454881471E+02 -0.12020287598E+02 -0.19734468712E+02  0.40659139975E+02  0.00000000000E+00 0. -1.
         11    1    3    3    0    0 -0.30680241814E+01  0.54325451605E+01  0.10089458553E+02  0.11862651198E+02  0.51100000000E-03 0. -1.
        -11    1    3    3    0    0 -0.19311405074E+02 -0.54297621050E+01  0.97925285346E+01  0.22322775316E+02  0.51100000000E-03 0.  1.
        -12    1    3    3    0    0 -0.11075452216E+02  0.12017504543E+02 -0.14751837618E+00  0.16343433510E+02  0.00000000000E+00 0.  1.
</event>
<event>
 7    1  0.6136531E-013  0.5052886E+02  0.7816164E-02  0.1300439E+00
        -11   -1    0    0    0    0  0.00000000000E+00  0.00000000000E+00  0.45593999997E+02  0.45594000000E+02  0.51100000000E-03 0.  1.
         11   -1    0    0    0    0 -0.00000000000E+00 -0.00000000000E+00 -0.45593999997E+02  0.45594000000E+02  0.51100000000E-03 0. -1.
    9900012    2    1    2    0    0 -0.27232519840E+02 -0.29544941508E+02  0.62170843116E+01  0.50528857819E+02  0.29999993827E+02 0.  0.
         12    1    1    2    0    0  0.27232519840E+02  0.29544941508E+02 -0.62170843116E+01  0.40659142181E+02  0.00000000000E+00 0. -1.
         11    1    3    3    0    0 -0.69770516902E+01 -0.90260916906E+01 -0.32235146800E+01  0.11854983283E+02  0.51100000000E-03 0. -1.
        -11    1    3    3    0    0 -0.36667998230E+01 -0.95863693220E+01  0.14879184588E+02  0.18075785791E+02  0.51100000000E-03 0.  1.
        -12    1    3    3    0    0 -0.16588668327E+02 -0.10932480495E+02 -0.54385855961E+01  0.20598088744E+02  0.00000000000E+00 0.  1.
</event>
<event>
 7    1  0.6136531E-013  0.5052886E+02  0.7816164E-02  0.1300439E+00
        -11   -1    0    0    0    0  0.00000000000E+00  0.00000000000E+00  0.45593999997E+02  0.45594000000E+02  0.51100000000E-03 0. -1.
         11   -1    0    0    0    0 -0.00000000000E+00 -0.00000000000E+00 -0.45593999997E+02  0.45594000000E+02  0.51100000000E-03 0.  1.
    9900012    2    1    2    0    0  0.35076769765E+02 -0.14968085270E+02 -0.14097596525E+02  0.50528861032E+02  0.30000003594E+02 0.  0.
         12    1    1    2    0    0 -0.35076769765E+02  0.14968085270E+02  0.14097596525E+02  0.40659138968E+02  0.00000000000E+00 0. -1.
         11    1    3    3    0    0 -0.15570208923E+01  0.20060331240E+01  0.18391514335E+01  0.31354363668E+01  0.51100000000E-03 0. -1.
        -11    1    3    3    0    0  0.38552061088E+02 -0.14229661695E+02 -0.13510065954E+02  0.43258138754E+02  0.51100000000E-03 0.  1.
        -12    1    3    3    0    0 -0.19182704308E+01 -0.27444566991E+01 -0.24266820047E+01  0.41352859116E+01  0.00000000000E+00 0.  1.
</event>
<event>
 7    1  0.6136531E-013  0.5052887E+02  0.7816164E-02  0.1300439E+00
        -11   -1    0    0    0    0  0.00000000000E+00  0.00000000000E+00  0.45593999997E+02  0.45594000000E+02  0.51100000000E-03 0.  1.
         11   -1    0    0    0    0 -0.00000000000E+00 -0.00000000000E+00 -0.45593999997E+02  0.45594000000E+02  0.51100000000E-03 0. -1.
    9900012    2    1    2    0    0 -0.19409112743E+02 -0.99610026249E+00  0.35713567610E+02  0.50528870833E+02  0.30000033383E+02 0.  0.
         12    1    1    2    0    0  0.19409112743E+02  0.99610026249E+00 -0.35713567610E+02  0.40659129167E+02  0.00000000000E+00 0. -1.
         11    1    3    3    0    0 -0.14545937659E+01  0.30838858077E+01 -0.12175369736E+01  0.36205788546E+01  0.51100000000E-03 0. -1.
        -11    1    3    3    0    0 -0.61951199543E+01 -0.23126464104E+01  0.34032041337E+02  0.34668540242E+02  0.51100000000E-03 0.  1.
        -12    1    3    3    0    0 -0.11759399023E+02 -0.17673396598E+01  0.28990632464E+01  0.12239751736E+02  0.00000000000E+00 0.  1.
</event>
<event>
 7    1  0.6136531E-013  0.5052884E+02  0.7816164E-02  0.1300439E+00
        -11   -1    0    0    0    0  0.00000000000E+00  0.00000000000E+00  0.45593999997E+02  0.45594000000E+02  0.51100000000E-03 0.  1.
         11   -1    0    0    0    0 -0.00000000000E+00 -0.00000000000E+00 -0.45593999997E+02  0.45594000000E+02  0.51100000000E-03 0. -1.
    9900012    2    1    2    0    0 -0.14351811884E+01  0.38300568116E+02 -0.13571070446E+02  0.50528840932E+02  0.29999942497E+02 0.  0.
         12    1    1    2    0    0  0.14351811884E+01 -0.38300568116E+02  0.13571070446E+02  0.40659159068E+02  0.00000000000E+00 0. -1.
         11    1    3    3    0    0 -0.10953429136E+02  0.18138638535E+02 -0.90153646272E+01  0.23027475272E+02  0.51100000000E-03 0. -1.
        -11    1    3    3    0    0  0.27802236129E+01 -0.12131195409E+01  0.25786684478E+01  0.39813105359E+01  0.51100000000E-03 0.  1.
        -12    1    3    3    0    0  0.67380243349E+01  0.21375049121E+02 -0.71343742670E+01  0.23520055125E+02  0.00000000000E+00 0.  1.
</event>
<event>
 7    1  0.6136531E-013  0.5052886E+02  0.7816164E-02  0.1300439E+00
        -11   -1    0    0    0    0  0.00000000000E+00  0.00000000000E+00  0.45593999997E+02  0.45594000000E+02  0.51100000000E-03 0. -1.
         11   -1    0    0    0    0 -0.00000000000E+00 -0.00000000000E+00 -0.45593999997E+02  0.45594000000E+02  0.51100000000E-03 0.  1.
    9900012    2    1    2    0    0 -0.26461312196E+02 -0.24999741870E+02 -0.18110143978E+02  0.50528862631E+02  0.30000008454E+02 0.  0.
         12    1    1    2    0    0  0.26461312196E+02  0.24999741870E+02  0.18110143978E+02  0.40659137369E+02  0.00000000000E+00 0. -1.
         11    1    3    3    0    0  0.14805862107E+01 -0.72548750153E+01  0.11648639755E+01  0.74954823299E+01  0.51100000000E-03 0. -1.
        -11    1    3    3    0    0 -0.27549188122E+02 -0.20888065415E+02 -0.19771775334E+02  0.39827027796E+02  0.51100000000E-03 0.  1.
        -12    1    3    3    0    0 -0.39271028412E+00  0.31431985604E+01  0.49676738031E+00  0.32063525052E+01  0.00000000000E+00 0.  1.
</event>
<event>
 7    1  0.6136531E-013  0.5052886E+02  0.7816164E-02  0.1300439E+00
        -11   -1    0    0    0    0  0.00000000000E+00  0.00000000000E+00  0.45593999997E+02  0.45594000000E+02  0.51100000000E-03 0.  1.
         11   -1    0    0    0    0 -0.00000000000E+00 -0.00000000000E+00 -0.45593999997E+02  0.45594000000E+02  0.51100000000E-03 0. -1.
    9900012    2    1    2    0    0 -0.87495156485E+01 -0.39238966761E+02  0.60757727377E+01  0.50528861410E+02  0.30000004742E+02 0.  0.
         12    1    1    2    0    0  0.87495156485E+01  0.39238966761E+02 -0.60757727377E+01  0.40659138590E+02  0.00000000000E+00 0. -1.
         11    1    3    3    0    0 -0.45568627051E+00 -0.37058740595E+01 -0.60605510806E+01  0.71183869088E+01  0.51100000000E-03 0. -1.
        -11    1    3    3    0    0 -0.11099752114E+02 -0.36834170733E+02  0.12061217785E+02  0.40316666595E+02  0.51100000000E-03 0.  1.
        -12    1    3    3    0    0  0.28059227362E+01  0.13010780317E+01  0.75106032868E-01  0.30938079065E+01  0.00000000000E+00 0.  1.
</event>
<event>
 7    1  0.6136531E-013  0.5052886E+02  0.7816164E-02  0.1300439E+00
        -11   -1    0    0    0    0  0.00000000000E+00  0.00000000000E+00  0.45593999997E+02  0.45594000000E+02  0.51100000000E-03 0.  1.
         11   -1    0    0    0    0 -0.00000000000E+00 -0.00000000000E+00 -0.45593999997E+02  0.45594000000E+02  0.51100000000E-03 0. -1.
    9900012    2    1    2    0    0 -0.27215464428E+02  0.16649299978E+02  0.25204864141E+02  0.50528857484E+02  0.29999992808E+02 0.  0.
         12    1    1    2    0    0  0.27215464428E+02 -0.16649299978E+02 -0.25204864141E+02  0.40659142516E+02  0.00000000000E+00 0. -1.
         11    1    3    3    0    0 -0.17208840700E+02  0.24568584253E+02  0.19245048539E+02  0.35638903238E+02  0.51100000000E-03 0. -1.
        -11    1    3    3    0    0 -0.63750098045E+01 -0.21514496831E+01  0.38651875082E+01  0.77594561975E+01  0.51100000000E-03 0.  1.
         12    1    3    3    0    0 -0.36316139231E+01 -0.57678345922E+01  0.20946280935E+01  0.71304980485E+01  0.00000000000E+00 0. -1.
</event>
<event>
 7    1  0.6136531E-013  0.5052878E+02  0.7816164E-02  0.1300439E+00
        -11   -1    0    0    0    0  0.00000000000E+00  0.00000000000E+00  0.45593999997E+02  0.45594000000E+02  0.51100000000E-03 0.  1.
         11   -1    0    0    0    0 -0.00000000000E+00 -0.00000000000E+00 -0.45593999997E+02  0.45594000000E+02  0.51100000000E-03 0. -1.
    9900012    2    1    2    0    0  0.13222322175E+02  0.22702371271E+02  0.31031344024E+02  0.50528784846E+02  0.29999772016E+02 0.  0.
         12    1    1    2    0    0 -0.13222322175E+02 -0.22702371271E+02 -0.31031344024E+02  0.40659215154E+02  0.00000000000E+00 0. -1.
         11    1    3    3    0    0  0.10857754237E+02  0.15570899473E+02  0.43342457453E+01  0.19471246080E+02  0.51100000000E-03 0. -1.
        -11    1    3    3    0    0 -0.32444528767E+01  0.62230247133E+01  0.23525966121E+02  0.24550429594E+02  0.51100000000E-03 0.  1.
         12    1    3    3    0    0  0.56090208152E+01  0.90844708384E+00  0.31711321575E+01  0.65071091715E+01  0.00000000000E+00 0. -1.
</event>
<event>
 7    1  0.6136531E-013  0.5052886E+02  0.7816164E-02  0.1300439E+00
        -11   -1    0    0    0    0  0.00000000000E+00  0.00000000000E+00  0.45593999997E+02  0.45594000000E+02  0.51100000000E-03 0.  1.
         11   -1    0    0    0    0 -0.00000000000E+00 -0.00000000000E+00 -0.45593999997E+02  0.45594000000E+02  0.51100000000E-03 0. -1.
    9900012    2    1    2    0    0 -0.19879173867E+02 -0.53974737558E+01  0.35054971748E+02  0.50528864239E+02  0.30000013340E+02 0.  0.
         12    1    1    2    0    0  0.19879173867E+02  0.53974737558E+01 -0.35054971748E+02  0.40659135761E+02  0.00000000000E+00 0. -1.
         11    1    3    3    0    0 -0.45173345585E+01 -0.44642904198E+01 -0.97575830917E+00  0.64255976379E+01  0.51100000000E-03 0. -1.
        -11    1    3    3    0    0 -0.12250335944E+02 -0.14949555066E+01  0.38281849810E+02  0.40221954799E+02  0.51100000000E-03 0.  1.
        -12    1    3    3    0    0 -0.31115033651E+01  0.56177217051E+00 -0.22511197526E+01  0.38813118019E+01  0.00000000000E+00 0.  1.
</event>
<event>
 7    1  0.6136531E-013  0.5052888E+02  0.7816164E-02  0.1300439E+00
        -11   -1    0    0    0    0  0.00000000000E+00  0.00000000000E+00  0.45593999997E+02  0.45594000000E+02  0.51100000000E-03 0.  1.
         11   -1    0    0    0    0 -0.00000000000E+00 -0.00000000000E+00 -0.45593999997E+02  0.45594000000E+02  0.51100000000E-03 0. -1.
    9900012    2    1    2    0    0 -0.51187086369E+01 -0.38821667926E+02  0.10947176330E+02  0.50528883577E+02  0.30000072122E+02 0.  0.
         12    1    1    2    0    0  0.51187086369E+01  0.38821667926E+02 -0.10947176330E+02  0.40659116423E+02  0.00000000000E+00 0. -1.
         11    1    3    3    0    0  0.63103526113E+01 -0.37398379277E+01 -0.12453425949E+01  0.74402833443E+01  0.51100000000E-03 0. -1.
        -11    1    3    3    0    0 -0.15151046156E+02 -0.32560805952E+02  0.13562884254E+02  0.38388958222E+02  0.51100000000E-03 0.  1.
        -12    1    3    3    0    0  0.37219849074E+01 -0.25210240468E+01 -0.13703653293E+01  0.46996420109E+01  0.00000000000E+00 0.  1.
</event>
<event>
 7    1  0.6136531E-013  0.5052884E+02  0.7816164E-02  0.1300439E+00
        -11   -1    0    0    0    0  0.00000000000E+00  0.00000000000E+00  0.45593999997E+02  0.45594000000E+02  0.51100000000E-03 0.  1.
         11   -1    0    0    0    0 -0.00000000000E+00 -0.00000000000E+00 -0.45593999997E+02  0.45594000000E+02  0.51100000000E-03 0. -1.
    9900012    2    1    2    0    0 -0.28971009163E+02 -0.28106885197E+02  0.48837160893E+01  0.50528842972E+02  0.29999948697E+02 0.  0.
         12    1    1    2    0    0  0.28971009163E+02  0.28106885197E+02 -0.48837160893E+01  0.40659157028E+02  0.00000000000E+00 0. -1.
         11    1    3    3    0    0 -0.17974404857E+02 -0.15274008911E+02 -0.65560374459E+01  0.24481752499E+02  0.51100000000E-03 0. -1.
        -11    1    3    3    0    0 -0.90420890599E+01  0.11898181636E+01  0.57928705547E+01  0.10804276531E+02  0.51100000000E-03 0.  1.
         12    1    3    3    0    0 -0.19545152467E+01 -0.14022694449E+02  0.56468829806E+01  0.15242813942E+02  0.00000000000E+00 0. -1.
</event>
<event>
 7    1  0.6136531E-013  0.5052886E+02  0.7816164E-02  0.1300439E+00
        -11   -1    0    0    0    0  0.00000000000E+00  0.00000000000E+00  0.45593999997E+02  0.45594000000E+02  0.51100000000E-03 0. -1.
         11   -1    0    0    0    0 -0.00000000000E+00 -0.00000000000E+00 -0.45593999997E+02  0.45594000000E+02  0.51100000000E-03 0.  1.
    9900012    2    1    2    0    0  0.12159496708E+02  0.33022936804E+02 -0.20366598755E+02  0.50528855147E+02  0.29999985704E+02 0.  0.
         12    1    1    2    0    0 -0.12159496708E+02 -0.33022936804E+02  0.20366598755E+02  0.40659144853E+02  0.00000000000E+00 0. -1.
         11    1    3    3    0    0  0.25417534062E+01  0.30837745448E+01  0.48392638023E+01  0.62760377812E+01  0.51100000000E-03 0. -1.
        -11    1    3    3    0    0  0.50352292629E+01  0.30305415198E+02 -0.25072884890E+02  0.39653767552E+02  0.51100000000E-03 0.  1.
        -12    1    3    3    0    0  0.45825140387E+01 -0.36625293887E+00 -0.13297766656E+00  0.45990498138E+01  0.00000000000E+00 0.  1.
</event>
<event>
 7    1  0.6136531E-013  0.5052887E+02  0.7816164E-02  0.1300439E+00
        -11   -1    0    0    0    0  0.00000000000E+00  0.00000000000E+00  0.45593999997E+02  0.45594000000E+02  0.51100000000E-03 0. -1.
         11   -1    0    0    0    0 -0.00000000000E+00 -0.00000000000E+00 -0.45593999997E+02  0.45594000000E+02  0.51100000000E-03 0.  1.
    9900012    2    1    2    0    0 -0.39080870854E+02  0.80979220656E+01  0.77636567329E+01  0.50528866040E+02  0.30000018816E+02 0.  0.
         12    1    1    2    0    0  0.39080870854E+02 -0.80979220656E+01 -0.77636567329E+01  0.40659133960E+02  0.00000000000E+00 0. -1.
         11    1    3    3    0    0 -0.59695185363E+01  0.73583865841E+01  0.38242068404E+01  0.10217904036E+02  0.51100000000E-03 0. -1.
        -11    1    3    3    0    0 -0.24132133748E+02 -0.99853154717E+01  0.20547356512E+01  0.26197105626E+02  0.51100000000E-03 0.  1.
        -12    1    3    3    0    0 -0.89792185699E+01  0.10724850953E+02  0.18847142412E+01  0.14113856378E+02  0.00000000000E+00 0.  1.
</event>
<event>
 7    1  0.6136531E-013  0.5052886E+02  0.7816164E-02  0.1300439E+00
        -11   -1    0    0    0    0  0.00000000000E+00  0.00000000000E+00  0.45593999997E+02  0.45594000000E+02  0.51100000000E-03 0.  1.
         11   -1    0    0    0    0 -0.00000000000E+00 -0.00000000000E+00 -0.45593999997E+02  0.45594000000E+02  0.51100000000E-03 0. -1.
    9900012    2    1    2    0    0  0.12394073637E+02  0.15329617360E+02  0.35560592763E+02  0.50528856042E+02  0.29999988425E+02 0.  0.
         12    1    1    2    0    0 -0.12394073637E+02 -0.15329617360E+02 -0.35560592763E+02  0.40659143958E+02  0.00000000000E+00 0. -1.
         11    1    3    3    0    0 -0.17883133801E+01  0.35992415012E+01  0.77467836643E+01  0.87272711389E+01  0.51100000000E-03 0. -1.
        -11    1    3    3    0    0  0.17219014468E+02  0.37421133829E+01  0.28193577094E+02  0.33247190279E+02  0.51100000000E-03 0.  1.
        -12    1    3    3    0    0 -0.30366274510E+01  0.79882624754E+01 -0.37976799525E+00  0.85543946240E+01  0.00000000000E+00 0.  1.
</event>
<event>
 7    1  0.6136531E-013  0.5052883E+02  0.7816164E-02  0.1300439E+00
        -11   -1    0    0    0    0  0.00000000000E+00  0.00000000000E+00  0.45593999997E+02  0.45594000000E+02  0.51100000000E-03 0.  1.
         11   -1    0    0    0    0 -0.00000000000E+00 -0.00000000000E+00 -0.45593999997E+02  0.45594000000E+02  0.51100000000E-03 0. -1.
    9900012    2    1    2    0    0 -0.18300864829E+02  0.29105539265E+02  0.21705154879E+02  0.50528833534E+02  0.29999920010E+02 0.  0.
         12    1    1    2    0    0  0.18300864829E+02 -0.29105539265E+02 -0.21705154879E+02  0.40659166466E+02  0.00000000000E+00 0. -1.
         11    1    3    3    0    0  0.37643857936E+01 -0.59373897693E+00  0.53320478238E+01  0.65539194862E+01  0.51100000000E-03 0. -1.
        -11    1    3    3    0    0 -0.17201455976E+02  0.30929100878E+02  0.16283990170E+02  0.38957254843E+02  0.51100000000E-03 0.  1.
        -12    1    3    3    0    0 -0.48637946466E+01 -0.12298226357E+01  0.89116885203E-01  0.50176592051E+01  0.00000000000E+00 0.  1.
</event>
<event>
 7    1  0.6136531E-013  0.5052887E+02  0.7816164E-02  0.1300439E+00
        -11   -1    0    0    0    0  0.00000000000E+00  0.00000000000E+00  0.45593999997E+02  0.45594000000E+02  0.51100000000E-03 0.  1.
         11   -1    0    0    0    0 -0.00000000000E+00 -0.00000000000E+00 -0.45593999997E+02  0.45594000000E+02  0.51100000000E-03 0. -1.
    9900012    2    1    2    0    0 -0.32254021645E+01 -0.31654201771E+02  0.25313504722E+02  0.50528865354E+02  0.30000016730E+02 0.  0.
         12    1    1    2    0    0  0.32254021645E+01  0.31654201771E+02 -0.25313504722E+02  0.40659134646E+02  0.00000000000E+00 0. -1.
         11    1    3    3    0    0  0.96251762438E+01 -0.10771996318E+02  0.10265180389E+02  0.17721564577E+02  0.51100000000E-03 0. -1.
        -11    1    3    3    0    0 -0.62425458551E+01 -0.17794071375E+02  0.35468848100E+01  0.19187984442E+02  0.51100000000E-03 0.  1.
         12    1    3    3    0    0 -0.66080325532E+01 -0.30881340782E+01  0.11501439523E+02  0.13619316335E+02  0.00000000000E+00 0. -1.
</event>
<event>
 7    1  0.6136531E-013  0.5052886E+02  0.7816164E-02  0.1300439E+00
        -11   -1    0    0    0    0  0.00000000000E+00  0.00000000000E+00  0.45593999997E+02  0.45594000000E+02  0.51100000000E-03 0.  1.
         11   -1    0    0    0    0 -0.00000000000E+00 -0.00000000000E+00 -0.45593999997E+02  0.45594000000E+02  0.51100000000E-03 0. -1.
    9900012    2    1    2    0    0 -0.22757099679E+02 -0.31275781599E+02  0.12534172010E+02  0.50528861194E+02  0.30000004085E+02 0.  0.
         12    1    1    2    0    0  0.22757099679E+02  0.31275781599E+02 -0.12534172010E+02  0.40659138806E+02  0.00000000000E+00 0. -1.
         11    1    3    3    0    0 -0.11971656800E+02 -0.24775786801E+02 -0.51852948851E+00  0.27521428946E+02  0.51100000000E-03 0.  1.
        -11    1    3    3    0    0 -0.53893736674E+01  0.42834873429E+01  0.45188898020E+01  0.82349242648E+01  0.51100000000E-03 0. -1.
         12    1    3    3    0    0 -0.53960692119E+01 -0.10783482141E+02  0.85338116969E+01  0.14772507983E+02  0.00000000000E+00 0. -1.
</event>
<event>
 7    1  0.6136531E-013  0.5052887E+02  0.7816164E-02  0.1300439E+00
        -11   -1    0    0    0    0  0.00000000000E+00  0.00000000000E+00  0.45593999997E+02  0.45594000000E+02  0.51100000000E-03 0. -1.
         11   -1    0    0    0    0 -0.00000000000E+00 -0.00000000000E+00 -0.45593999997E+02  0.45594000000E+02  0.51100000000E-03 0.  1.
    9900012    2    1    2    0    0 -0.25335792620E+02 -0.53701329861E+01 -0.31343649923E+02  0.50528866875E+02  0.30000021354E+02 0.  0.
         12    1    1    2    0    0  0.25335792620E+02  0.53701329861E+01  0.31343649923E+02  0.40659133125E+02  0.00000000000E+00 0. -1.
         11    1    3    3    0    0 -0.16775620328E+02 -0.56963266850E+01 -0.27671209652E+02  0.32856740845E+02  0.51100000000E-03 0. -1.
        -11    1    3    3    0    0  0.17012286456E+01  0.52478588135E+01 -0.29807164686E+01  0.62704762146E+01  0.51100000000E-03 0.  1.
         12    1    3    3    0    0 -0.10261400937E+02 -0.49216651146E+01 -0.69172380199E+00  0.11401649816E+02  0.00000000000E+00 0. -1.
</event>
<event>
 7    1  0.6136531E-013  0.5052886E+02  0.7816164E-02  0.1300439E+00
        -11   -1    0    0    0    0  0.00000000000E+00  0.00000000000E+00  0.45593999997E+02  0.45594000000E+02  0.51100000000E-03 0.  1.
         11   -1    0    0    0    0 -0.00000000000E+00 -0.00000000000E+00 -0.45593999997E+02  0.45594000000E+02  0.51100000000E-03 0. -1.
    9900012    2    1    2    0    0  0.12827377149E+01  0.27880858470E+02  0.29566498864E+02  0.50528861542E+02  0.30000005143E+02 0.  0.
         12    1    1    2    0    0 -0.12827377149E+01 -0.27880858470E+02 -0.29566498864E+02  0.40659138458E+02  0.00000000000E+00 0. -1.
         11    1    3    3    0    0 -0.22402659420E+01  0.95730906699E+01 -0.13422143993E+01  0.99229227660E+01  0.51100000000E-03 0. -1.
        -11    1    3    3    0    0  0.55554948422E+01  0.21492153094E+02  0.28501897100E+02  0.36126642608E+02  0.51100000000E-03 0.  1.
        -12    1    3    3    0    0 -0.20324911852E+01 -0.31843852939E+01  0.24068161635E+01  0.44792961682E+01  0.00000000000E+00 0.  1.
</event>
<event>
 7    1  0.6136531E-013  0.5052886E+02  0.7816164E-02  0.1300439E+00
        -11   -1    0    0    0    0  0.00000000000E+00  0.00000000000E+00  0.45593999997E+02  0.45594000000E+02  0.51100000000E-03 0.  1.
         11   -1    0    0    0    0 -0.00000000000E+00 -0.00000000000E+00 -0.45593999997E+02  0.45594000000E+02  0.51100000000E-03 0. -1.
    9900012    2    1    2    0    0  0.40422448391E+02  0.26725903634E+01 -0.34711339549E+01  0.50528857804E+02  0.29999993780E+02 0.  0.
         12    1    1    2    0    0 -0.40422448391E+02 -0.26725903634E+01  0.34711339549E+01  0.40659142196E+02  0.00000000000E+00 0. -1.
         11    1    3    3    0    0  0.19813571838E+01 -0.52585156743E+00  0.30484996845E+01  0.36736421639E+01  0.51100000000E-03 0. -1.
        -11    1    3    3    0    0  0.10383223668E+02  0.66823313789E+01 -0.12914669377E+02  0.17867668336E+02  0.51100000000E-03 0.  1.
        -12    1    3    3    0    0  0.28057867540E+02 -0.34838894481E+01  0.63950357380E+01  0.28987547303E+02  0.00000000000E+00 0.  1.
</event>
<event>
 7    1  0.6136531E-013  0.5052886E+02  0.7816164E-02  0.1300439E+00
        -11   -1    0    0    0    0  0.00000000000E+00  0.00000000000E+00  0.45593999997E+02  0.45594000000E+02  0.51100000000E-03 0.  1.
         11   -1    0    0    0    0 -0.00000000000E+00 -0.00000000000E+00 -0.45593999997E+02  0.45594000000E+02  0.51100000000E-03 0. -1.
    9900012    2    1    2    0    0  0.35506145824E+02 -0.24278669985E+01  0.19661762215E+02  0.50528858065E+02  0.29999994575E+02 0.  0.
         12    1    1    2    0    0 -0.35506145824E+02  0.24278669985E+01 -0.19661762215E+02  0.40659141935E+02  0.00000000000E+00 0. -1.
         11    1    3    3    0    0  0.80845608840E+00  0.39956430235E+01  0.18247860388E+00  0.40806939508E+01  0.51100000000E-03 0. -1.
        -11    1    3    3    0    0  0.81542439610E+01 -0.95103527963E+01  0.14679231725E+02  0.19298143672E+02  0.51100000000E-03 0.  1.
        -12    1    3    3    0    0  0.26543445775E+02  0.30868427743E+01  0.48000518867E+01  0.27150020443E+02  0.00000000000E+00 0.  1.
</event>
<event>
 7    1  0.6136531E-013  0.5052886E+02  0.7816164E-02  0.1300439E+00
        -11   -1    0    0    0    0  0.00000000000E+00  0.00000000000E+00  0.45593999997E+02  0.45594000000E+02  0.51100000000E-03 0. -1.
         11   -1    0    0    0    0 -0.00000000000E+00 -0.00000000000E+00 -0.45593999997E+02  0.45594000000E+02  0.51100000000E-03 0.  1.
    9900012    2    1    2    0    0 -0.76432431193E+01 -0.14118934359E+01 -0.39909310069E+02  0.50528860331E+02  0.30000001461E+02 0.  0.
         12    1    1    2    0    0  0.76432431193E+01  0.14118934359E+01  0.39909310069E+02  0.40659139669E+02  0.00000000000E+00 0. -1.
         11    1    3    3    0    0  0.57016536193E+00  0.75385058396E+01  0.99063219961E-01  0.75606859885E+01  0.51100000000E-03 0. -1.
        -11    1    3    3    0    0 -0.90243189458E+01 -0.43380238326E+01 -0.33400652376E+02  0.34869189302E+02  0.51100000000E-03 0.  1.
        -12    1    3    3    0    0  0.81091046448E+00 -0.46123754428E+01 -0.66077209132E+01  0.80989850397E+01  0.00000000000E+00 0.  1.
</event>
<event>
 7    1  0.6136531E-013  0.5052886E+02  0.7816164E-02  0.1300439E+00
        -11   -1    0    0    0    0  0.00000000000E+00  0.00000000000E+00  0.45593999997E+02  0.45594000000E+02  0.51100000000E-03 0.  1.
         11   -1    0    0    0    0 -0.00000000000E+00 -0.00000000000E+00 -0.45593999997E+02  0.45594000000E+02  0.51100000000E-03 0. -1.
    9900012    2    1    2    0    0 -0.15279372738E+02  0.87722892564E+01  0.36643603025E+02  0.50528856715E+02  0.29999990470E+02 0.  0.
         12    1    1    2    0    0  0.15279372738E+02 -0.87722892564E+01 -0.36643603025E+02  0.40659143285E+02  0.00000000000E+00 0. -1.
         11    1    3    3    0    0  0.19336421913E+00 -0.48443868989E+01 -0.66620278751E+00  0.48938022603E+01  0.51100000000E-03 0. -1.
        -11    1    3    3    0    0 -0.74277675624E+01  0.12350349047E+02  0.11105469369E+02  0.18194348097E+02  0.51100000000E-03 0.  1.
         12    1    3    3    0    0 -0.80449693943E+01  0.12663271087E+01  0.26204336444E+02  0.27440706357E+02  0.00000000000E+00 0. -1.
</event>
<event>
 7    1  0.6136531E-013  0.5052886E+02  0.7816164E-02  0.1300439E+00
        -11   -1    0    0    0    0  0.00000000000E+00  0.00000000000E+00  0.45593999997E+02  0.45594000000E+02  0.51100000000E-03 0.  1.
         11   -1    0    0    0    0 -0.00000000000E+00 -0.00000000000E+00 -0.45593999997E+02  0.45594000000E+02  0.51100000000E-03 0. -1.
    9900012    2    1    2    0    0  0.24822489368E+02 -0.16202353939E+02  0.27829714592E+02  0.50528864915E+02  0.30000015395E+02 0.  0.
         12    1    1    2    0    0 -0.24822489368E+02  0.16202353939E+02 -0.27829714592E+02  0.40659135085E+02  0.00000000000E+00 0. -1.
         11    1    3    3    0    0 -0.40599145056E+01 -0.36185959197E+01 -0.17858675246E+01  0.57241999703E+01  0.51100000000E-03 0. -1.
        -11    1    3    3    0    0  0.27989238167E+02 -0.88092329571E+01  0.23641403989E+02  0.37681773065E+02  0.51100000000E-03 0.  1.
        -12    1    3    3    0    0  0.89316570633E+00 -0.37745250622E+01  0.59741781279E+01  0.71228918796E+01  0.00000000000E+00 0.  1.
</event>
<event>
 7    1  0.6136531E-013  0.5052885E+02  0.7816164E-02  0.1300439E+00
        -11   -1    0    0    0    0  0.00000000000E+00  0.00000000000E+00  0.45593999997E+02  0.45594000000E+02  0.51100000000E-03 0. -1.
         11   -1    0    0    0    0 -0.00000000000E+00 -0.00000000000E+00 -0.45593999997E+02  0.45594000000E+02  0.51100000000E-03 0.  1.
    9900012    2    1    2    0    0  0.44022558647E+00  0.35568903182E+01 -0.40500876080E+02  0.50528853052E+02  0.29999979337E+02 0.  0.
         12    1    1    2    0    0 -0.44022558647E+00 -0.35568903182E+01  0.40500876080E+02  0.40659146948E+02  0.00000000000E+00 0. -1.
         11    1    3    3    0    0  0.95029850265E+01  0.70296114756E+01 -0.35348400610E+02  0.37272397130E+02  0.51100000000E-03 0. -1.
        -11    1    3    3    0    0 -0.73078393466E+01 -0.72821587134E+00 -0.22247867983E+00  0.73474016696E+01  0.51100000000E-03 0.  1.
         12    1    3    3    0    0 -0.17549200934E+01 -0.27445052860E+01 -0.49299967902E+01  0.59090542518E+01  0.00000000000E+00 0. -1.
</event>
<event>
 7    1  0.6136531E-013  0.5052887E+02  0.7816164E-02  0.1300439E+00
        -11   -1    0    0    0    0  0.00000000000E+00  0.00000000000E+00  0.45593999997E+02  0.45594000000E+02  0.51100000000E-03 0.  1.
         11   -1    0    0    0    0 -0.00000000000E+00 -0.00000000000E+00 -0.45593999997E+02  0.45594000000E+02  0.51100000000E-03 0. -1.
    9900012    2    1    2    0    0  0.23322021361E+02  0.11798856469E+02  0.31145381002E+02  0.50528874922E+02  0.30000045814E+02 0.  0.
         12    1    1    2    0    0 -0.23322021361E+02 -0.11798856469E+02 -0.31145381002E+02  0.40659125078E+02  0.00000000000E+00 0. -1.
         11    1    3    3    0    0  0.49209332718E+01  0.72058461038E+00  0.52622058828E+01  0.72405550520E+01  0.51100000000E-03 0. -1.
        -11    1    3    3    0    0  0.48054602153E+01  0.12469955433E+02  0.26423791783E+02  0.29610960957E+02  0.51100000000E-03 0.  1.
        -12    1    3    3    0    0  0.13595627874E+02 -0.13916835739E+01 -0.54061666405E+00  0.13677358913E+02  0.00000000000E+00 0.  1.
</event>
<event>
 7    1  0.6136531E-013  0.5052885E+02  0.7816164E-02  0.1300439E+00
        -11   -1    0    0    0    0  0.00000000000E+00  0.00000000000E+00  0.45593999997E+02  0.45594000000E+02  0.51100000000E-03 0.  1.
         11   -1    0    0    0    0 -0.00000000000E+00 -0.00000000000E+00 -0.45593999997E+02  0.45594000000E+02  0.51100000000E-03 0. -1.
    9900012    2    1    2    0    0 -0.39074728003E+02  0.23104767546E+01  0.10999706078E+02  0.50528853364E+02  0.29999980285E+02 0.  0.
         12    1    1    2    0    0  0.39074728003E+02 -0.23104767546E+01 -0.10999706078E+02  0.40659146636E+02  0.00000000000E+00 0. -1.
         11    1    3    3    0    0  0.33792336563E+01  0.19046395627E+01  0.28453803134E+00  0.38894516477E+01  0.51100000000E-03 0. -1.
        -11    1    3    3    0    0 -0.32096775251E+02 -0.45132349042E+01  0.24500111905E+01  0.32504996938E+02  0.51100000000E-03 0.  1.
        -12    1    3    3    0    0 -0.10357186409E+02  0.49190720961E+01  0.82651568563E+01  0.14134404779E+02  0.00000000000E+00 0.  1.
</event>
<event>
 7    1  0.6136531E-013  0.5052885E+02  0.7816164E-02  0.1300439E+00
        -11   -1    0    0    0    0  0.00000000000E+00  0.00000000000E+00  0.45593999997E+02  0.45594000000E+02  0.51100000000E-03 0.  1.
         11   -1    0    0    0    0 -0.00000000000E+00 -0.00000000000E+00 -0.45593999997E+02  0.45594000000E+02  0.51100000000E-03 0. -1.
    9900012    2    1    2    0    0 -0.93616481116E+01  0.11447724865E+02  0.37874467493E+02  0.50528854069E+02  0.29999982429E+02 0.  0.
         12    1    1    2    0    0  0.93616481116E+01 -0.11447724865E+02 -0.37874467493E+02  0.40659145931E+02  0.00000000000E+00 0. -1.
         11    1    3    3    0    0  0.41647637679E+01  0.16326234507E+02  0.20205041602E+02  0.26308456754E+02  0.51100000000E-03 0. -1.
        -11    1    3    3    0    0 -0.10278562499E+02 -0.31271379272E+01  0.17489751080E+02  0.20526062257E+02  0.51100000000E-03 0.  1.
         12    1    3    3    0    0 -0.32478493802E+01 -0.17513717151E+01  0.17967481130E+00  0.36943350578E+01  0.00000000000E+00 0. -1.
</event>
<event>
 7    1  0.6136531E-013  0.5052882E+02  0.7816164E-02  0.1300439E+00
        -11   -1    0    0    0    0  0.00000000000E+00  0.00000000000E+00  0.45593999997E+02  0.45594000000E+02  0.51100000000E-03 0.  1.
         11   -1    0    0    0    0 -0.00000000000E+00 -0.00000000000E+00 -0.45593999997E+02  0.45594000000E+02  0.51100000000E-03 0. -1.
    9900012    2    1    2    0    0  0.10377060576E+02 -0.24983741918E+02  0.30352890277E+02  0.50528822751E+02  0.29999887233E+02 0.  0.
         12    1    1    2    0    0 -0.10377060576E+02  0.24983741918E+02 -0.30352890277E+02  0.40659177249E+02  0.00000000000E+00 0. -1.
         11    1    3    3    0    0  0.57305864011E+01  0.25635532231E+01  0.15533379079E+02  0.16754023144E+02  0.51100000000E-03 0. -1.
        -11    1    3    3    0    0  0.25119404002E+01 -0.19385142567E+02  0.15994104961E+02  0.25256781083E+02  0.51100000000E-03 0.  1.
         12    1    3    3    0    0  0.21345337743E+01 -0.81621525737E+01 -0.11745937624E+01  0.85180185240E+01  0.00000000000E+00 0. -1.
</event>
<event>
 7    1  0.6136531E-013  0.5052886E+02  0.7816164E-02  0.1300439E+00
        -11   -1    0    0    0    0  0.00000000000E+00  0.00000000000E+00  0.45593999997E+02  0.45594000000E+02  0.51100000000E-03 0.  1.
         11   -1    0    0    0    0 -0.00000000000E+00 -0.00000000000E+00 -0.45593999997E+02  0.45594000000E+02  0.51100000000E-03 0. -1.
    9900012    2    1    2    0    0  0.27163970695E+02 -0.25593580784E+00  0.30252585272E+02  0.50528859297E+02  0.29999998319E+02 0.  0.
         12    1    1    2    0    0 -0.27163970695E+02  0.25593580784E+00 -0.30252585272E+02  0.40659140703E+02  0.00000000000E+00 0. -1.
         11    1    3    3    0    0  0.93427401925E+01  0.13598815151E+01 -0.22609747236E+01  0.97081449825E+01  0.51100000000E-03 0. -1.
        -11    1    3    3    0    0  0.23427585210E+01 -0.72082066787E+01  0.14886494457E+02  0.16704923780E+02  0.51100000000E-03 0.  1.
        -12    1    3    3    0    0  0.15478471981E+02  0.55923893557E+01  0.17627065539E+02  0.24115790534E+02  0.00000000000E+00 0.  1.
</event>
<event>
 7    1  0.6136531E-013  0.5052886E+02  0.7816164E-02  0.1300439E+00
        -11   -1    0    0    0    0  0.00000000000E+00  0.00000000000E+00  0.45593999997E+02  0.45594000000E+02  0.51100000000E-03 0.  1.
         11   -1    0    0    0    0 -0.00000000000E+00 -0.00000000000E+00 -0.45593999997E+02  0.45594000000E+02  0.51100000000E-03 0. -1.
    9900012    2    1    2    0    0 -0.34348514372E+02 -0.21491626257E+02  0.33845249761E+01  0.50528862674E+02  0.30000008584E+02 0.  0.
         12    1    1    2    0    0  0.34348514372E+02  0.21491626257E+02 -0.33845249761E+01  0.40659137326E+02  0.00000000000E+00 0. -1.
         11    1    3    3    0    0  0.36315294263E+01 -0.13728113141E+01 -0.37561000223E+01  0.54019352566E+01  0.51100000000E-03 0. -1.
        -11    1    3    3    0    0 -0.37295215728E+02 -0.20287987541E+02  0.87689295617E+01  0.43352389561E+02  0.51100000000E-03 0.  1.
        -12    1    3    3    0    0 -0.68482807034E+00  0.16917259831E+00 -0.16283045634E+01  0.17745378567E+01  0.00000000000E+00 0.  1.
</event>
<event>
 7    1  0.6136531E-013  0.5052886E+02  0.7816164E-02  0.1300439E+00
        -11   -1    0    0    0    0  0.00000000000E+00  0.00000000000E+00  0.45593999997E+02  0.45594000000E+02  0.51100000000E-03 0.  1.
         11   -1    0    0    0    0 -0.00000000000E+00 -0.00000000000E+00 -0.45593999997E+02  0.45594000000E+02  0.51100000000E-03 0. -1.
    9900012    2    1    2    0    0  0.24096882288E+02  0.13244877267E+02  0.29951283518E+02  0.50528857188E+02  0.29999991908E+02 0.  0.
         12    1    1    2    0    0 -0.24096882288E+02 -0.13244877267E+02 -0.29951283518E+02  0.40659142812E+02  0.00000000000E+00 0. -1.
         11    1    3    3    0    0 -0.21181646040E+01 -0.23193238658E+01  0.36212563702E+01  0.47936815125E+01  0.51100000000E-03 0. -1.
        -11    1    3    3    0    0  0.23592557665E+02  0.22751726601E+01  0.14768150193E+02  0.27926393397E+02  0.51100000000E-03 0.  1.
        -12    1    3    3    0    0  0.26224892273E+01  0.13289028472E+02  0.11561876956E+02  0.17808782278E+02  0.00000000000E+00 0.  1.
</event>
<event>
 7    1  0.6136531E-013  0.5052886E+02  0.7816164E-02  0.1300439E+00
        -11   -1    0    0    0    0  0.00000000000E+00  0.00000000000E+00  0.45593999997E+02  0.45594000000E+02  0.51100000000E-03 0.  1.
         11   -1    0    0    0    0 -0.00000000000E+00 -0.00000000000E+00 -0.45593999997E+02  0.45594000000E+02  0.51100000000E-03 0. -1.
    9900012    2    1    2    0    0 -0.24663096366E+00 -0.40633624050E+02 -0.14190060215E+01  0.50528858244E+02  0.29999995119E+02 0.  0.
         12    1    1    2    0    0  0.24663096366E+00  0.40633624050E+02  0.14190060215E+01  0.40659141756E+02  0.00000000000E+00 0. -1.
         11    1    3    3    0    0 -0.12399182354E+02 -0.18360682701E+02 -0.13013471325E+01  0.22193420126E+02  0.51100000000E-03 0.  1.
        -11    1    3    3    0    0  0.11506752571E+02 -0.16823627135E+02  0.48300355860E+01  0.20946814286E+02  0.51100000000E-03 0. -1.
         12    1    3    3    0    0  0.64579881941E+00 -0.54493142138E+01 -0.49476944750E+01  0.73886238322E+01  0.00000000000E+00 0. -1.
</event>
<event>
 7    1  0.6136531E-013  0.5052886E+02  0.7816164E-02  0.1300439E+00
        -11   -1    0    0    0    0  0.00000000000E+00  0.00000000000E+00  0.45593999997E+02  0.45594000000E+02  0.51100000000E-03 0.  1.
         11   -1    0    0    0    0 -0.00000000000E+00 -0.00000000000E+00 -0.45593999997E+02  0.45594000000E+02  0.51100000000E-03 0. -1.
    9900012    2    1    2    0    0 -0.36186751769E+02 -0.17984242482E+02 -0.45001598712E+01  0.50528863018E+02  0.30000009630E+02 0.  0.
         12    1    1    2    0    0  0.36186751769E+02  0.17984242482E+02  0.45001598712E+01  0.40659136982E+02  0.00000000000E+00 0. -1.
         11    1    3    3    0    0 -0.83405425597E+01  0.67703136187E+01  0.19558900711E+01  0.10919125556E+02  0.51100000000E-03 0. -1.
        -11    1    3    3    0    0 -0.25516402558E+02 -0.17034938984E+02 -0.71944390622E+01  0.31512472124E+02  0.51100000000E-03 0.  1.
        -12    1    3    3    0    0 -0.23298066515E+01 -0.77196171165E+01  0.73838911985E+00  0.80972653379E+01  0.00000000000E+00 0.  1.
</event>
<event>
 7    1  0.6136531E-013  0.5052880E+02  0.7816164E-02  0.1300439E+00
        -11   -1    0    0    0    0  0.00000000000E+00  0.00000000000E+00  0.45593999997E+02  0.45594000000E+02  0.51100000000E-03 0. -1.
         11   -1    0    0    0    0 -0.00000000000E+00 -0.00000000000E+00 -0.45593999997E+02  0.45594000000E+02  0.51100000000E-03 0.  1.
    9900012    2    1    2    0    0  0.30972251576E+02 -0.14934306687E+01 -0.26299432868E+02  0.50528795974E+02  0.29999805842E+02 0.  0.
         12    1    1    2    0    0 -0.30972251576E+02  0.14934306687E+01  0.26299432868E+02  0.40659204026E+02  0.00000000000E+00 0. -1.
         11    1    3    3    0    0 -0.28507810557E+01  0.19067740499E+01 -0.84850057776E+01  0.91519431386E+01  0.51100000000E-03 0. -1.
        -11    1    3    3    0    0  0.13961555269E+02 -0.20274036194E+01  0.78747614760E+00  0.14129950810E+02  0.51100000000E-03 0.  1.
         12    1    3    3    0    0  0.19861477363E+02 -0.13728010992E+01 -0.18601903238E+02  0.27246902025E+02  0.00000000000E+00 0. -1.
</event>
<event>
 7    1  0.6136531E-013  0.5052887E+02  0.7816164E-02  0.1300439E+00
        -11   -1    0    0    0    0  0.00000000000E+00  0.00000000000E+00  0.45593999997E+02  0.45594000000E+02  0.51100000000E-03 0.  1.
         11   -1    0    0    0    0 -0.00000000000E+00 -0.00000000000E+00 -0.45593999997E+02  0.45594000000E+02  0.51100000000E-03 0. -1.
    9900012    2    1    2    0    0  0.11935255871E+02  0.80883571943E+01  0.38017013855E+02  0.50528865758E+02  0.30000017959E+02 0.  0.
         12    1    1    2    0    0 -0.11935255871E+02 -0.80883571943E+01 -0.38017013855E+02  0.40659134242E+02  0.00000000000E+00 0. -1.
         11    1    3    3    0    0  0.21679296966E+01 -0.55261426204E+01 -0.23664833145E+01  0.63904941099E+01  0.51100000000E-03 0. -1.
        -11    1    3    3    0    0  0.16434686754E+01  0.73860426743E+01  0.16385519679E+02  0.18048265043E+02  0.51100000000E-03 0.  1.
         12    1    3    3    0    0  0.81238574995E+01  0.62284571404E+01  0.23997977491E+02  0.26090106605E+02  0.00000000000E+00 0. -1.
</event>
<event>
 7    1  0.6136531E-013  0.5052886E+02  0.7816164E-02  0.1300439E+00
        -11   -1    0    0    0    0  0.00000000000E+00  0.00000000000E+00  0.45593999997E+02  0.45594000000E+02  0.51100000000E-03 0.  1.
         11   -1    0    0    0    0 -0.00000000000E+00 -0.00000000000E+00 -0.45593999997E+02  0.45594000000E+02  0.51100000000E-03 0. -1.
    9900012    2    1    2    0    0  0.30889798624E+02 -0.23526384178E+02 -0.12062129054E+02  0.50528863649E+02  0.30000011548E+02 0.  0.
         12    1    1    2    0    0 -0.30889798624E+02  0.23526384178E+02  0.12062129054E+02  0.40659136351E+02  0.00000000000E+00 0. -1.
         11    1    3    3    0    0  0.12481077981E+02  0.28498701969E+01 -0.86375288091E+01  0.15443638558E+02  0.51100000000E-03 0. -1.
        -11    1    3    3    0    0  0.10940961481E+02 -0.24993651031E+02 -0.33661552867E+01  0.27490329785E+02  0.51100000000E-03 0.  1.
        -12    1    3    3    0    0  0.74677591619E+01 -0.13826033430E+01 -0.58444958202E-01  0.75948953065E+01  0.00000000000E+00 0.  1.
</event>
<event>
 7    1  0.6136531E-013  0.5052885E+02  0.7816164E-02  0.1300439E+00
        -11   -1    0    0    0    0  0.00000000000E+00  0.00000000000E+00  0.45593999997E+02  0.45594000000E+02  0.51100000000E-03 0.  1.
         11   -1    0    0    0    0 -0.00000000000E+00 -0.00000000000E+00 -0.45593999997E+02  0.45594000000E+02  0.51100000000E-03 0. -1.
    9900012    2    1    2    0    0  0.13186254138E+02  0.25664660243E+02  0.28646363640E+02  0.50528853017E+02  0.29999979231E+02 0.  0.
         12    1    1    2    0    0 -0.13186254138E+02 -0.25664660243E+02 -0.28646363640E+02  0.40659146983E+02  0.00000000000E+00 0. -1.
         11    1    3    3    0    0  0.13815210006E+01 -0.34391663620E+01  0.51070875780E+01  0.63102146818E+01  0.51100000000E-03 0. -1.
        -11    1    3    3    0    0  0.76982264644E+01  0.20853538213E+02  0.39602450666E+01  0.22579111762E+02  0.51100000000E-03 0.  1.
        -12    1    3    3    0    0  0.41065066728E+01  0.82502883919E+01  0.19579030995E+02  0.21639526573E+02  0.00000000000E+00 0.  1.
</event>
<event>
 7    1  0.6136531E-013  0.5052886E+02  0.7816164E-02  0.1300439E+00
        -11   -1    0    0    0    0  0.00000000000E+00  0.00000000000E+00  0.45593999997E+02  0.45594000000E+02  0.51100000000E-03 0.  1.
         11   -1    0    0    0    0 -0.00000000000E+00 -0.00000000000E+00 -0.45593999997E+02  0.45594000000E+02  0.51100000000E-03 0. -1.
    9900012    2    1    2    0    0  0.33715734930E+02 -0.20374989779E+02  0.10063545193E+02  0.50528856721E+02  0.29999990488E+02 0.  0.
         12    1    1    2    0    0 -0.33715734930E+02  0.20374989779E+02 -0.10063545193E+02  0.40659143279E+02  0.00000000000E+00 0. -1.
         11    1    3    3    0    0  0.51772949564E+01  0.60751589888E+00  0.16610285735E+01  0.54710579248E+01  0.51100000000E-03 0. -1.
        -11    1    3    3    0    0 -0.26922624820E+00 -0.11250799682E+02 -0.43759137446E+01  0.12074833233E+02  0.51100000000E-03 0.  1.
        -12    1    3    3    0    0  0.28807666222E+02 -0.97317059959E+01  0.12778430364E+02  0.32982965563E+02  0.00000000000E+00 0.  1.
</event>
<event>
 7    1  0.6136531E-013  0.5052881E+02  0.7816164E-02  0.1300439E+00
        -11   -1    0    0    0    0  0.00000000000E+00  0.00000000000E+00  0.45593999997E+02  0.45594000000E+02  0.51100000000E-03 0. -1.
         11   -1    0    0    0    0 -0.00000000000E+00 -0.00000000000E+00 -0.45593999997E+02  0.45594000000E+02  0.51100000000E-03 0.  1.
    9900012    2    1    2    0    0 -0.21488170987E+02  0.33720366507E+02 -0.73732432652E+01  0.50528814987E+02  0.29999863633E+02 0.  0.
         12    1    1    2    0    0  0.21488170987E+02 -0.33720366507E+02  0.73732432652E+01  0.40659185013E+02  0.00000000000E+00 0. -1.
         11    1    3    3    0    0 -0.13383438162E+02  0.62466672904E+00 -0.56298699941E+01  0.14532792642E+02  0.51100000000E-03 0. -1.
        -11    1    3    3    0    0 -0.58026431606E+01  0.21709397004E+02 -0.65764259616E+01  0.23414054852E+02  0.51100000000E-03 0.  1.
         12    1    3    3    0    0 -0.23020896639E+01  0.11386302773E+02  0.48330526905E+01  0.12581967492E+02  0.00000000000E+00 0. -1.
</event>
<event>
 7    1  0.6136531E-013  0.5052885E+02  0.7816164E-02  0.1300439E+00
        -11   -1    0    0    0    0  0.00000000000E+00  0.00000000000E+00  0.45593999997E+02  0.45594000000E+02  0.51100000000E-03 0.  1.
         11   -1    0    0    0    0 -0.00000000000E+00 -0.00000000000E+00 -0.45593999997E+02  0.45594000000E+02  0.51100000000E-03 0. -1.
    9900012    2    1    2    0    0 -0.92584011534E+01  0.37397033329E+02  0.12996539328E+02  0.50528854310E+02  0.29999983162E+02 0.  0.
         12    1    1    2    0    0  0.92584011534E+01 -0.37397033329E+02 -0.12996539328E+02  0.40659145690E+02  0.00000000000E+00 0. -1.
         11    1    3    3    0    0 -0.13835568192E+02  0.23315592711E+02  0.22392855782E+01  0.27203937414E+02  0.51100000000E-03 0. -1.
        -11    1    3    3    0    0  0.97988668195E+01  0.84256686738E+01  0.76936887839E+01  0.15040030948E+02  0.51100000000E-03 0.  1.
        -12    1    3    3    0    0 -0.52216997806E+01  0.56557719436E+01  0.30635649661E+01  0.82848859484E+01  0.00000000000E+00 0.  1.
</event>
<event>
 7    1  0.6136531E-013  0.5052887E+02  0.7816164E-02  0.1300439E+00
        -11   -1    0    0    0    0  0.00000000000E+00  0.00000000000E+00  0.45593999997E+02  0.45594000000E+02  0.51100000000E-03 0.  1.
         11   -1    0    0    0    0 -0.00000000000E+00 -0.00000000000E+00 -0.45593999997E+02  0.45594000000E+02  0.51100000000E-03 0. -1.
    9900012    2    1    2    0    0  0.31123340220E+02  0.64220927940E+01  0.25362558572E+02  0.50528868681E+02  0.30000026842E+02 0.  0.
         12    1    1    2    0    0 -0.31123340220E+02 -0.64220927940E+01 -0.25362558572E+02  0.40659131319E+02  0.00000000000E+00 0. -1.
         11    1    3    3    0    0 -0.21972364036E+01 -0.58356161262E+00  0.12279211276E+02  0.12487891006E+02  0.51100000000E-03 0. -1.
        -11    1    3    3    0    0  0.28577335338E+02  0.89687429419E+01  0.13574355949E+02  0.32884123596E+02  0.51100000000E-03 0.  1.
         12    1    3    3    0    0  0.47432412858E+01 -0.19630885353E+01 -0.49100865225E+00  0.51568540787E+01  0.00000000000E+00 0. -1.
</event>
<event>
 7    1  0.6136531E-013  0.5052885E+02  0.7816164E-02  0.1300439E+00
        -11   -1    0    0    0    0  0.00000000000E+00  0.00000000000E+00  0.45593999997E+02  0.45594000000E+02  0.51100000000E-03 0.  1.
         11   -1    0    0    0    0 -0.00000000000E+00 -0.00000000000E+00 -0.45593999997E+02  0.45594000000E+02  0.51100000000E-03 0. -1.
    9900012    2    1    2    0    0  0.11162586075E+02  0.38495794868E+02  0.68291047430E+01  0.50528853157E+02  0.29999979657E+02 0.  0.
         12    1    1    2    0    0 -0.11162586075E+02 -0.38495794868E+02 -0.68291047430E+01  0.40659146843E+02  0.00000000000E+00 0. -1.
         11    1    3    3    0    0 -0.23562794665E+00  0.55498587112E+01 -0.16123562521E+01  0.57841287320E+01  0.51100000000E-03 0. -1.
        -11    1    3    3    0    0  0.18193676695E+02  0.32317374288E+02  0.77255865710E+01  0.37882809303E+02  0.51100000000E-03 0.  1.
        -12    1    3    3    0    0 -0.67954626730E+01  0.62856186877E+00  0.71587442403E+00  0.68619151229E+01  0.00000000000E+00 0.  1.
</event>
<event>
 7    1  0.6136531E-013  0.5052886E+02  0.7816164E-02  0.1300439E+00
        -11   -1    0    0    0    0  0.00000000000E+00  0.00000000000E+00  0.45593999997E+02  0.45594000000E+02  0.51100000000E-03 0. -1.
         11   -1    0    0    0    0 -0.00000000000E+00 -0.00000000000E+00 -0.45593999997E+02  0.45594000000E+02  0.51100000000E-03 0.  1.
    9900012    2    1    2    0    0 -0.34452544686E+02  0.21141644776E+02 -0.43839301250E+01  0.50528858070E+02  0.29999994589E+02 0.  0.
         12    1    1    2    0    0  0.34452544686E+02 -0.21141644776E+02  0.43839301250E+01  0.40659141930E+02  0.00000000000E+00 0. -1.
         11    1    3    3    0    0 -0.19536552865E+02  0.14195240032E+02 -0.15030360402E+02  0.28444568400E+02  0.51100000000E-03 0.  1.
        -11    1    3    3    0    0 -0.14660940707E+02  0.54026359711E+01  0.52773837738E+01  0.16491890056E+02  0.51100000000E-03 0. -1.
         12    1    3    3    0    0 -0.25505111414E+00  0.15437687731E+01  0.53690465029E+01  0.55923996143E+01  0.00000000000E+00 0. -1.
</event>
<event>
 7    1  0.6136531E-013  0.5052883E+02  0.7816164E-02  0.1300439E+00
        -11   -1    0    0    0    0  0.00000000000E+00  0.00000000000E+00  0.45593999997E+02  0.45594000000E+02  0.51100000000E-03 0.  1.
         11   -1    0    0    0    0 -0.00000000000E+00 -0.00000000000E+00 -0.45593999997E+02  0.45594000000E+02  0.51100000000E-03 0. -1.
    9900012    2    1    2    0    0  0.30730090837E+02  0.68602946729E+01  0.25724820079E+02  0.50528825219E+02  0.29999894734E+02 0.  0.
         12    1    1    2    0    0 -0.30730090837E+02 -0.68602946729E+01 -0.25724820079E+02  0.40659174781E+02  0.00000000000E+00 0. -1.
         11    1    3    3    0    0  0.14588880886E+02 -0.43100200507E+01  0.11821293556E+01  0.15258084690E+02  0.51100000000E-03 0. -1.
        -11    1    3    3    0    0  0.10280287868E+02  0.12477268574E+02  0.87672224949E+01  0.18391050548E+02  0.51100000000E-03 0.  1.
         12    1    3    3    0    0  0.58609220828E+01 -0.13069538502E+01  0.15775468228E+02  0.16879689981E+02  0.00000000000E+00 0. -1.
</event>
<event>
 7    1  0.6136531E-013  0.5052886E+02  0.7816164E-02  0.1300439E+00
        -11   -1    0    0    0    0  0.00000000000E+00  0.00000000000E+00  0.45593999997E+02  0.45594000000E+02  0.51100000000E-03 0.  1.
         11   -1    0    0    0    0 -0.00000000000E+00 -0.00000000000E+00 -0.45593999997E+02  0.45594000000E+02  0.51100000000E-03 0. -1.
    9900012    2    1    2    0    0 -0.15621732008E+02  0.20874448435E+00  0.37537760136E+02  0.50528861774E+02  0.30000005849E+02 0.  0.
         12    1    1    2    0    0  0.15621732008E+02 -0.20874448435E+00 -0.37537760136E+02  0.40659138226E+02  0.00000000000E+00 0. -1.
         11    1    3    3    0    0  0.59099355349E+01 -0.41213636902E+01  0.17772113592E+02  0.19177095674E+02  0.51100000000E-03 0. -1.
        -11    1    3    3    0    0 -0.33397433884E+01  0.46540037713E+01  0.24361077165E+01  0.62248098823E+01  0.51100000000E-03 0.  1.
         12    1    3    3    0    0 -0.18191924155E+02 -0.32389559675E+00  0.17329538828E+02  0.25126956218E+02  0.00000000000E+00 0. -1.
</event>
<event>
 7    1  0.6136531E-013  0.5052885E+02  0.7816164E-02  0.1300439E+00
        -11   -1    0    0    0    0  0.00000000000E+00  0.00000000000E+00  0.45593999997E+02  0.45594000000E+02  0.51100000000E-03 0.  1.
         11   -1    0    0    0    0 -0.00000000000E+00 -0.00000000000E+00 -0.45593999997E+02  0.45594000000E+02  0.51100000000E-03 0. -1.
    9900012    2    1    2    0    0 -0.66670143040E+01  0.40017091333E+02  0.27111047962E+01  0.50528846446E+02  0.29999959257E+02 0.  0.
         12    1    1    2    0    0  0.66670143040E+01 -0.40017091333E+02 -0.27111047962E+01  0.40659153554E+02  0.00000000000E+00 0. -1.
         11    1    3    3    0    0  0.72718569897E+01  0.51974723088E+01 -0.40100936787E+01  0.97966562690E+01  0.51100000000E-03 0. -1.
        -11    1    3    3    0    0 -0.15577199499E+02  0.32443748917E+02  0.31304480362E+01  0.36125416166E+02  0.51100000000E-03 0.  1.
        -12    1    3    3    0    0  0.16383282051E+01  0.23758701078E+01  0.35907504387E+01  0.46067740111E+01  0.00000000000E+00 0.  1.
</event>
<event>
 7    1  0.6136531E-013  0.5052884E+02  0.7816164E-02  0.1300439E+00
        -11   -1    0    0    0    0  0.00000000000E+00  0.00000000000E+00  0.45593999997E+02  0.45594000000E+02  0.51100000000E-03 0. -1.
         11   -1    0    0    0    0 -0.00000000000E+00 -0.00000000000E+00 -0.45593999997E+02  0.45594000000E+02  0.51100000000E-03 0.  1.
    9900012    2    1    2    0    0 -0.67082933335E+00  0.10538195767E+02 -0.39264026051E+02  0.50528839608E+02  0.29999938474E+02 0.  0.
         12    1    1    2    0    0  0.67082933335E+00 -0.10538195767E+02  0.39264026051E+02  0.40659160392E+02  0.00000000000E+00 0. -1.
         11    1    3    3    0    0  0.17803826372E+01  0.16585639917E+02 -0.21893987886E+02  0.27524533050E+02  0.51100000000E-03 0. -1.
        -11    1    3    3    0    0 -0.13433112397E+01 -0.44935179579E+01  0.77981172609E+00  0.47543974712E+01  0.51100000000E-03 0.  1.
         12    1    3    3    0    0 -0.11079007309E+01 -0.15539261920E+01 -0.18149849891E+02  0.18249909087E+02  0.00000000000E+00 0. -1.
</event>
<event>
 7    1  0.6136531E-013  0.5052886E+02  0.7816164E-02  0.1300439E+00
        -11   -1    0    0    0    0  0.00000000000E+00  0.00000000000E+00  0.45593999997E+02  0.45594000000E+02  0.51100000000E-03 0. -1.
         11   -1    0    0    0    0 -0.00000000000E+00 -0.00000000000E+00 -0.45593999997E+02  0.45594000000E+02  0.51100000000E-03 0.  1.
    9900012    2    1    2    0    0 -0.74030435663E+01  0.36533047908E+02 -0.16238742580E+02  0.50528863216E+02  0.30000010230E+02 0.  0.
         12    1    1    2    0    0  0.74030435663E+01 -0.36533047908E+02  0.16238742580E+02  0.40659136784E+02  0.00000000000E+00 0. -1.
         11    1    3    3    0    0 -0.57668891291E+00 -0.11525268754E+01 -0.24145124430E+01  0.27369250810E+01  0.51100000000E-03 0. -1.
        -11    1    3    3    0    0  0.89007129201E+00  0.16959865544E+02  0.60796149870E+01  0.18038597086E+02  0.51100000000E-03 0.  1.
        -12    1    3    3    0    0 -0.77164259454E+01  0.20725709239E+02 -0.19903845124E+02  0.29753341049E+02  0.00000000000E+00 0.  1.
</event>
<event>
 7    1  0.6136531E-013  0.5052886E+02  0.7816164E-02  0.1300439E+00
        -11   -1    0    0    0    0  0.00000000000E+00  0.00000000000E+00  0.45593999997E+02  0.45594000000E+02  0.51100000000E-03 0. -1.
         11   -1    0    0    0    0 -0.00000000000E+00 -0.00000000000E+00 -0.45593999997E+02  0.45594000000E+02  0.51100000000E-03 0.  1.
    9900012    2    1    2    0    0  0.32414777444E+02  0.19760758838E+02  0.14558859597E+02  0.50528858600E+02  0.29999996200E+02 0.  0.
         12    1    1    2    0    0 -0.32414777444E+02 -0.19760758838E+02 -0.14558859597E+02  0.40659141400E+02  0.00000000000E+00 0. -1.
         11    1    3    3    0    0  0.24435212755E+02  0.24844016948E+01  0.39936535945E+00  0.24564432970E+02  0.51100000000E-03 0. -1.
        -11    1    3    3    0    0  0.33627381919E+01  0.10743653423E+02  0.20369872826E+01  0.11440428946E+02  0.51100000000E-03 0.  1.
         12    1    3    3    0    0  0.46168264974E+01  0.65327037204E+01  0.12122506955E+02  0.14523996684E+02  0.00000000000E+00 0. -1.
</event>
<event>
 7    1  0.6136531E-013  0.5052886E+02  0.7816164E-02  0.1300439E+00
        -11   -1    0    0    0    0  0.00000000000E+00  0.00000000000E+00  0.45593999997E+02  0.45594000000E+02  0.51100000000E-03 0.  1.
         11   -1    0    0    0    0 -0.00000000000E+00 -0.00000000000E+00 -0.45593999997E+02  0.45594000000E+02  0.51100000000E-03 0. -1.
    9900012    2    1    2    0    0 -0.79971084421E+00 -0.27658320909E+02  0.29791664437E+02  0.50528861754E+02  0.30000005789E+02 0.  0.
         12    1    1    2    0    0  0.79971084421E+00  0.27658320909E+02 -0.29791664437E+02  0.40659138246E+02  0.00000000000E+00 0. -1.
         11    1    3    3    0    0  0.51116109401E+00 -0.10551876456E+02  0.21071269385E+01  0.10772342670E+02  0.51100000000E-03 0. -1.
        -11    1    3    3    0    0  0.33604618215E+01 -0.11441066615E+02  0.29814738637E+02  0.32110891442E+02  0.51100000000E-03 0.  1.
        -12    1    3    3    0    0 -0.46713337597E+01 -0.56653778386E+01 -0.21302011392E+01  0.76456276421E+01  0.00000000000E+00 0.  1.
</event>
<event>
 7    1  0.6136531E-013  0.5052886E+02  0.7816164E-02  0.1300439E+00
        -11   -1    0    0    0    0  0.00000000000E+00  0.00000000000E+00  0.45593999997E+02  0.45594000000E+02  0.51100000000E-03 0.  1.
         11   -1    0    0    0    0 -0.00000000000E+00 -0.00000000000E+00 -0.45593999997E+02  0.45594000000E+02  0.51100000000E-03 0. -1.
    9900012    2    1    2    0    0  0.52630810116E+01 -0.22202351571E+01  0.40255879626E+02  0.50528864368E+02  0.30000013732E+02 0.  0.
         12    1    1    2    0    0 -0.52630810116E+01  0.22202351571E+01 -0.40255879626E+02  0.40659135632E+02  0.00000000000E+00 0. -1.
         11    1    3    3    0    0 -0.43044503597E+01 -0.32925825633E+01 -0.14106296282E+01  0.55999347358E+01  0.51100000000E-03 0. -1.
        -11    1    3    3    0    0  0.82060036340E+01 -0.25212961410E+01  0.39689497530E+02  0.40607285606E+02  0.51100000000E-03 0.  1.
        -12    1    3    3    0    0  0.13615277373E+01  0.35936435472E+01  0.19770117245E+01  0.43216440254E+01  0.00000000000E+00 0.  1.
</event>
<event>
 7    1  0.6136531E-013  0.5052883E+02  0.7816164E-02  0.1300439E+00
        -11   -1    0    0    0    0  0.00000000000E+00  0.00000000000E+00  0.45593999997E+02  0.45594000000E+02  0.51100000000E-03 0.  1.
         11   -1    0    0    0    0 -0.00000000000E+00 -0.00000000000E+00 -0.45593999997E+02  0.45594000000E+02  0.51100000000E-03 0. -1.
    9900012    2    1    2    0    0  0.11114051724E+02  0.23978974956E+01  0.39037114256E+02  0.50528827018E+02  0.29999900205E+02 0.  0.
         12    1    1    2    0    0 -0.11114051724E+02 -0.23978974956E+01 -0.39037114256E+02  0.40659172982E+02  0.00000000000E+00 0. -1.
         11    1    3    3    0    0  0.76734651591E+01  0.91985384082E+00 -0.19455302426E+01  0.79695223711E+01  0.51100000000E-03 0. -1.
        -11    1    3    3    0    0 -0.36289248671E+01  0.15906190099E+01  0.20800335288E+02  0.21174350353E+02  0.51100000000E-03 0.  1.
         12    1    3    3    0    0  0.70695114319E+01 -0.11257535512E+00  0.20182309210E+02  0.21384954294E+02  0.00000000000E+00 0. -1.
</event>
<event>
 7    1  0.6136531E-013  0.5052885E+02  0.7816164E-02  0.1300439E+00
        -11   -1    0    0    0    0  0.00000000000E+00  0.00000000000E+00  0.45593999997E+02  0.45594000000E+02  0.51100000000E-03 0.  1.
         11   -1    0    0    0    0 -0.00000000000E+00 -0.00000000000E+00 -0.45593999997E+02  0.45594000000E+02  0.51100000000E-03 0. -1.
    9900012    2    1    2    0    0  0.77319142736E+01 -0.39436358602E+02  0.61771799617E+01  0.50528850595E+02  0.29999971867E+02 0.  0.
         12    1    1    2    0    0 -0.77319142736E+01  0.39436358602E+02 -0.61771799617E+01  0.40659149405E+02  0.00000000000E+00 0. -1.
         11    1    3    3    0    0 -0.33670795863E+01 -0.10039038607E+02 -0.82098349824E+01  0.13398541405E+02  0.51100000000E-03 0. -1.
        -11    1    3    3    0    0  0.80866607141E+01 -0.20621736607E+02  0.16492553083E+02  0.27616198320E+02  0.51100000000E-03 0.  1.
         12    1    3    3    0    0  0.30123331458E+01 -0.87755833879E+01 -0.21055381390E+01  0.95141108693E+01  0.00000000000E+00 0. -1.
</event>
<event>
 7    1  0.6136531E-013  0.5052885E+02  0.7816164E-02  0.1300439E+00
        -11   -1    0    0    0    0  0.00000000000E+00  0.00000000000E+00  0.45593999997E+02  0.45594000000E+02  0.51100000000E-03 0. -1.
         11   -1    0    0    0    0 -0.00000000000E+00 -0.00000000000E+00 -0.45593999997E+02  0.45594000000E+02  0.51100000000E-03 0.  1.
    9900012    2    1    2    0    0 -0.26880100724E+02  0.24251698645E+02 -0.18506258502E+02  0.50528852126E+02  0.29999976522E+02 0.  0.
         12    1    1    2    0    0  0.26880100724E+02 -0.24251698645E+02  0.18506258502E+02  0.40659147874E+02  0.00000000000E+00 0. -1.
         11    1    3    3    0    0 -0.26469911523E+02  0.52820663293E+01 -0.81921969817E+01  0.28207597068E+02  0.51100000000E-03 0. -1.
        -11    1    3    3    0    0 -0.19096081741E+01  0.13596240475E+02 -0.49860299501E+01  0.14607013841E+02  0.51100000000E-03 0.  1.
         12    1    3    3    0    0  0.14994189728E+01  0.53733918411E+01 -0.53280315699E+01  0.77142412163E+01  0.00000000000E+00 0. -1.
</event>
<event>
 7    1  0.6136531E-013  0.5052885E+02  0.7816164E-02  0.1300439E+00
        -11   -1    0    0    0    0  0.00000000000E+00  0.00000000000E+00  0.45593999997E+02  0.45594000000E+02  0.51100000000E-03 0. -1.
         11   -1    0    0    0    0 -0.00000000000E+00 -0.00000000000E+00 -0.45593999997E+02  0.45594000000E+02  0.51100000000E-03 0.  1.
    9900012    2    1    2    0    0 -0.18294741308E+02  0.36308357683E+02  0.41467165838E+00  0.50528851586E+02  0.29999974881E+02 0.  0.
         12    1    1    2    0    0  0.18294741308E+02 -0.36308357683E+02 -0.41467165838E+00  0.40659148414E+02  0.00000000000E+00 0. -1.
         11    1    3    3    0    0 -0.19545741899E+02  0.30497136903E+02 -0.38202855560E+01  0.36423975176E+02  0.51100000000E-03 0. -1.
        -11    1    3    3    0    0  0.27444212115E+00  0.95678849768E+01  0.29452696743E+01  0.10014706941E+02  0.51100000000E-03 0.  1.
         12    1    3    3    0    0  0.97655847044E+00 -0.37566641961E+01  0.12896875400E+01  0.40901694683E+01  0.00000000000E+00 0. -1.
</event>
<event>
 7    1  0.6136531E-013  0.5052886E+02  0.7816164E-02  0.1300439E+00
        -11   -1    0    0    0    0  0.00000000000E+00  0.00000000000E+00  0.45593999997E+02  0.45594000000E+02  0.51100000000E-03 0. -1.
         11   -1    0    0    0    0 -0.00000000000E+00 -0.00000000000E+00 -0.45593999997E+02  0.45594000000E+02  0.51100000000E-03 0.  1.
    9900012    2    1    2    0    0  0.19135439406E+01 -0.38442586365E+02 -0.13102353843E+02  0.50528858677E+02  0.29999996435E+02 0.  0.
         12    1    1    2    0    0 -0.19135439406E+01  0.38442586365E+02  0.13102353843E+02  0.40659141323E+02  0.00000000000E+00 0. -1.
         11    1    3    3    0    0  0.65152481126E+01 -0.26475996818E+02 -0.63866797414E+01  0.28003866587E+02  0.51100000000E-03 0. -1.
        -11    1    3    3    0    0 -0.96507863224E+01 -0.37275034615E+01 -0.75770560980E+01  0.12823561832E+02  0.51100000000E-03 0.  1.
         12    1    3    3    0    0  0.50490821505E+01 -0.82390860861E+01  0.86138199641E+00  0.97014302574E+01  0.00000000000E+00 0. -1.
</event>
<event>
 7    1  0.6136531E-013  0.5052886E+02  0.7816164E-02  0.1300439E+00
        -11   -1    0    0    0    0  0.00000000000E+00  0.00000000000E+00  0.45593999997E+02  0.45594000000E+02  0.51100000000E-03 0. -1.
         11   -1    0    0    0    0 -0.00000000000E+00 -0.00000000000E+00 -0.45593999997E+02  0.45594000000E+02  0.51100000000E-03 0.  1.
    9900012    2    1    2    0    0  0.72662489807E+01 -0.24537813721E+02 -0.31595294518E+02  0.50528864346E+02  0.30000013666E+02 0.  0.
         12    1    1    2    0    0 -0.72662489807E+01  0.24537813721E+02  0.31595294518E+02  0.40659135654E+02  0.00000000000E+00 0. -1.
         11    1    3    3    0    0  0.41101230350E+01  0.26422242432E+01 -0.23834897952E+01  0.54364955789E+01  0.51100000000E-03 0. -1.
        -11    1    3    3    0    0 -0.64516197165E+01 -0.21533208745E+02 -0.23681101450E+02  0.32651141511E+02  0.51100000000E-03 0.  1.
        -12    1    3    3    0    0  0.96077456622E+01 -0.56468292197E+01 -0.55307032726E+01  0.12441227256E+02  0.00000000000E+00 0.  1.
</event>
<event>
 7    1  0.6136531E-013  0.5052884E+02  0.7816164E-02  0.1300439E+00
        -11   -1    0    0    0    0  0.00000000000E+00  0.00000000000E+00  0.45593999997E+02  0.45594000000E+02  0.51100000000E-03 0.  1.
         11   -1    0    0    0    0 -0.00000000000E+00 -0.00000000000E+00 -0.45593999997E+02  0.45594000000E+02  0.51100000000E-03 0. -1.
    9900012    2    1    2    0    0  0.30135454512E+00 -0.44824474356E+01  0.40410199482E+02  0.50528839018E+02  0.29999936679E+02 0.  0.
         12    1    1    2    0    0 -0.30135454512E+00  0.44824474356E+01 -0.40410199482E+02  0.40659160982E+02  0.00000000000E+00 0. -1.
         11    1    3    3    0    0 -0.13524420463E+01 -0.77225841881E+01  0.13032848823E+02  0.15209291723E+02  0.51100000000E-03 0. -1.
        -11    1    3    3    0    0  0.10936371314E+02  0.50418395749E+01  0.19918650476E+02  0.23276103644E+02  0.51100000000E-03 0.  1.
        -12    1    3    3    0    0 -0.92825747221E+01 -0.18017028225E+01  0.74587001836E+01  0.12043443650E+02  0.00000000000E+00 0.  1.
</event>
<event>
 7    1  0.6136531E-013  0.5052886E+02  0.7816164E-02  0.1300439E+00
        -11   -1    0    0    0    0  0.00000000000E+00  0.00000000000E+00  0.45593999997E+02  0.45594000000E+02  0.51100000000E-03 0.  1.
         11   -1    0    0    0    0 -0.00000000000E+00 -0.00000000000E+00 -0.45593999997E+02  0.45594000000E+02  0.51100000000E-03 0. -1.
    9900012    2    1    2    0    0 -0.18821377641E+02  0.10774029368E+02  0.34392465483E+02  0.50528860226E+02  0.30000001143E+02 0.  0.
         12    1    1    2    0    0  0.18821377641E+02 -0.10774029368E+02 -0.34392465483E+02  0.40659139774E+02  0.00000000000E+00 0. -1.
         11    1    3    3    0    0 -0.16157374456E+02 -0.31469058492E+01  0.15890962299E+02  0.22879826240E+02  0.51100000000E-03 0. -1.
        -11    1    3    3    0    0 -0.68571506075E+01  0.10399269923E+02  0.56469013385E+01  0.13676725645E+02  0.51100000000E-03 0.  1.
         12    1    3    3    0    0  0.41931474227E+01  0.35216652948E+01  0.12854601846E+02  0.13972308341E+02  0.00000000000E+00 0. -1.
</event>
<event>
 7    1  0.6136531E-013  0.5052886E+02  0.7816164E-02  0.1300439E+00
        -11   -1    0    0    0    0  0.00000000000E+00  0.00000000000E+00  0.45593999997E+02  0.45594000000E+02  0.51100000000E-03 0.  1.
         11   -1    0    0    0    0 -0.00000000000E+00 -0.00000000000E+00 -0.45593999997E+02  0.45594000000E+02  0.51100000000E-03 0. -1.
    9900012    2    1    2    0    0 -0.37293982076E+02  0.90357620945E+01  0.13441714475E+02  0.50528858546E+02  0.29999996037E+02 0.  0.
         12    1    1    2    0    0  0.37293982076E+02 -0.90357620945E+01 -0.13441714475E+02  0.40659141454E+02  0.00000000000E+00 0. -1.
         11    1    3    3    0    0 -0.51367875433E+01  0.43290975846E+01 -0.59841142454E+00  0.67443138017E+01  0.51100000000E-03 0. -1.
        -11    1    3    3    0    0  0.30530614120E+01 -0.38518867035E+01  0.35438104345E+01  0.60594395631E+01  0.51100000000E-03 0.  1.
        -12    1    3    3    0    0 -0.35210255945E+02  0.85585512134E+01  0.10496315466E+02  0.37725105181E+02  0.00000000000E+00 0.  1.
</event>
<event>
 7    1  0.6136531E-013  0.5052886E+02  0.7816164E-02  0.1300439E+00
        -11   -1    0    0    0    0  0.00000000000E+00  0.00000000000E+00  0.45593999997E+02  0.45594000000E+02  0.51100000000E-03 0.  1.
         11   -1    0    0    0    0 -0.00000000000E+00 -0.00000000000E+00 -0.45593999997E+02  0.45594000000E+02  0.51100000000E-03 0. -1.
    9900012    2    1    2    0    0 -0.30426139052E+02  0.26965187252E+02  0.54281482671E+00  0.50528857005E+02  0.29999991351E+02 0.  0.
         12    1    1    2    0    0  0.30426139052E+02 -0.26965187252E+02 -0.54281482671E+00  0.40659142995E+02  0.00000000000E+00 0. -1.
         11    1    3    3    0    0 -0.69713439424E+01  0.12454233640E+02 -0.94836902861E+01  0.17136159244E+02  0.51100000000E-03 0. -1.
        -11    1    3    3    0    0 -0.16647768921E+02  0.94854600782E+00  0.50489338751E+01  0.17422390281E+02  0.51100000000E-03 0.  1.
         12    1    3    3    0    0 -0.68070261892E+01  0.13562407604E+02  0.49775712377E+01  0.15970307480E+02  0.00000000000E+00 0. -1.
</event>
<event>
 7    1  0.6136531E-013  0.5052885E+02  0.7816164E-02  0.1300439E+00
        -11   -1    0    0    0    0  0.00000000000E+00  0.00000000000E+00  0.45593999997E+02  0.45594000000E+02  0.51100000000E-03 0.  1.
         11   -1    0    0    0    0 -0.00000000000E+00 -0.00000000000E+00 -0.45593999997E+02  0.45594000000E+02  0.51100000000E-03 0. -1.
    9900012    2    1    2    0    0  0.10856419365E+02  0.14279509425E+02  0.36488361112E+02  0.50528846940E+02  0.29999960760E+02 0.  0.
         12    1    1    2    0    0 -0.10856419365E+02 -0.14279509425E+02 -0.36488361112E+02  0.40659153060E+02  0.00000000000E+00 0. -1.
         11    1    3    3    0    0 -0.36921915206E+01  0.12513354426E+02  0.25270416586E+02  0.28439589869E+02  0.51100000000E-03 0. -1.
        -11    1    3    3    0    0  0.10693169677E+02  0.67523039215E+01  0.84203649398E+01  0.15193420680E+02  0.51100000000E-03 0.  1.
         12    1    3    3    0    0  0.38554412094E+01 -0.49861489226E+01  0.27975795865E+01  0.68958363916E+01  0.00000000000E+00 0. -1.
</event>
<event>
 7    1  0.6136531E-013  0.5052886E+02  0.7816164E-02  0.1300439E+00
        -11   -1    0    0    0    0  0.00000000000E+00  0.00000000000E+00  0.45593999997E+02  0.45594000000E+02  0.51100000000E-03 0. -1.
         11   -1    0    0    0    0 -0.00000000000E+00 -0.00000000000E+00 -0.45593999997E+02  0.45594000000E+02  0.51100000000E-03 0.  1.
    9900012    2    1    2    0    0 -0.37152697305E+02  0.16420120599E+02  0.17951313648E+01  0.50528858665E+02  0.29999996397E+02 0.  0.
         12    1    1    2    0    0  0.37152697305E+02 -0.16420120599E+02 -0.17951313648E+01  0.40659141335E+02  0.00000000000E+00 0. -1.
         11    1    3    3    0    0  0.12656323178E+01 -0.22528886380E+01 -0.26058422330E+01  0.36698428281E+01  0.51100000000E-03 0. -1.
        -11    1    3    3    0    0 -0.34985961185E+02  0.17817275001E+02  0.97425428629E+01  0.40452316500E+02  0.51100000000E-03 0.  1.
        -12    1    3    3    0    0 -0.34323684374E+01  0.85573423629E+00 -0.53415692651E+01  0.64066993365E+01  0.00000000000E+00 0.  1.
</event>
<event>
 7    1  0.6136531E-013  0.5052886E+02  0.7816164E-02  0.1300439E+00
        -11   -1    0    0    0    0  0.00000000000E+00  0.00000000000E+00  0.45593999997E+02  0.45594000000E+02  0.51100000000E-03 0.  1.
         11   -1    0    0    0    0 -0.00000000000E+00 -0.00000000000E+00 -0.45593999997E+02  0.45594000000E+02  0.51100000000E-03 0. -1.
    9900012    2    1    2    0    0 -0.21413959208E+02 -0.33696499508E+02  0.76911606662E+01  0.50528859817E+02  0.29999999899E+02 0.  0.
         12    1    1    2    0    0  0.21413959208E+02  0.33696499508E+02 -0.76911606662E+01  0.40659140183E+02  0.00000000000E+00 0. -1.
         11    1    3    3    0    0 -0.15364491270E+02 -0.94781715052E+01  0.15614548400E+02  0.23868754661E+02  0.51100000000E-03 0. -1.
        -11    1    3    3    0    0 -0.46067175990E+01 -0.23286680906E+02 -0.73708761578E+01  0.24856008736E+02  0.51100000000E-03 0.  1.
        -12    1    3    3    0    0 -0.14427503387E+01 -0.93164709624E+00 -0.55251157611E+00  0.18040964202E+01  0.00000000000E+00 0.  1.
</event>
<event>
 7    1  0.6136531E-013  0.5052886E+02  0.7816164E-02  0.1300439E+00
        -11   -1    0    0    0    0  0.00000000000E+00  0.00000000000E+00  0.45593999997E+02  0.45594000000E+02  0.51100000000E-03 0.  1.
         11   -1    0    0    0    0 -0.00000000000E+00 -0.00000000000E+00 -0.45593999997E+02  0.45594000000E+02  0.51100000000E-03 0. -1.
    9900012    2    1    2    0    0  0.24675231576E+02  0.28470692465E+02  0.15287857388E+02  0.50528856302E+02  0.29999989215E+02 0.  0.
         12    1    1    2    0    0 -0.24675231576E+02 -0.28470692465E+02 -0.15287857388E+02  0.40659143698E+02  0.00000000000E+00 0. -1.
         11    1    3    3    0    0 -0.58591806651E+01  0.10338729748E+02  0.38988727745E+01  0.12506819741E+02  0.51100000000E-03 0. -1.
        -11    1    3    3    0    0  0.16074226469E+02  0.54998838817E+01  0.40387955413E+01  0.17462569942E+02  0.51100000000E-03 0.  1.
         12    1    3    3    0    0  0.14460185772E+02  0.12632078835E+02  0.73501890719E+01  0.20559466619E+02  0.00000000000E+00 0. -1.
</event>
<event>
 7    1  0.6136531E-013  0.5052887E+02  0.7816164E-02  0.1300439E+00
        -11   -1    0    0    0    0  0.00000000000E+00  0.00000000000E+00  0.45593999997E+02  0.45594000000E+02  0.51100000000E-03 0.  1.
         11   -1    0    0    0    0 -0.00000000000E+00 -0.00000000000E+00 -0.45593999997E+02  0.45594000000E+02  0.51100000000E-03 0. -1.
    9900012    2    1    2    0    0 -0.13704086215E+02  0.14565282785E+02  0.35400785220E+02  0.50528867744E+02  0.30000023996E+02 0.  0.
         12    1    1    2    0    0  0.13704086215E+02 -0.14565282785E+02 -0.35400785220E+02  0.40659132256E+02  0.00000000000E+00 0. -1.
         11    1    3    3    0    0 -0.59044634311E+01 -0.28428583209E+00 -0.25622089892E+01  0.64427030048E+01  0.51100000000E-03 0. -1.
        -11    1    3    3    0    0 -0.74503034983E+01  0.19130210267E+00  0.16355888478E+02  0.17973833950E+02  0.51100000000E-03 0.  1.
         12    1    3    3    0    0 -0.34931928576E+00  0.14658266514E+02  0.21607105731E+02  0.26112330789E+02  0.00000000000E+00 0. -1.
</event>
<event>
 7    1  0.6136531E-013  0.5052885E+02  0.7816164E-02  0.1300439E+00
        -11   -1    0    0    0    0  0.00000000000E+00  0.00000000000E+00  0.45593999997E+02  0.45594000000E+02  0.51100000000E-03 0. -1.
         11   -1    0    0    0    0 -0.00000000000E+00 -0.00000000000E+00 -0.45593999997E+02  0.45594000000E+02  0.51100000000E-03 0.  1.
    9900012    2    1    2    0    0 -0.21490479490E+02 -0.28307952785E+02 -0.19748043459E+02  0.50528854411E+02  0.29999983466E+02 0.  0.
         12    1    1    2    0    0  0.21490479490E+02  0.28307952785E+02  0.19748043459E+02  0.40659145589E+02  0.00000000000E+00 0. -1.
         11    1    3    3    0    0  0.46555115675E+01 -0.53543687908E+01  0.40728783417E+01  0.81811607581E+01  0.51100000000E-03 0. -1.
        -11    1    3    3    0    0 -0.90403928348E+01 -0.80338356884E+01 -0.10586855707E+02  0.16073354737E+02  0.51100000000E-03 0.  1.
         12    1    3    3    0    0 -0.17105598223E+02 -0.14919748306E+02 -0.13234066093E+02  0.26274338915E+02  0.00000000000E+00 0. -1.
</event>
<event>
 7    1  0.6136531E-013  0.5052882E+02  0.7816164E-02  0.1300439E+00
        -11   -1    0    0    0    0  0.00000000000E+00  0.00000000000E+00  0.45593999997E+02  0.45594000000E+02  0.51100000000E-03 0.  1.
         11   -1    0    0    0    0 -0.00000000000E+00 -0.00000000000E+00 -0.45593999997E+02  0.45594000000E+02  0.51100000000E-03 0. -1.
    9900012    2    1    2    0    0 -0.90920725960E+01 -0.16321717692E+02  0.36112386418E+02  0.50528822619E+02  0.29999886833E+02 0.  0.
         12    1    1    2    0    0  0.90920725960E+01  0.16321717692E+02 -0.36112386418E+02  0.40659177381E+02  0.00000000000E+00 0. -1.
         11    1    3    3    0    0  0.38200158043E+01 -0.45469948594E+01 -0.16843905633E+01  0.61729129937E+01  0.51100000000E-03 0. -1.
        -11    1    3    3    0    0 -0.94664562053E+01 -0.11915992382E+02  0.15241479998E+02  0.21538509241E+02  0.51100000000E-03 0.  1.
        -12    1    3    3    0    0 -0.34456321950E+01  0.14126954924E+00  0.22555296983E+02  0.22817400385E+02  0.00000000000E+00 0.  1.
</event>
<event>
 7    1  0.6136531E-013  0.5052886E+02  0.7816164E-02  0.1300439E+00
        -11   -1    0    0    0    0  0.00000000000E+00  0.00000000000E+00  0.45593999997E+02  0.45594000000E+02  0.51100000000E-03 0.  1.
         11   -1    0    0    0    0 -0.00000000000E+00 -0.00000000000E+00 -0.45593999997E+02  0.45594000000E+02  0.51100000000E-03 0. -1.
    9900012    2    1    2    0    0  0.32619302978E+02  0.13985650813E+02  0.19838056356E+02  0.50528857911E+02  0.29999994106E+02 0.  0.
         12    1    1    2    0    0 -0.32619302978E+02 -0.13985650813E+02 -0.19838056356E+02  0.40659142089E+02  0.00000000000E+00 0. -1.
         11    1    3    3    0    0  0.18498481700E+02  0.78063527134E+01 -0.54979201661E+01  0.20817302762E+02  0.51100000000E-03 0. -1.
        -11    1    3    3    0    0  0.90443336314E+01  0.30003381104E+01  0.15729774768E+02  0.18390970995E+02  0.51100000000E-03 0.  1.
         12    1    3    3    0    0  0.50764876466E+01  0.31789599895E+01  0.96062017536E+01  0.11320584153E+02  0.00000000000E+00 0. -1.
</event>
<event>
 7    1  0.6136531E-013  0.5052886E+02  0.7816164E-02  0.1300439E+00
        -11   -1    0    0    0    0  0.00000000000E+00  0.00000000000E+00  0.45593999997E+02  0.45594000000E+02  0.51100000000E-03 0.  1.
         11   -1    0    0    0    0 -0.00000000000E+00 -0.00000000000E+00 -0.45593999997E+02  0.45594000000E+02  0.51100000000E-03 0. -1.
    9900012    2    1    2    0    0  0.16397844578E+02 -0.36579671347E+02 -0.67973227314E+01  0.50528864999E+02  0.30000015652E+02 0.  0.
         12    1    1    2    0    0 -0.16397844578E+02  0.36579671347E+02  0.67973227314E+01  0.40659135001E+02  0.00000000000E+00 0. -1.
         11    1    3    3    0    0  0.17132863040E+02 -0.33009298096E+02 -0.14404626530E+02  0.39882853740E+02  0.51100000000E-03 0. -1.
        -11    1    3    3    0    0 -0.20180477642E+01  0.94781875463E+00  0.44775603908E+01  0.50019420713E+01  0.51100000000E-03 0.  1.
         12    1    3    3    0    0  0.12830293017E+01 -0.45181920064E+01  0.31297434082E+01  0.56440691878E+01  0.00000000000E+00 0. -1.
</event>
<event>
 7    1  0.6136531E-013  0.5052888E+02  0.7816164E-02  0.1300439E+00
        -11   -1    0    0    0    0  0.00000000000E+00  0.00000000000E+00  0.45593999997E+02  0.45594000000E+02  0.51100000000E-03 0.  1.
         11   -1    0    0    0    0 -0.00000000000E+00 -0.00000000000E+00 -0.45593999997E+02  0.45594000000E+02  0.51100000000E-03 0. -1.
    9900012    2    1    2    0    0  0.20935469258E+02  0.23020432201E+02  0.26171159101E+02  0.50528883673E+02  0.30000072412E+02 0.  0.
         12    1    1    2    0    0 -0.20935469258E+02 -0.23020432201E+02 -0.26171159101E+02  0.40659116327E+02  0.00000000000E+00 0. -1.
         11    1    3    3    0    0  0.41866830920E+01 -0.49141699476E+01 -0.52961479290E+00  0.64774897667E+01  0.51100000000E-03 0. -1.
        -11    1    3    3    0    0  0.18089598913E+01  0.11287358316E+02  0.14842739602E+02  0.18734559317E+02  0.51100000000E-03 0.  1.
         12    1    3    3    0    0  0.14939826275E+02  0.16647243833E+02  0.11858034292E+02  0.25316834590E+02  0.00000000000E+00 0. -1.
</event>
<event>
 7    1  0.6136531E-013  0.5052886E+02  0.7816164E-02  0.1300439E+00
        -11   -1    0    0    0    0  0.00000000000E+00  0.00000000000E+00  0.45593999997E+02  0.45594000000E+02  0.51100000000E-03 0. -1.
         11   -1    0    0    0    0 -0.00000000000E+00 -0.00000000000E+00 -0.45593999997E+02  0.45594000000E+02  0.51100000000E-03 0.  1.
    9900012    2    1    2    0    0  0.29817693543E+02 -0.25722594438E+02 -0.10120210732E+02  0.50528863534E+02  0.30000011198E+02 0.  0.
         12    1    1    2    0    0 -0.29817693543E+02  0.25722594438E+02  0.10120210732E+02  0.40659136466E+02  0.00000000000E+00 0. -1.
         11    1    3    3    0    0  0.23542244361E+01  0.16576477714E+01  0.12585121755E+01  0.31422956555E+01  0.51100000000E-03 0. -1.
        -11    1    3    3    0    0  0.31909283216E+02 -0.25224892262E+02 -0.11995665054E+02  0.42407470160E+02  0.51100000000E-03 0.  1.
        -12    1    3    3    0    0 -0.44458141083E+01 -0.21553499473E+01  0.61694214655E+00  0.49790977188E+01  0.00000000000E+00 0.  1.
</event>
<event>
 7    1  0.6136531E-013  0.5052886E+02  0.7816164E-02  0.1300439E+00
        -11   -1    0    0    0    0  0.00000000000E+00  0.00000000000E+00  0.45593999997E+02  0.45594000000E+02  0.51100000000E-03 0.  1.
         11   -1    0    0    0    0 -0.00000000000E+00 -0.00000000000E+00 -0.45593999997E+02  0.45594000000E+02  0.51100000000E-03 0. -1.
    9900012    2    1    2    0    0  0.39580389686E+02 -0.92257141618E+01 -0.12019602129E+01  0.50528858865E+02  0.29999997005E+02 0.  0.
         12    1    1    2    0    0 -0.39580389686E+02  0.92257141618E+01  0.12019602129E+01  0.40659141135E+02  0.00000000000E+00 0. -1.
         11    1    3    3    0    0  0.22815310371E+02 -0.71675726147E+01 -0.47819552559E+01  0.24388103265E+02  0.51100000000E-03 0.  1.
        -11    1    3    3    0    0  0.10303524436E+01 -0.68553263400E+01  0.64190220977E+01  0.94478024078E+01  0.51100000000E-03 0. -1.
         12    1    3    3    0    0  0.15734726871E+02  0.47971847929E+01 -0.28390270546E+01  0.16692953192E+02  0.00000000000E+00 0. -1.
</event>
<event>
 7    1  0.6136531E-013  0.5052886E+02  0.7816164E-02  0.1300439E+00
        -11   -1    0    0    0    0  0.00000000000E+00  0.00000000000E+00  0.45593999997E+02  0.45594000000E+02  0.51100000000E-03 0. -1.
         11   -1    0    0    0    0 -0.00000000000E+00 -0.00000000000E+00 -0.45593999997E+02  0.45594000000E+02  0.51100000000E-03 0.  1.
    9900012    2    1    2    0    0 -0.69248082623E+01  0.21002535288E+02 -0.34119004413E+02  0.50528856869E+02  0.29999990938E+02 0.  0.
         12    1    1    2    0    0  0.69248082623E+01 -0.21002535288E+02  0.34119004413E+02  0.40659143131E+02  0.00000000000E+00 0. -1.
         11    1    3    3    0    0 -0.86797855663E+01 -0.18111289001E+01 -0.18684427289E+01  0.90614537389E+01  0.51100000000E-03 0. -1.
        -11    1    3    3    0    0  0.45331678081E+01  0.94725328035E+01 -0.65475728256E+01  0.12375346389E+02  0.51100000000E-03 0.  1.
         12    1    3    3    0    0 -0.27781905041E+01  0.13341131385E+02 -0.25702988859E+02  0.29092056740E+02  0.00000000000E+00 0. -1.
</event>
<event>
 7    1  0.6136531E-013  0.5052888E+02  0.7816164E-02  0.1300439E+00
        -11   -1    0    0    0    0  0.00000000000E+00  0.00000000000E+00  0.45593999997E+02  0.45594000000E+02  0.51100000000E-03 0. -1.
         11   -1    0    0    0    0 -0.00000000000E+00 -0.00000000000E+00 -0.45593999997E+02  0.45594000000E+02  0.51100000000E-03 0.  1.
    9900012    2    1    2    0    0 -0.32075592743E+02  0.20264428657E+02 -0.14617568530E+02  0.50528880133E+02  0.30000061653E+02 0.  0.
         12    1    1    2    0    0  0.32075592743E+02 -0.20264428657E+02  0.14617568530E+02  0.40659119867E+02  0.00000000000E+00 0. -1.
         11    1    3    3    0    0 -0.34089119698E+01 -0.34418683709E+01 -0.97351098022E+01  0.10873798868E+02  0.51100000000E-03 0. -1.
        -11    1    3    3    0    0 -0.23599938925E+02  0.21992782734E+02  0.22471590850E+00  0.32259728876E+02  0.51100000000E-03 0.  1.
         12    1    3    3    0    0 -0.50667418488E+01  0.17135142931E+01 -0.51071746364E+01  0.73953523893E+01  0.00000000000E+00 0. -1.
</event>
<event>
 7    1  0.6738303E-013  0.5052886E+02  0.7816164E-02  0.1300439E+00
        -11   -1    0    0    0    0  0.00000000000E+00  0.00000000000E+00  0.45593999997E+02  0.45594000000E+02  0.51100000000E-03 0.  1.
         11   -1    0    0    0    0 -0.00000000000E+00 -0.00000000000E+00 -0.45593999997E+02  0.45594000000E+02  0.51100000000E-03 0. -1.
    9900012    2    1    2    0    0  0.37793521659E+02  0.76828510876E+00  0.14974160993E+02  0.50528855409E+02  0.29999986501E+02 0.  0.
         12    1    1    2    0    0 -0.37793521659E+02 -0.76828510876E+00 -0.14974160993E+02  0.40659144591E+02  0.00000000000E+00 0. -1.
         11    1    3    3    0    0  0.45908298917E+01 -0.48231191034E+01 -0.53148373746E+01  0.85197237960E+01  0.51100000000E-03 0. -1.
        -11    1    3    3    0    0  0.16496838240E+02  0.99437429272E+01  0.82055689125E+01  0.20936930452E+02  0.51100000000E-03 0.  1.
        -12    1    3    3    0    0  0.16705853528E+02 -0.43523387150E+01  0.12083429455E+02  0.21072201161E+02  0.00000000000E+00 0.  1.
</event>
<event>
 7    1  0.6136531E-013  0.5052886E+02  0.7816164E-02  0.1300439E+00
        -11   -1    0    0    0    0  0.00000000000E+00  0.00000000000E+00  0.45593999997E+02  0.45594000000E+02  0.51100000000E-03 0.  1.
         11   -1    0    0    0    0 -0.00000000000E+00 -0.00000000000E+00 -0.45593999997E+02  0.45594000000E+02  0.51100000000E-03 0. -1.
    9900012    2    1    2    0    0 -0.36139046736E+01  0.17432374164E+02  0.36554314531E+02  0.50528857279E+02  0.29999992186E+02 0.  0.
         12    1    1    2    0    0  0.36139046736E+01 -0.17432374164E+02 -0.36554314531E+02  0.40659142721E+02  0.00000000000E+00 0. -1.
         11    1    3    3    0    0  0.56533018806E+01 -0.23405102918E+00  0.18264251445E+01  0.59456228527E+01  0.51100000000E-03 0. -1.
        -11    1    3    3    0    0 -0.13909901888E+02  0.13248863583E+02  0.32584985862E+02  0.37825904625E+02  0.51100000000E-03 0.  1.
        -12    1    3    3    0    0  0.46426953336E+01  0.44175616096E+01  0.21429035238E+01  0.67573298016E+01  0.00000000000E+00 0.  1.
</event>
<event>
 7    1  0.6136531E-013  0.5052886E+02  0.7816164E-02  0.1300439E+00
        -11   -1    0    0    0    0  0.00000000000E+00  0.00000000000E+00  0.45593999997E+02  0.45594000000E+02  0.51100000000E-03 0.  1.
         11   -1    0    0    0    0 -0.00000000000E+00 -0.00000000000E+00 -0.45593999997E+02  0.45594000000E+02  0.51100000000E-03 0. -1.
    9900012    2    1    2    0    0  0.14898119078E+02  0.16678227282E+02  0.33956567144E+02  0.50528859951E+02  0.30000000308E+02 0.  0.
         12    1    1    2    0    0 -0.14898119078E+02 -0.16678227282E+02 -0.33956567144E+02  0.40659140049E+02  0.00000000000E+00 0. -1.
         11    1    3    3    0    0  0.98807133523E+01  0.27870746550E+01 -0.22512721198E+01  0.10510209698E+02  0.51100000000E-03 0. -1.
        -11    1    3    3    0    0 -0.19588718126E+01  0.58030150475E+01  0.16540975819E+02  0.17638481900E+02  0.51100000000E-03 0.  1.
         12    1    3    3    0    0  0.69762775382E+01  0.80881375791E+01  0.19666863444E+02  0.22380168353E+02  0.00000000000E+00 0. -1.
</event>
<event>
 7    1  0.6136531E-013  0.5052886E+02  0.7816164E-02  0.1300439E+00
        -11   -1    0    0    0    0  0.00000000000E+00  0.00000000000E+00  0.45593999997E+02  0.45594000000E+02  0.51100000000E-03 0.  1.
         11   -1    0    0    0    0 -0.00000000000E+00 -0.00000000000E+00 -0.45593999997E+02  0.45594000000E+02  0.51100000000E-03 0. -1.
    9900012    2    1    2    0    0  0.70885888657E+01 -0.39458675256E+02 -0.67771788600E+01  0.50528864515E+02  0.30000014180E+02 0.  0.
         12    1    1    2    0    0 -0.70885888657E+01  0.39458675256E+02  0.67771788600E+01  0.40659135485E+02  0.00000000000E+00 0. -1.
         11    1    3    3    0    0  0.10081841307E+02 -0.18045369825E+02  0.62491743442E+01  0.21594700195E+02  0.51100000000E-03 0. -1.
        -11    1    3    3    0    0  0.15289995877E+01 -0.20966849094E+02 -0.90195175952E+01  0.22875714166E+02  0.51100000000E-03 0.  1.
         12    1    3    3    0    0 -0.45222520290E+01 -0.44645633705E+00 -0.40068356091E+01  0.60584501543E+01  0.00000000000E+00 0. -1.
</event>
<event>
 7    1  0.6136531E-013  0.5052887E+02  0.7816164E-02  0.1300439E+00
        -11   -1    0    0    0    0  0.00000000000E+00  0.00000000000E+00  0.45593999997E+02  0.45594000000E+02  0.51100000000E-03 0.  1.
         11   -1    0    0    0    0 -0.00000000000E+00 -0.00000000000E+00 -0.45593999997E+02  0.45594000000E+02  0.51100000000E-03 0. -1.
    9900012    2    1    2    0    0  0.27156442924E+02  0.27600133931E+01  0.30134279184E+02  0.50528870052E+02  0.30000031010E+02 0.  0.
         12    1    1    2    0    0 -0.27156442924E+02 -0.27600133931E+01 -0.30134279184E+02  0.40659129948E+02  0.00000000000E+00 0. -1.
         11    1    3    3    0    0 -0.27626812137E+01 -0.23718350432E+01 -0.27158871280E+01  0.45424720268E+01  0.51100000000E-03 0. -1.
        -11    1    3    3    0    0  0.13603178705E+02 -0.27237044914E+01  0.11744285160E+02  0.18176723336E+02  0.51100000000E-03 0.  1.
         12    1    3    3    0    0  0.16315945432E+02  0.78555529277E+01  0.21105881152E+02  0.27809674690E+02  0.00000000000E+00 0. -1.
</event>
<event>
 7    1  0.6136531E-013  0.5052886E+02  0.7816164E-02  0.1300439E+00
        -11   -1    0    0    0    0  0.00000000000E+00  0.00000000000E+00  0.45593999997E+02  0.45594000000E+02  0.51100000000E-03 0.  1.
         11   -1    0    0    0    0 -0.00000000000E+00 -0.00000000000E+00 -0.45593999997E+02  0.45594000000E+02  0.51100000000E-03 0. -1.
    9900012    2    1    2    0    0  0.85889629728E+01 -0.30143894606E+02  0.25898667767E+02  0.50528860080E+02  0.30000000698E+02 0.  0.
         12    1    1    2    0    0 -0.85889629728E+01  0.30143894606E+02 -0.25898667767E+02  0.40659139920E+02  0.00000000000E+00 0. -1.
         11    1    3    3    0    0  0.13209373283E+02 -0.16949095998E+02  0.88390933453E+01  0.23235510950E+02  0.51100000000E-03 0. -1.
        -11    1    3    3    0    0 -0.38326588709E+01 -0.16995912764E+02  0.13895233829E+02  0.22285148600E+02  0.51100000000E-03 0.  1.
         12    1    3    3    0    0 -0.78775143889E+00  0.38011141563E+01  0.31643405924E+01  0.50082005294E+01  0.00000000000E+00 0. -1.
</event>
<event>
 7    1  0.6136531E-013  0.5052886E+02  0.7816164E-02  0.1300439E+00
        -11   -1    0    0    0    0  0.00000000000E+00  0.00000000000E+00  0.45593999997E+02  0.45594000000E+02  0.51100000000E-03 0.  1.
         11   -1    0    0    0    0 -0.00000000000E+00 -0.00000000000E+00 -0.45593999997E+02  0.45594000000E+02  0.51100000000E-03 0. -1.
    9900012    2    1    2    0    0  0.32901848210E+02  0.14696494539E+02  0.18832075626E+02  0.50528860317E+02  0.30000001421E+02 0.  0.
         12    1    1    2    0    0 -0.32901848210E+02 -0.14696494539E+02 -0.18832075626E+02  0.40659139683E+02  0.00000000000E+00 0. -1.
         11    1    3    3    0    0  0.17094744381E+02 -0.37678082341E+01  0.18919192953E+01  0.17606987909E+02  0.51100000000E-03 0. -1.
        -11    1    3    3    0    0  0.17896373984E+02  0.15617106133E+02  0.17281541544E+02  0.29373898007E+02  0.51100000000E-03 0.  1.
         12    1    3    3    0    0 -0.20892701552E+01  0.28471966399E+01 -0.34138521372E+00  0.35479744012E+01  0.00000000000E+00 0. -1.
</event>
<event>
 7    1  0.6136531E-013  0.5052886E+02  0.7816164E-02  0.1300439E+00
        -11   -1    0    0    0    0  0.00000000000E+00  0.00000000000E+00  0.45593999997E+02  0.45594000000E+02  0.51100000000E-03 0.  1.
         11   -1    0    0    0    0 -0.00000000000E+00 -0.00000000000E+00 -0.45593999997E+02  0.45594000000E+02  0.51100000000E-03 0. -1.
    9900012    2    1    2    0    0 -0.26432357346E+02 -0.29418710638E+02  0.94358673079E+01  0.50528860286E+02  0.30000001325E+02 0.  0.
         12    1    1    2    0    0  0.26432357346E+02  0.29418710638E+02 -0.94358673079E+01  0.40659139714E+02  0.00000000000E+00 0. -1.
         11    1    3    3    0    0 -0.35646685745E+01 -0.16690047736E+00  0.74634315045E+01  0.82726977401E+01  0.51100000000E-03 0. -1.
        -11    1    3    3    0    0 -0.15684498720E+02 -0.28265522106E+02  0.74453256716E+01  0.33171917560E+02  0.51100000000E-03 0.  1.
         12    1    3    3    0    0 -0.71831900518E+01 -0.98628805412E+00 -0.54728898682E+01  0.90842449855E+01  0.00000000000E+00 0. -1.
</event>
<event>
 7    1  0.6136531E-013  0.5052887E+02  0.7816164E-02  0.1300439E+00
        -11   -1    0    0    0    0  0.00000000000E+00  0.00000000000E+00  0.45593999997E+02  0.45594000000E+02  0.51100000000E-03 0.  1.
         11   -1    0    0    0    0 -0.00000000000E+00 -0.00000000000E+00 -0.45593999997E+02  0.45594000000E+02  0.51100000000E-03 0. -1.
    9900012    2    1    2    0    0  0.11159304957E+02 -0.39001036847E+02  0.27484959076E+01  0.50528865823E+02  0.30000018154E+02 0.  0.
         12    1    1    2    0    0 -0.11159304957E+02  0.39001036847E+02 -0.27484959076E+01  0.40659134177E+02  0.00000000000E+00 0. -1.
         11    1    3    3    0    0  0.39573774414E+01  0.12991741857E+01  0.58259295300E+01  0.71617138261E+01  0.51100000000E-03 0. -1.
        -11    1    3    3    0    0  0.78278029292E+01 -0.99388765546E+01 -0.29873582414E+01  0.12999233646E+02  0.51100000000E-03 0.  1.
         12    1    3    3    0    0 -0.62587541342E+00 -0.30361334479E+02 -0.90075381067E-01  0.30367918350E+02  0.00000000000E+00 0. -1.
</event>
<event>
 7    1  0.6136531E-013  0.5052886E+02  0.7816164E-02  0.1300439E+00
        -11   -1    0    0    0    0  0.00000000000E+00  0.00000000000E+00  0.45593999997E+02  0.45594000000E+02  0.51100000000E-03 0.  1.
         11   -1    0    0    0    0 -0.00000000000E+00 -0.00000000000E+00 -0.45593999997E+02  0.45594000000E+02  0.51100000000E-03 0. -1.
    9900012    2    1    2    0    0  0.13411730768E+02  0.15801480809E+02  0.34980060092E+02  0.50528856846E+02  0.29999990869E+02 0.  0.
         12    1    1    2    0    0 -0.13411730768E+02 -0.15801480809E+02 -0.34980060092E+02  0.40659143154E+02  0.00000000000E+00 0. -1.
         11    1    3    3    0    0  0.77171671309E+01  0.36496470571E+00 -0.16304298488E+01  0.78959590625E+01  0.51100000000E-03 0. -1.
        -11    1    3    3    0    0  0.41334939160E+01  0.18098128927E+02  0.29148690137E+02  0.34558272231E+02  0.51100000000E-03 0.  1.
         12    1    3    3    0    0  0.15610697216E+01 -0.26616128238E+01  0.74617998039E+01  0.80746255525E+01  0.00000000000E+00 0. -1.
</event>
<event>
 7    1  0.6136531E-013  0.5052886E+02  0.7816164E-02  0.1300439E+00
        -11   -1    0    0    0    0  0.00000000000E+00  0.00000000000E+00  0.45593999997E+02  0.45594000000E+02  0.51100000000E-03 0.  1.
         11   -1    0    0    0    0 -0.00000000000E+00 -0.00000000000E+00 -0.45593999997E+02  0.45594000000E+02  0.51100000000E-03 0. -1.
    9900012    2    1    2    0    0 -0.59625519979E+01 -0.37968678261E+02  0.13266241787E+02  0.50528859253E+02  0.29999998184E+02 0.  0.
         12    1    1    2    0    0  0.59625519979E+01  0.37968678261E+02 -0.13266241787E+02  0.40659140747E+02  0.00000000000E+00 0. -1.
         11    1    3    3    0    0  0.34001103919E+01  0.22322598324E+01  0.10921717581E+01  0.42114812177E+01  0.51100000000E-03 0. -1.
        -11    1    3    3    0    0 -0.82947441332E+01 -0.17382169122E+02  0.13364663604E+02  0.23442628204E+02  0.51100000000E-03 0.  1.
         12    1    3    3    0    0 -0.10679182565E+01 -0.22818768971E+02 -0.11905935753E+01  0.22874749831E+02  0.00000000000E+00 0. -1.
</event>
<event>
 7    1  0.6136531E-013  0.5052886E+02  0.7816164E-02  0.1300439E+00
        -11   -1    0    0    0    0  0.00000000000E+00  0.00000000000E+00  0.45593999997E+02  0.45594000000E+02  0.51100000000E-03 0.  1.
         11   -1    0    0    0    0 -0.00000000000E+00 -0.00000000000E+00 -0.45593999997E+02  0.45594000000E+02  0.51100000000E-03 0. -1.
    9900012    2    1    2    0    0 -0.15553369536E+02 -0.23546115992E+02  0.29271807523E+02  0.50528860832E+02  0.30000002984E+02 0.  0.
         12    1    1    2    0    0  0.15553369536E+02  0.23546115992E+02 -0.29271807523E+02  0.40659139168E+02  0.00000000000E+00 0. -1.
         11    1    3    3    0    0 -0.21557246886E+00 -0.26602869930E+01  0.28381127459E+01  0.38959572116E+01  0.51100000000E-03 0. -1.
        -11    1    3    3    0    0 -0.20255886270E+02 -0.24483709400E+02  0.19011012689E+02  0.37029333754E+02  0.51100000000E-03 0.  1.
        -12    1    3    3    0    0  0.49180892026E+01  0.35978804011E+01  0.74226820886E+01  0.96035698661E+01  0.00000000000E+00 0.  1.
</event>
<event>
 7    1  0.6136531E-013  0.5052884E+02  0.7816164E-02  0.1300439E+00
        -11   -1    0    0    0    0  0.00000000000E+00  0.00000000000E+00  0.45593999997E+02  0.45594000000E+02  0.51100000000E-03 0.  1.
         11   -1    0    0    0    0 -0.00000000000E+00 -0.00000000000E+00 -0.45593999997E+02  0.45594000000E+02  0.51100000000E-03 0. -1.
    9900012    2    1    2    0    0  0.16816098995E+02 -0.11547006046E+02  0.35171758032E+02  0.50528842396E+02  0.29999946946E+02 0.  0.
         12    1    1    2    0    0 -0.16816098995E+02  0.11547006046E+02 -0.35171758032E+02  0.40659157604E+02  0.00000000000E+00 0. -1.
         11    1    3    3    0    0 -0.27096140670E+01 -0.17983476047E+01 -0.44922463728E+00  0.32829659662E+01  0.51100000000E-03 0. -1.
        -11    1    3    3    0    0  0.22879479484E+02 -0.24926579919E+01  0.25529934019E+02  0.34372393816E+02  0.51100000000E-03 0.  1.
        -12    1    3    3    0    0 -0.33537664227E+01 -0.72560004499E+01  0.10091048650E+02  0.12873482614E+02  0.00000000000E+00 0.  1.
</event>
<event>
 7    1  0.6136531E-013  0.5052887E+02  0.7816164E-02  0.1300439E+00
        -11   -1    0    0    0    0  0.00000000000E+00  0.00000000000E+00  0.45593999997E+02  0.45594000000E+02  0.51100000000E-03 0. -1.
         11   -1    0    0    0    0 -0.00000000000E+00 -0.00000000000E+00 -0.45593999997E+02  0.45594000000E+02  0.51100000000E-03 0.  1.
    9900012    2    1    2    0    0 -0.49547119911E+00  0.17550844252E+02 -0.36672708071E+02  0.50528866427E+02  0.30000019991E+02 0.  0.
         12    1    1    2    0    0  0.49547119911E+00 -0.17550844252E+02  0.36672708071E+02  0.40659133573E+02  0.00000000000E+00 0. -1.
         11    1    3    3    0    0 -0.69930790690E+01  0.19462157989E+02 -0.10096892126E+02  0.23013604222E+02  0.51100000000E-03 0. -1.
        -11    1    3    3    0    0  0.42962691664E+01 -0.21419360795E+01 -0.20321761521E+02  0.20881087388E+02  0.51100000000E-03 0.  1.
         12    1    3    3    0    0  0.22013387036E+01  0.23062234264E+00 -0.62540544243E+01  0.66341748164E+01  0.00000000000E+00 0. -1.
</event>
<event>
 7    1  0.6136531E-013  0.5052885E+02  0.7816164E-02  0.1300439E+00
        -11   -1    0    0    0    0  0.00000000000E+00  0.00000000000E+00  0.45593999997E+02  0.45594000000E+02  0.51100000000E-03 0.  1.
         11   -1    0    0    0    0 -0.00000000000E+00 -0.00000000000E+00 -0.45593999997E+02  0.45594000000E+02  0.51100000000E-03 0. -1.
    9900012    2    1    2    0    0  0.17337537652E+02  0.11433716883E+02  0.34954924616E+02  0.50528845453E+02  0.29999956239E+02 0.  0.
         12    1    1    2    0    0 -0.17337537652E+02 -0.11433716883E+02 -0.34954924616E+02  0.40659154547E+02  0.00000000000E+00 0. -1.
         11    1    3    3    0    0  0.10896853167E+02  0.94898527096E+00  0.22036734044E+01  0.11157874292E+02  0.51100000000E-03 0. -1.
        -11    1    3    3    0    0 -0.52300241157E+01  0.12097253223E+00  0.14166232744E+02  0.15101322360E+02  0.51100000000E-03 0.  1.
        -12    1    3    3    0    0  0.11670708600E+02  0.10363759080E+02  0.18585018467E+02  0.24269648801E+02  0.00000000000E+00 0.  1.
</event>
<event>
 7    1  0.6136531E-013  0.5052886E+02  0.7816164E-02  0.1300439E+00
        -11   -1    0    0    0    0  0.00000000000E+00  0.00000000000E+00  0.45593999997E+02  0.45594000000E+02  0.51100000000E-03 0. -1.
         11   -1    0    0    0    0 -0.00000000000E+00 -0.00000000000E+00 -0.45593999997E+02  0.45594000000E+02  0.51100000000E-03 0.  1.
    9900012    2    1    2    0    0 -0.28801852695E+02  0.26181591829E+02  0.11753436349E+02  0.50528859141E+02  0.29999997845E+02 0.  0.
         12    1    1    2    0    0  0.28801852695E+02 -0.26181591829E+02 -0.11753436349E+02  0.40659140859E+02  0.00000000000E+00 0. -1.
         11    1    3    3    0    0 -0.41739346788E+01  0.11711657979E+02  0.16343114948E+02  0.20534898826E+02  0.51100000000E-03 0. -1.
        -11    1    3    3    0    0 -0.15571608451E+02  0.54140242082E+01 -0.48482825520E+01  0.17184076695E+02  0.51100000000E-03 0.  1.
        -12    1    3    3    0    0 -0.90563095645E+01  0.90559096418E+01  0.25860395344E+00  0.12809883621E+02  0.00000000000E+00 0.  1.
</event>
<event>
 7    1  0.6136531E-013  0.5052886E+02  0.7816164E-02  0.1300439E+00
        -11   -1    0    0    0    0  0.00000000000E+00  0.00000000000E+00  0.45593999997E+02  0.45594000000E+02  0.51100000000E-03 0. -1.
         11   -1    0    0    0    0 -0.00000000000E+00 -0.00000000000E+00 -0.45593999997E+02  0.45594000000E+02  0.51100000000E-03 0.  1.
    9900012    2    1    2    0    0 -0.23984412683E+02 -0.23760527022E+02 -0.22657258111E+02  0.50528855380E+02  0.29999986413E+02 0.  0.
         12    1    1    2    0    0  0.23984412683E+02  0.23760527022E+02  0.22657258111E+02  0.40659144620E+02  0.00000000000E+00 0. -1.
         11    1    3    3    0    0  0.28798641462E+01 -0.12957276137E+01  0.96003837405E+00  0.33006365280E+01  0.51100000000E-03 0. -1.
        -11    1    3    3    0    0 -0.30167292390E+02 -0.18069066872E+02 -0.18581366318E+02  0.39772149580E+02  0.51100000000E-03 0.  1.
        -12    1    3    3    0    0  0.33030155610E+01 -0.43957325369E+01 -0.50359301674E+01  0.74560692716E+01  0.00000000000E+00 0.  1.
</event>
<event>
 7    1  0.6136531E-013  0.5052886E+02  0.7816164E-02  0.1300439E+00
        -11   -1    0    0    0    0  0.00000000000E+00  0.00000000000E+00  0.45593999997E+02  0.45594000000E+02  0.51100000000E-03 0.  1.
         11   -1    0    0    0    0 -0.00000000000E+00 -0.00000000000E+00 -0.45593999997E+02  0.45594000000E+02  0.51100000000E-03 0. -1.
    9900012    2    1    2    0    0 -0.33037214051E+01  0.36964652357E+02  0.16609194516E+02  0.50528862756E+02  0.30000008832E+02 0.  0.
         12    1    1    2    0    0  0.33037214051E+01 -0.36964652357E+02 -0.16609194516E+02  0.40659137244E+02  0.00000000000E+00 0. -1.
         11    1    3    3    0    0 -0.26674360768E+01  0.23805073888E+00  0.50118757540E+01  0.56824978849E+01  0.51100000000E-03 0. -1.
        -11    1    3    3    0    0 -0.43423153736E+01  0.33772222430E+02  0.19599126918E+01  0.34106597143E+02  0.51100000000E-03 0.  1.
        -12    1    3    3    0    0  0.37060300452E+01  0.29543791876E+01  0.96374060700E+01  0.10739767727E+02  0.00000000000E+00 0.  1.
</event>
<event>
 7    1  0.6136531E-013  0.5052886E+02  0.7816164E-02  0.1300439E+00
        -11   -1    0    0    0    0  0.00000000000E+00  0.00000000000E+00  0.45593999997E+02  0.45594000000E+02  0.51100000000E-03 0.  1.
         11   -1    0    0    0    0 -0.00000000000E+00 -0.00000000000E+00 -0.45593999997E+02  0.45594000000E+02  0.51100000000E-03 0. -1.
    9900012    2    1    2    0    0  0.11307004845E+02 -0.38208281736E+02  0.80897723852E+01  0.50528861187E+02  0.30000004064E+02 0.  0.
         12    1    1    2    0    0 -0.11307004845E+02  0.38208281736E+02 -0.80897723852E+01  0.40659138813E+02  0.00000000000E+00 0. -1.
         11    1    3    3    0    0  0.10551716650E+02 -0.21028517369E+01 -0.40390056296E+01  0.11492357305E+02  0.51100000000E-03 0. -1.
        -11    1    3    3    0    0  0.26133706024E+01 -0.29075188472E+02  0.12498537388E+02  0.31755467682E+02  0.51100000000E-03 0.  1.
         12    1    3    3    0    0 -0.18580824075E+01 -0.70302415265E+01 -0.36975937273E+00  0.72810362001E+01  0.00000000000E+00 0. -1.
</event>
<event>
 7    1  0.6136531E-013  0.5052886E+02  0.7816164E-02  0.1300439E+00
        -11   -1    0    0    0    0  0.00000000000E+00  0.00000000000E+00  0.45593999997E+02  0.45594000000E+02  0.51100000000E-03 0. -1.
         11   -1    0    0    0    0 -0.00000000000E+00 -0.00000000000E+00 -0.45593999997E+02  0.45594000000E+02  0.51100000000E-03 0.  1.
    9900012    2    1    2    0    0 -0.24345294832E+02  0.22544291618E+02 -0.23499519866E+02  0.50528857130E+02  0.29999991733E+02 0.  0.
         12    1    1    2    0    0  0.24345294832E+02 -0.22544291618E+02  0.23499519866E+02  0.40659142870E+02  0.00000000000E+00 0. -1.
         11    1    3    3    0    0 -0.81884000732E+01  0.31258114562E+01  0.56423004581E-01  0.87649173890E+01  0.51100000000E-03 0. -1.
        -11    1    3    3    0    0  0.36343209591E+01  0.31689918354E+01 -0.13356203475E+02  0.14199963719E+02  0.51100000000E-03 0.  1.
        -12    1    3    3    0    0 -0.19791215718E+02  0.16249488326E+02 -0.10199739395E+02  0.27563976023E+02  0.00000000000E+00 0.  1.
</event>
<event>
 7    1  0.6136531E-013  0.5052886E+02  0.7816164E-02  0.1300439E+00
        -11   -1    0    0    0    0  0.00000000000E+00  0.00000000000E+00  0.45593999997E+02  0.45594000000E+02  0.51100000000E-03 0. -1.
         11   -1    0    0    0    0 -0.00000000000E+00 -0.00000000000E+00 -0.45593999997E+02  0.45594000000E+02  0.51100000000E-03 0.  1.
    9900012    2    1    2    0    0 -0.88463744381E+01 -0.39356003512E+02  0.51002349584E+01  0.50528858964E+02  0.29999997307E+02 0.  0.
         12    1    1    2    0    0  0.88463744381E+01  0.39356003512E+02 -0.51002349584E+01  0.40659141036E+02  0.00000000000E+00 0. -1.
         11    1    3    3    0    0 -0.29347744672E+01 -0.15735086107E+02  0.48381992153E+01  0.16721662833E+02  0.51100000000E-03 0. -1.
        -11    1    3    3    0    0 -0.43135108413E+01 -0.15274692247E+02 -0.11281618992E+02  0.19472994797E+02  0.51100000000E-03 0.  1.
        -12    1    3    3    0    0 -0.15980891296E+01 -0.83462251577E+01  0.11543654735E+02  0.14334201334E+02  0.00000000000E+00 0.  1.
</event>
<event>
 7    1  0.6136531E-013  0.5052885E+02  0.7816164E-02  0.1300439E+00
        -11   -1    0    0    0    0  0.00000000000E+00  0.00000000000E+00  0.45593999997E+02  0.45594000000E+02  0.51100000000E-03 0. -1.
         11   -1    0    0    0    0 -0.00000000000E+00 -0.00000000000E+00 -0.45593999997E+02  0.45594000000E+02  0.51100000000E-03 0.  1.
    9900012    2    1    2    0    0 -0.23635598649E+02 -0.32929115892E+02  0.31934710892E+01  0.50528850298E+02  0.29999970965E+02 0.  0.
         12    1    1    2    0    0  0.23635598649E+02  0.32929115892E+02 -0.31934710892E+01  0.40659149702E+02  0.00000000000E+00 0. -1.
         11    1    3    3    0    0  0.20304642779E+01 -0.11817020551E+02  0.78367178245E+01  0.14324067383E+02  0.51100000000E-03 0. -1.
        -11    1    3    3    0    0 -0.15909084465E+02 -0.16944418523E+02 -0.87401002028E+01  0.24831464705E+02  0.51100000000E-03 0.  1.
        -12    1    3    3    0    0 -0.97569784611E+01 -0.41676768186E+01  0.40968534675E+01  0.11373318209E+02  0.00000000000E+00 0.  1.
</event>
<event>
 7    1  0.6136531E-013  0.5052886E+02  0.7816164E-02  0.1300439E+00
        -11   -1    0    0    0    0  0.00000000000E+00  0.00000000000E+00  0.45593999997E+02  0.45594000000E+02  0.51100000000E-03 0. -1.
         11   -1    0    0    0    0 -0.00000000000E+00 -0.00000000000E+00 -0.45593999997E+02  0.45594000000E+02  0.51100000000E-03 0.  1.
    9900012    2    1    2    0    0 -0.32793626225E+02  0.18787673934E+02 -0.14992223544E+02  0.50528863516E+02  0.30000011144E+02 0.  0.
         12    1    1    2    0    0  0.32793626225E+02 -0.18787673934E+02  0.14992223544E+02  0.40659136484E+02  0.00000000000E+00 0. -1.
         11    1    3    3    0    0 -0.26767712215E+02  0.14682755526E+02 -0.16892863158E+01  0.30576909844E+02  0.51100000000E-03 0. -1.
        -11    1    3    3    0    0 -0.82312826008E+01  0.70424179103E+01 -0.11697965524E+02  0.15943401799E+02  0.51100000000E-03 0.  1.
         12    1    3    3    0    0  0.22053685909E+01 -0.29374995026E+01 -0.16049717039E+01  0.40085518731E+01  0.00000000000E+00 0. -1.
</event>
<event>
 7    1  0.6136531E-013  0.5052885E+02  0.7816164E-02  0.1300439E+00
        -11   -1    0    0    0    0  0.00000000000E+00  0.00000000000E+00  0.45593999997E+02  0.45594000000E+02  0.51100000000E-03 0. -1.
         11   -1    0    0    0    0 -0.00000000000E+00 -0.00000000000E+00 -0.45593999997E+02  0.45594000000E+02  0.51100000000E-03 0.  1.
    9900012    2    1    2    0    0  0.27419238005E+02  0.29239268862E+02  0.68129914307E+01  0.50528852092E+02  0.29999976419E+02 0.  0.
         12    1    1    2    0    0 -0.27419238005E+02 -0.29239268862E+02 -0.68129914307E+01  0.40659147908E+02  0.00000000000E+00 0. -1.
         11    1    3    3    0    0 -0.73808085256E+00  0.40790281165E+01  0.24507426716E+01  0.48155346145E+01  0.51100000000E-03 0. -1.
        -11    1    3    3    0    0  0.30989729286E+02  0.14046735568E+02  0.28190265785E+01  0.34141192311E+02  0.51100000000E-03 0.  1.
        -12    1    3    3    0    0 -0.28324104281E+01  0.11113505178E+02  0.15432221806E+01  0.11572125167E+02  0.00000000000E+00 0.  1.
</event>
<event>
 7    1  0.6136531E-013  0.5052884E+02  0.7816164E-02  0.1300439E+00
        -11   -1    0    0    0    0  0.00000000000E+00  0.00000000000E+00  0.45593999997E+02  0.45594000000E+02  0.51100000000E-03 0.  1.
         11   -1    0    0    0    0 -0.00000000000E+00 -0.00000000000E+00 -0.45593999997E+02  0.45594000000E+02  0.51100000000E-03 0. -1.
    9900012    2    1    2    0    0  0.22427972498E+02  0.28156521715E+01  0.33796831237E+02  0.50528835606E+02  0.29999926307E+02 0.  0.
         12    1    1    2    0    0 -0.22427972498E+02 -0.28156521715E+01 -0.33796831237E+02  0.40659164394E+02  0.00000000000E+00 0. -1.
         11    1    3    3    0    0  0.16199143558E+02 -0.13345488375E+01  0.38307953569E+01  0.16699349267E+02  0.51100000000E-03 0. -1.
        -11    1    3    3    0    0 -0.22108529168E+01 -0.36024400177E+01  0.74832450097E+01  0.85944401119E+01  0.51100000000E-03 0.  1.
         12    1    3    3    0    0  0.84396818577E+01  0.77526410267E+01  0.22482790871E+02  0.25235046227E+02  0.00000000000E+00 0. -1.
</event>
<event>
 7    1  0.6136531E-013  0.5052886E+02  0.7816164E-02  0.1300439E+00
        -11   -1    0    0    0    0  0.00000000000E+00  0.00000000000E+00  0.45593999997E+02  0.45594000000E+02  0.51100000000E-03 0.  1.
         11   -1    0    0    0    0 -0.00000000000E+00 -0.00000000000E+00 -0.45593999997E+02  0.45594000000E+02  0.51100000000E-03 0. -1.
    9900012    2    1    2    0    0  0.15411533184E+02 -0.16167007933E+02  0.33974668663E+02  0.50528860666E+02  0.30000002481E+02 0.  0.
         12    1    1    2    0    0 -0.15411533184E+02  0.16167007933E+02 -0.33974668663E+02  0.40659139334E+02  0.00000000000E+00 0. -1.
         11    1    3    3    0    0  0.26832615402E+01 -0.13899318633E+02  0.11245190695E+02  0.18078862380E+02  0.51100000000E-03 0.  1.
        -11    1    3    3    0    0  0.16985675941E+02 -0.49944509975E+01  0.14952010731E+02  0.23173699599E+02  0.51100000000E-03 0. -1.
         12    1    3    3    0    0 -0.42574042970E+01  0.27267616972E+01  0.77774672376E+01  0.92762986871E+01  0.00000000000E+00 0. -1.
</event>
<event>
 7    1  0.6136531E-013  0.5052894E+02  0.7816164E-02  0.1300439E+00
        -11   -1    0    0    0    0  0.00000000000E+00  0.00000000000E+00  0.45593999997E+02  0.45594000000E+02  0.51100000000E-03 0. -1.
         11   -1    0    0    0    0 -0.00000000000E+00 -0.00000000000E+00 -0.45593999997E+02  0.45594000000E+02  0.51100000000E-03 0.  1.
    9900012    2    1    2    0    0 -0.29182228914E+02  0.26112500855E+02 -0.10940468150E+02  0.50528941616E+02  0.30000248536E+02 0.  0.
         12    1    1    2    0    0  0.29182228914E+02 -0.26112500855E+02  0.10940468150E+02  0.40659058384E+02  0.00000000000E+00 0. -1.
         11    1    3    3    0    0  0.20075881277E+01  0.27172673191E+01 -0.25717715380E+01  0.42459346296E+01  0.51100000000E-03 0. -1.
        -11    1    3    3    0    0 -0.30863823973E+02  0.12783796891E+02 -0.11151390237E+01  0.33425209476E+02  0.51100000000E-03 0.  1.
        -12    1    3    3    0    0 -0.32599306892E+00  0.10611436645E+02 -0.72535575888E+01  0.12857797511E+02  0.00000000000E+00 0.  1.
</event>
<event>
 7    1  0.6136531E-013  0.5052888E+02  0.7816164E-02  0.1300439E+00
        -11   -1    0    0    0    0  0.00000000000E+00  0.00000000000E+00  0.45593999997E+02  0.45594000000E+02  0.51100000000E-03 0.  1.
         11   -1    0    0    0    0 -0.00000000000E+00 -0.00000000000E+00 -0.45593999997E+02  0.45594000000E+02  0.51100000000E-03 0. -1.
    9900012    2    1    2    0    0 -0.22408656597E+02 -0.18194734807E+02  0.28635086530E+02  0.50528875000E+02  0.30000046051E+02 0.  0.
         12    1    1    2    0    0  0.22408656597E+02  0.18194734807E+02 -0.28635086530E+02  0.40659125000E+02  0.00000000000E+00 0. -1.
         11    1    3    3    0    0 -0.23805985915E+02 -0.96734834013E+01  0.71172260745E+01  0.26663761058E+02  0.51100000000E-03 0. -1.
        -11    1    3    3    0    0  0.31675596406E+01 -0.34788919028E+01  0.12827042278E+02  0.13662691419E+02  0.51100000000E-03 0.  1.
         12    1    3    3    0    0 -0.17702303221E+01 -0.50423595029E+01  0.86908181771E+01  0.10202422523E+02  0.00000000000E+00 0. -1.
</event>
<event>
 7    1  0.6136531E-013  0.5052886E+02  0.7816164E-02  0.1300439E+00
        -11   -1    0    0    0    0  0.00000000000E+00  0.00000000000E+00  0.45593999997E+02  0.45594000000E+02  0.51100000000E-03 0.  1.
         11   -1    0    0    0    0 -0.00000000000E+00 -0.00000000000E+00 -0.45593999997E+02  0.45594000000E+02  0.51100000000E-03 0. -1.
    9900012    2    1    2    0    0  0.37409433040E+02  0.11820562138E+02  0.10675886212E+02  0.50528856920E+02  0.29999991094E+02 0.  0.
         12    1    1    2    0    0 -0.37409433040E+02 -0.11820562138E+02 -0.10675886212E+02  0.40659143080E+02  0.00000000000E+00 0. -1.
         11    1    3    3    0    0 -0.19915526939E+01  0.36410747111E+01 -0.23766938144E+01  0.47825078079E+01  0.51100000000E-03 0. -1.
        -11    1    3    3    0    0  0.16694522098E+02 -0.26345251059E+00  0.13569822129E+02  0.21515495537E+02  0.51100000000E-03 0.  1.
         12    1    3    3    0    0  0.22706463635E+02  0.84429399371E+01 -0.51724210282E+00  0.24230853576E+02  0.00000000000E+00 0. -1.
</event>
<event>
 7    1  0.6136531E-013  0.5052886E+02  0.7816164E-02  0.1300439E+00
        -11   -1    0    0    0    0  0.00000000000E+00  0.00000000000E+00  0.45593999997E+02  0.45594000000E+02  0.51100000000E-03 0. -1.
         11   -1    0    0    0    0 -0.00000000000E+00 -0.00000000000E+00 -0.45593999997E+02  0.45594000000E+02  0.51100000000E-03 0.  1.
    9900012    2    1    2    0    0 -0.31696908525E+02 -0.38365689796E+01 -0.25174433956E+02  0.50528863308E+02  0.30000010510E+02 0.  0.
         12    1    1    2    0    0  0.31696908525E+02  0.38365689796E+01  0.25174433956E+02  0.40659136692E+02  0.00000000000E+00 0. -1.
         11    1    3    3    0    0  0.12669798103E+01 -0.54628234431E+01 -0.91257472649E-01  0.56085654135E+01  0.51100000000E-03 0. -1.
        -11    1    3    3    0    0 -0.27952968771E+02  0.75894547567E+01 -0.22620361339E+02  0.36751177314E+02  0.51100000000E-03 0.  1.
        -12    1    3    3    0    0 -0.50109195648E+01 -0.59632002932E+01 -0.24628151446E+01  0.81691205804E+01  0.00000000000E+00 0.  1.
</event>
<event>
 7    1  0.6136531E-013  0.5052885E+02  0.7816164E-02  0.1300439E+00
        -11   -1    0    0    0    0  0.00000000000E+00  0.00000000000E+00  0.45593999997E+02  0.45594000000E+02  0.51100000000E-03 0. -1.
         11   -1    0    0    0    0 -0.00000000000E+00 -0.00000000000E+00 -0.45593999997E+02  0.45594000000E+02  0.51100000000E-03 0.  1.
    9900012    2    1    2    0    0 -0.30664212418E+01 -0.31286019647E+02 -0.25786589436E+02  0.50528853928E+02  0.29999981999E+02 0.  0.
         12    1    1    2    0    0  0.30664212418E+01  0.31286019647E+02  0.25786589436E+02  0.40659146072E+02  0.00000000000E+00 0. -1.
         11    1    3    3    0    0  0.64086050774E+01 -0.18693446321E+02 -0.35437358507E+01  0.20076683452E+02  0.51100000000E-03 0. -1.
        -11    1    3    3    0    0 -0.20070966170E+01 -0.97049519747E+01 -0.19698302885E+02  0.22050797411E+02  0.51100000000E-03 0.  1.
        -12    1    3    3    0    0 -0.74679297022E+01 -0.28876213510E+01 -0.25445507003E+01  0.84013730646E+01  0.00000000000E+00 0.  1.
</event>
<event>
 7    1  0.6136531E-013  0.5052883E+02  0.7816164E-02  0.1300439E+00
        -11   -1    0    0    0    0  0.00000000000E+00  0.00000000000E+00  0.45593999997E+02  0.45594000000E+02  0.51100000000E-03 0.  1.
         11   -1    0    0    0    0 -0.00000000000E+00 -0.00000000000E+00 -0.45593999997E+02  0.45594000000E+02  0.51100000000E-03 0. -1.
    9900012    2    1    2    0    0 -0.17133079302E+01 -0.12596239945E+00  0.40622860297E+02  0.50528830440E+02  0.29999910605E+02 0.  0.
         12    1    1    2    0    0  0.17133079302E+01  0.12596239945E+00 -0.40622860297E+02  0.40659169560E+02  0.00000000000E+00 0. -1.
         11    1    3    3    0    0 -0.56746490443E+01 -0.59697871350E+01  0.10891059389E+02  0.13654859029E+02  0.51100000000E-03 0. -1.
        -11    1    3    3    0    0  0.81835048362E+01 -0.31330597352E+01  0.23690005707E+02  0.25258705140E+02  0.51100000000E-03 0.  1.
        -12    1    3    3    0    0 -0.42221637222E+01  0.89768844708E+01  0.60417952017E+01  0.11615266272E+02  0.00000000000E+00 0.  1.
</event>
<event>
 7    1  0.6136531E-013  0.5052886E+02  0.7816164E-02  0.1300439E+00
        -11   -1    0    0    0    0  0.00000000000E+00  0.00000000000E+00  0.45593999997E+02  0.45594000000E+02  0.51100000000E-03 0.  1.
         11   -1    0    0    0    0 -0.00000000000E+00 -0.00000000000E+00 -0.45593999997E+02  0.45594000000E+02  0.51100000000E-03 0. -1.
    9900012    2    1    2    0    0  0.18852278260E+02  0.11610750045E+02  0.34102020761E+02  0.50528859180E+02  0.29999997965E+02 0.  0.
         12    1    1    2    0    0 -0.18852278260E+02 -0.11610750045E+02 -0.34102020761E+02  0.40659140820E+02  0.00000000000E+00 0. -1.
         11    1    3    3    0    0  0.17015822354E+01  0.26771737087E+01 -0.34955320348E+01  0.47203162646E+01  0.51100000000E-03 0. -1.
        -11    1    3    3    0    0  0.20625126197E+02  0.85437129858E+01  0.34731918481E+02  0.41287976747E+02  0.51100000000E-03 0.  1.
        -12    1    3    3    0    0 -0.34744301728E+01  0.38986335077E+00  0.28656343148E+01  0.45205661685E+01  0.00000000000E+00 0.  1.
</event>
<event>
 7    1  0.6136531E-013  0.5052886E+02  0.7816164E-02  0.1300439E+00
        -11   -1    0    0    0    0  0.00000000000E+00  0.00000000000E+00  0.45593999997E+02  0.45594000000E+02  0.51100000000E-03 0.  1.
         11   -1    0    0    0    0 -0.00000000000E+00 -0.00000000000E+00 -0.45593999997E+02  0.45594000000E+02  0.51100000000E-03 0. -1.
    9900012    2    1    2    0    0 -0.52682407681E+00 -0.39111846788E+02  0.11097357566E+02  0.50528862679E+02  0.30000008599E+02 0.  0.
         12    1    1    2    0    0  0.52682407681E+00  0.39111846788E+02 -0.11097357566E+02  0.40659137321E+02  0.00000000000E+00 0. -1.
         11    1    3    3    0    0 -0.31318377677E+01 -0.10003076176E+01  0.25308850539E+00  0.32974349403E+01  0.51100000000E-03 0. -1.
        -11    1    3    3    0    0 -0.30111993171E+01 -0.37052665380E+02  0.26876705868E+01  0.37271851396E+02  0.51100000000E-03 0.  1.
        -12    1    3    3    0    0  0.56162130080E+01 -0.10588737905E+01  0.81565984737E+01  0.99595763422E+01  0.00000000000E+00 0.  1.
</event>
<event>
 7    1  0.6136531E-013  0.5052886E+02  0.7816164E-02  0.1300439E+00
        -11   -1    0    0    0    0  0.00000000000E+00  0.00000000000E+00  0.45593999997E+02  0.45594000000E+02  0.51100000000E-03 0.  1.
         11   -1    0    0    0    0 -0.00000000000E+00 -0.00000000000E+00 -0.45593999997E+02  0.45594000000E+02  0.51100000000E-03 0. -1.
    9900012    2    1    2    0    0  0.77967172935E+01  0.36019107343E+02  0.17175577385E+02  0.50528863845E+02  0.30000012144E+02 0.  0.
         12    1    1    2    0    0 -0.77967172935E+01 -0.36019107343E+02 -0.17175577385E+02  0.40659136155E+02  0.00000000000E+00 0. -1.
         11    1    3    3    0    0  0.12540449377E+02  0.28187939096E+02  0.12708958894E+02  0.33366756173E+02  0.51100000000E-03 0. -1.
        -11    1    3    3    0    0 -0.10709309274E+01  0.14445401508E+01  0.85511786186E+01  0.87382060702E+01  0.51100000000E-03 0.  1.
         12    1    3    3    0    0 -0.36728011556E+01  0.63866280963E+01 -0.40845601275E+01  0.84239016022E+01  0.00000000000E+00 0. -1.
</event>
<event>
 7    1  0.6136531E-013  0.5052886E+02  0.7816164E-02  0.1300439E+00
        -11   -1    0    0    0    0  0.00000000000E+00  0.00000000000E+00  0.45593999997E+02  0.45594000000E+02  0.51100000000E-03 0. -1.
         11   -1    0    0    0    0 -0.00000000000E+00 -0.00000000000E+00 -0.45593999997E+02  0.45594000000E+02  0.51100000000E-03 0.  1.
    9900012    2    1    2    0    0  0.39922336026E+02  0.74442504890E+01  0.19888689017E+01  0.50528863528E+02  0.30000011180E+02 0.  0.
         12    1    1    2    0    0 -0.39922336026E+02 -0.74442504890E+01 -0.19888689017E+01  0.40659136472E+02  0.00000000000E+00 0. -1.
         11    1    3    3    0    0  0.26366977508E+01  0.60324999091E+01  0.29503757586E+01  0.72144263501E+01  0.51100000000E-03 0. -1.
        -11    1    3    3    0    0  0.10617231812E+02 -0.37145872355E+01 -0.96304064957E+01  0.14807717556E+02  0.51100000000E-03 0.  1.
        -12    1    3    3    0    0  0.26668406463E+02  0.51263378154E+01  0.86688996387E+01  0.28506719622E+02  0.00000000000E+00 0.  1.
</event>
<event>
 7    1  0.6136531E-013  0.5052886E+02  0.7816164E-02  0.1300439E+00
        -11   -1    0    0    0    0  0.00000000000E+00  0.00000000000E+00  0.45593999997E+02  0.45594000000E+02  0.51100000000E-03 0. -1.
         11   -1    0    0    0    0 -0.00000000000E+00 -0.00000000000E+00 -0.45593999997E+02  0.45594000000E+02  0.51100000000E-03 0.  1.
    9900012    2    1    2    0    0  0.57334278275E+01 -0.32772499265E+02 -0.23372139183E+02  0.50528858436E+02  0.29999995702E+02 0.  0.
         12    1    1    2    0    0 -0.57334278275E+01  0.32772499265E+02  0.23372139183E+02  0.40659141564E+02  0.00000000000E+00 0. -1.
         11    1    3    3    0    0  0.10528888913E+02 -0.10104540637E+02 -0.23224563893E+01  0.14776773909E+02  0.51100000000E-03 0. -1.
        -11    1    3    3    0    0 -0.91542392010E+01 -0.82071289450E+01 -0.15213233975E+02  0.19560152073E+02  0.51100000000E-03 0.  1.
        -12    1    3    3    0    0  0.43587781152E+01 -0.14460829683E+02 -0.58364488188E+01  0.16191932454E+02  0.00000000000E+00 0.  1.
</event>
<event>
 7    1  0.6136531E-013  0.5052886E+02  0.7816164E-02  0.1300439E+00
        -11   -1    0    0    0    0  0.00000000000E+00  0.00000000000E+00  0.45593999997E+02  0.45594000000E+02  0.51100000000E-03 0.  1.
         11   -1    0    0    0    0 -0.00000000000E+00 -0.00000000000E+00 -0.45593999997E+02  0.45594000000E+02  0.51100000000E-03 0. -1.
    9900012    2    1    2    0    0 -0.88001740414E+01 -0.38058995490E+02  0.11279856121E+02  0.50528863819E+02  0.30000012065E+02 0.  0.
         12    1    1    2    0    0  0.88001740414E+01  0.38058995490E+02 -0.11279856121E+02  0.40659136181E+02  0.00000000000E+00 0. -1.
         11    1    3    3    0    0 -0.85071994989E+01 -0.24969410422E+01 -0.35000620084E+01  0.95319248951E+01  0.51100000000E-03 0. -1.
        -11    1    3    3    0    0  0.37788227077E+01 -0.30730365316E+02  0.85433428543E+01  0.32118897255E+02  0.51100000000E-03 0.  1.
        -12    1    3    3    0    0 -0.40717972503E+01 -0.48316891316E+01  0.62365752753E+01  0.88780416690E+01  0.00000000000E+00 0.  1.
</event>
<event>
 7    1  0.6136531E-013  0.5052886E+02  0.7816164E-02  0.1300439E+00
        -11   -1    0    0    0    0  0.00000000000E+00  0.00000000000E+00  0.45593999997E+02  0.45594000000E+02  0.51100000000E-03 0.  1.
         11   -1    0    0    0    0 -0.00000000000E+00 -0.00000000000E+00 -0.45593999997E+02  0.45594000000E+02  0.51100000000E-03 0. -1.
    9900012    2    1    2    0    0 -0.21886156156E+02  0.15668561636E+02  0.30473890058E+02  0.50528860433E+02  0.30000001771E+02 0.  0.
         12    1    1    2    0    0  0.21886156156E+02 -0.15668561636E+02 -0.30473890058E+02  0.40659139567E+02  0.00000000000E+00 0. -1.
         11    1    3    3    0    0 -0.11872514980E+02  0.11196242075E+02  0.12405303616E+02  0.20498878179E+02  0.51100000000E-03 0. -1.
        -11    1    3    3    0    0  0.15188445402E+01  0.59398903609E+01 -0.23237553758E+01  0.65566016766E+01  0.51100000000E-03 0.  1.
        -12    1    3    3    0    0 -0.11532485717E+02 -0.14675707997E+01  0.20392341818E+02  0.23473380577E+02  0.00000000000E+00 0.  1.
</event>
<event>
 7    1  0.6136531E-013  0.5052890E+02  0.7816164E-02  0.1300439E+00
        -11   -1    0    0    0    0  0.00000000000E+00  0.00000000000E+00  0.45593999997E+02  0.45594000000E+02  0.51100000000E-03 0. -1.
         11   -1    0    0    0    0 -0.00000000000E+00 -0.00000000000E+00 -0.45593999997E+02  0.45594000000E+02  0.51100000000E-03 0.  1.
    9900012    2    1    2    0    0  0.12868086021E+02 -0.37448183649E+02 -0.92308477235E+01  0.50528897131E+02  0.30000113319E+02 0.  0.
         12    1    1    2    0    0 -0.12868086021E+02  0.37448183649E+02  0.92308477235E+01  0.40659102869E+02  0.00000000000E+00 0. -1.
         11    1    3    3    0    0  0.17896536872E+02 -0.20714777950E+02 -0.11472838459E+02  0.29681881344E+02  0.51100000000E-03 0. -1.
        -11    1    3    3    0    0 -0.10779388218E+01 -0.16715978823E+02  0.14110725194E+01  0.16810027544E+02  0.51100000000E-03 0.  1.
        -12    1    3    3    0    0 -0.39505120299E+01 -0.17426875496E-01  0.83091821574E+00  0.40369882432E+01  0.00000000000E+00 0.  1.
</event>
<event>
 7    1  0.6136531E-013  0.5052886E+02  0.7816164E-02  0.1300439E+00
        -11   -1    0    0    0    0  0.00000000000E+00  0.00000000000E+00  0.45593999997E+02  0.45594000000E+02  0.51100000000E-03 0. -1.
         11   -1    0    0    0    0 -0.00000000000E+00 -0.00000000000E+00 -0.45593999997E+02  0.45594000000E+02  0.51100000000E-03 0.  1.
    9900012    2    1    2    0    0 -0.40346234648E+02 -0.50146017753E+01 -0.44775495817E+00  0.50528863686E+02  0.30000011661E+02 0.  0.
         12    1    1    2    0    0  0.40346234648E+02  0.50146017753E+01  0.44775495817E+00  0.40659136314E+02  0.00000000000E+00 0. -1.
         11    1    3    3    0    0  0.17644883639E+01 -0.78926291541E+01 -0.15735326482E+01  0.82391152078E+01  0.51100000000E-03 0. -1.
        -11    1    3    3    0    0 -0.23292093338E+02  0.42601997662E+00  0.77008372790E+00  0.23308713698E+02  0.51100000000E-03 0.  1.
         12    1    3    3    0    0 -0.18818629675E+02  0.24520074022E+01  0.35569396212E+00  0.18981034780E+02  0.00000000000E+00 0. -1.
</event>
<event>
 7    1  0.6136531E-013  0.5052886E+02  0.7816164E-02  0.1300439E+00
        -11   -1    0    0    0    0  0.00000000000E+00  0.00000000000E+00  0.45593999997E+02  0.45594000000E+02  0.51100000000E-03 0.  1.
         11   -1    0    0    0    0 -0.00000000000E+00 -0.00000000000E+00 -0.45593999997E+02  0.45594000000E+02  0.51100000000E-03 0. -1.
    9900012    2    1    2    0    0 -0.11120642353E+02  0.55180120895E+00  0.39104894395E+02  0.50528856667E+02  0.29999990325E+02 0.  0.
         12    1    1    2    0    0  0.11120642353E+02 -0.55180120895E+00 -0.39104894395E+02  0.40659143333E+02  0.00000000000E+00 0. -1.
         11    1    3    3    0    0  0.46786323541E+01 -0.60506168016E+01  0.24235941787E+01  0.80233019006E+01  0.51100000000E-03 0. -1.
        -11    1    3    3    0    0 -0.94790637129E+01  0.15293471294E+00  0.29445862804E+02  0.30934363974E+02  0.51100000000E-03 0.  1.
         12    1    3    3    0    0 -0.63202109941E+01  0.64494832976E+01  0.72354374120E+01  0.11571190793E+02  0.00000000000E+00 0. -1.
</event>
<event>
 7    1  0.6136531E-013  0.5052886E+02  0.7816164E-02  0.1300439E+00
        -11   -1    0    0    0    0  0.00000000000E+00  0.00000000000E+00  0.45593999997E+02  0.45594000000E+02  0.51100000000E-03 0. -1.
         11   -1    0    0    0    0 -0.00000000000E+00 -0.00000000000E+00 -0.45593999997E+02  0.45594000000E+02  0.51100000000E-03 0.  1.
    9900012    2    1    2    0    0  0.34173380059E+02 -0.17036985825E+02 -0.13967353205E+02  0.50528859008E+02  0.29999997441E+02 0.  0.
         12    1    1    2    0    0 -0.34173380059E+02  0.17036985825E+02  0.13967353205E+02  0.40659140992E+02  0.00000000000E+00 0. -1.
         11    1    3    3    0    0  0.79841311123E+01  0.18606761477E+01  0.56555330630E+01  0.99595943608E+01  0.51100000000E-03 0. -1.
        -11    1    3    3    0    0  0.27445534138E+02 -0.14883034662E+02 -0.16375630170E+02  0.35255117764E+02  0.51100000000E-03 0.  1.
        -12    1    3    3    0    0 -0.12562851914E+01 -0.40146273110E+01 -0.32472560985E+01  0.53141468833E+01  0.00000000000E+00 0.  1.
</event>
<event>
 7    1  0.6136531E-013  0.5052886E+02  0.7816164E-02  0.1300439E+00
        -11   -1    0    0    0    0  0.00000000000E+00  0.00000000000E+00  0.45593999997E+02  0.45594000000E+02  0.51100000000E-03 0.  1.
         11   -1    0    0    0    0 -0.00000000000E+00 -0.00000000000E+00 -0.45593999997E+02  0.45594000000E+02  0.51100000000E-03 0. -1.
    9900012    2    1    2    0    0 -0.25097091766E+02 -0.21604665521E+02  0.23591105003E+02  0.50528858068E+02  0.29999994583E+02 0.  0.
         12    1    1    2    0    0  0.25097091766E+02  0.21604665521E+02 -0.23591105003E+02  0.40659141932E+02  0.00000000000E+00 0. -1.
         11    1    3    3    0    0 -0.96382272992E+01 -0.19633732081E+02  0.27043964981E+01  0.22038435098E+02  0.51100000000E-03 0. -1.
        -11    1    3    3    0    0 -0.38885993424E+01  0.46099812001E+01  0.73156665402E+01  0.94811449045E+01  0.51100000000E-03 0.  1.
        -12    1    3    3    0    0 -0.11570265124E+02 -0.65809146408E+01  0.13571041965E+02  0.19009278065E+02  0.00000000000E+00 0.  1.
</event>
<event>
 7    1  0.6136531E-013  0.5052887E+02  0.7816164E-02  0.1300439E+00
        -11   -1    0    0    0    0  0.00000000000E+00  0.00000000000E+00  0.45593999997E+02  0.45594000000E+02  0.51100000000E-03 0.  1.
         11   -1    0    0    0    0 -0.00000000000E+00 -0.00000000000E+00 -0.45593999997E+02  0.45594000000E+02  0.51100000000E-03 0. -1.
    9900012    2    1    2    0    0  0.10413922921E+02 -0.27877205813E+02  0.27705177287E+02  0.50528865196E+02  0.30000016248E+02 0.  0.
         12    1    1    2    0    0 -0.10413922921E+02  0.27877205813E+02 -0.27705177287E+02  0.40659134804E+02  0.00000000000E+00 0. -1.
         11    1    3    3    0    0  0.12061679483E+02 -0.72175310126E+01  0.20472029764E+02  0.24833059997E+02  0.51100000000E-03 0. -1.
        -11    1    3    3    0    0 -0.66823144441E+01 -0.55906690118E+01  0.17355809227E+01  0.88837575231E+01  0.51100000000E-03 0.  1.
        -12    1    3    3    0    0  0.50345578829E+01 -0.15069005789E+02  0.54975665997E+01  0.16812047676E+02  0.00000000000E+00 0.  1.
</event>
<event>
 7    1  0.6136531E-013  0.5052886E+02  0.7816164E-02  0.1300439E+00
        -11   -1    0    0    0    0  0.00000000000E+00  0.00000000000E+00  0.45593999997E+02  0.45594000000E+02  0.51100000000E-03 0.  1.
         11   -1    0    0    0    0 -0.00000000000E+00 -0.00000000000E+00 -0.45593999997E+02  0.45594000000E+02  0.51100000000E-03 0. -1.
    9900012    2    1    2    0    0 -0.28876497674E+02  0.27665896779E+02 -0.73424755596E+01  0.50528856996E+02  0.29999991325E+02 0.  0.
         12    1    1    2    0    0  0.28876497674E+02 -0.27665896779E+02  0.73424755596E+01  0.40659143004E+02  0.00000000000E+00 0. -1.
         11    1    3    3    0    0 -0.13825867937E+02  0.30995520818E+01 -0.13126198781E+02  0.19314733806E+02  0.51100000000E-03 0. -1.
        -11    1    3    3    0    0 -0.12610704742E+02  0.13264885433E+02  0.69845798914E+01  0.19590084639E+02  0.51100000000E-03 0.  1.
         12    1    3    3    0    0 -0.24399249946E+01  0.11301459264E+02 -0.12008566701E+01  0.11624038551E+02  0.00000000000E+00 0. -1.
</event>
<event>
 7    1  0.6136531E-013  0.5052886E+02  0.7816164E-02  0.1300439E+00
        -11   -1    0    0    0    0  0.00000000000E+00  0.00000000000E+00  0.45593999997E+02  0.45594000000E+02  0.51100000000E-03 0.  1.
         11   -1    0    0    0    0 -0.00000000000E+00 -0.00000000000E+00 -0.45593999997E+02  0.45594000000E+02  0.51100000000E-03 0. -1.
    9900012    2    1    2    0    0 -0.20432733862E+02 -0.10272660740E+02  0.33617576549E+02  0.50528860501E+02  0.30000001979E+02 0.  0.
         12    1    1    2    0    0  0.20432733862E+02  0.10272660740E+02 -0.33617576549E+02  0.40659139499E+02  0.00000000000E+00 0. -1.
         11    1    3    3    0    0 -0.11928318339E+02 -0.14570552565E+02  0.28209826509E+02  0.33917253608E+02  0.51100000000E-03 0.  1.
        -11    1    3    3    0    0 -0.19206698960E+01  0.45869108693E+01 -0.30925150440E+01  0.58559690684E+01  0.51100000000E-03 0. -1.
         12    1    3    3    0    0 -0.65837456279E+01 -0.28901904412E+00  0.85002650844E+01  0.10755637824E+02  0.00000000000E+00 0. -1.
</event>
<event>
 7    1  0.6136531E-013  0.5052886E+02  0.7816164E-02  0.1300439E+00
        -11   -1    0    0    0    0  0.00000000000E+00  0.00000000000E+00  0.45593999997E+02  0.45594000000E+02  0.51100000000E-03 0.  1.
         11   -1    0    0    0    0 -0.00000000000E+00 -0.00000000000E+00 -0.45593999997E+02  0.45594000000E+02  0.51100000000E-03 0. -1.
    9900012    2    1    2    0    0 -0.17001718119E+02  0.32645553003E+02  0.17273542584E+02  0.50528858060E+02  0.29999994559E+02 0.  0.
         12    1    1    2    0    0  0.17001718119E+02 -0.32645553003E+02 -0.17273542584E+02  0.40659141940E+02  0.00000000000E+00 0. -1.
         11    1    3    3    0    0  0.15414882184E+01 -0.21314268492E+01  0.18088989533E+01  0.31923787409E+01  0.51100000000E-03 0. -1.
        -11    1    3    3    0    0 -0.16967334458E+01  0.39165802163E+01  0.11118569585E+02  0.11909705910E+02  0.51100000000E-03 0.  1.
        -12    1    3    3    0    0 -0.16846472891E+02  0.30860399636E+02  0.43460740459E+01  0.35426773409E+02  0.00000000000E+00 0.  1.
</event>
<event>
 7    1  0.6136531E-013  0.5052887E+02  0.7816164E-02  0.1300439E+00
        -11   -1    0    0    0    0  0.00000000000E+00  0.00000000000E+00  0.45593999997E+02  0.45594000000E+02  0.51100000000E-03 0.  1.
         11   -1    0    0    0    0 -0.00000000000E+00 -0.00000000000E+00 -0.45593999997E+02  0.45594000000E+02  0.51100000000E-03 0. -1.
    9900012    2    1    2    0    0 -0.14064592705E+02 -0.58813215051E+01  0.37692999742E+02  0.50528868920E+02  0.30000027571E+02 0.  0.
         12    1    1    2    0    0  0.14064592705E+02  0.58813215051E+01 -0.37692999742E+02  0.40659131080E+02  0.00000000000E+00 0. -1.
         11    1    3    3    0    0 -0.63969721914E+01 -0.15329664332E+02  0.14822586307E+02  0.22262725054E+02  0.51100000000E-03 0. -1.
        -11    1    3    3    0    0 -0.44091540234E+01  0.33991076479E+01  0.20101473702E+02  0.20858183461E+02  0.51100000000E-03 0.  1.
         12    1    3    3    0    0 -0.32584664906E+01  0.60492351795E+01  0.27689397325E+01  0.74079604055E+01  0.00000000000E+00 0. -1.
</event>
<event>
 7    1  0.6136531E-013  0.5052886E+02  0.7816164E-02  0.1300439E+00
        -11   -1    0    0    0    0  0.00000000000E+00  0.00000000000E+00  0.45593999997E+02  0.45594000000E+02  0.51100000000E-03 0.  1.
         11   -1    0    0    0    0 -0.00000000000E+00 -0.00000000000E+00 -0.45593999997E+02  0.45594000000E+02  0.51100000000E-03 0. -1.
    9900012    2    1    2    0    0  0.88967801315E+01  0.39609333289E+02 -0.22613311093E+01  0.50528860822E+02  0.30000002953E+02 0.  0.
         12    1    1    2    0    0 -0.88967801315E+01 -0.39609333289E+02  0.22613311093E+01  0.40659139178E+02  0.00000000000E+00 0. -1.
         11    1    3    3    0    0  0.11294659374E+01  0.20259281321E+01 -0.94207682041E+01  0.97021106939E+01  0.51100000000E-03 0. -1.
        -11    1    3    3    0    0  0.50705628037E+01  0.28691565793E+02  0.10473805098E+02  0.30961543055E+02  0.51100000000E-03 0.  1.
        -12    1    3    3    0    0  0.26967513903E+01  0.88918393639E+01 -0.33143680032E+01  0.98652070731E+01  0.00000000000E+00 0.  1.
</event>
<event>
 7    1  0.6136531E-013  0.5052888E+02  0.7816164E-02  0.1300439E+00
        -11   -1    0    0    0    0  0.00000000000E+00  0.00000000000E+00  0.45593999997E+02  0.45594000000E+02  0.51100000000E-03 0.  1.
         11   -1    0    0    0    0 -0.00000000000E+00 -0.00000000000E+00 -0.45593999997E+02  0.45594000000E+02  0.51100000000E-03 0. -1.
    9900012    2    1    2    0    0 -0.27398176846E+02 -0.23292646521E+02  0.18972521385E+02  0.50528879939E+02  0.30000061062E+02 0.  0.
         12    1    1    2    0    0  0.27398176846E+02  0.23292646521E+02 -0.18972521385E+02  0.40659120061E+02  0.00000000000E+00 0. -1.
         11    1    3    3    0    0  0.22883244932E+01 -0.80320946725E+01  0.84349081525E+01  0.11870073699E+02  0.51100000000E-03 0. -1.
        -11    1    3    3    0    0 -0.23068968794E+02 -0.18077502548E+02  0.11332422091E+02  0.31422877181E+02  0.51100000000E-03 0.  1.
         12    1    3    3    0    0 -0.66175325449E+01  0.28169506999E+01 -0.79480885785E+00  0.72359290592E+01  0.00000000000E+00 0. -1.
</event>
<event>
 7    1  0.6136531E-013  0.5052884E+02  0.7816164E-02  0.1300439E+00
        -11   -1    0    0    0    0  0.00000000000E+00  0.00000000000E+00  0.45593999997E+02  0.45594000000E+02  0.51100000000E-03 0.  1.
         11   -1    0    0    0    0 -0.00000000000E+00 -0.00000000000E+00 -0.45593999997E+02  0.45594000000E+02  0.51100000000E-03 0. -1.
    9900012    2    1    2    0    0  0.35948363955E+02  0.11426929575E+02  0.15175905456E+02  0.50528835019E+02  0.29999924522E+02 0.  0.
         12    1    1    2    0    0 -0.35948363955E+02 -0.11426929575E+02 -0.15175905456E+02  0.40659164981E+02  0.00000000000E+00 0. -1.
         11    1    3    3    0    0  0.19142600761E+02  0.19616300234E+02  0.12288640338E+02  0.30037461284E+02  0.51100000000E-03 0. -1.
        -11    1    3    3    0    0  0.14231527227E+02 -0.60121165339E+01  0.53135790678E+01  0.16337565156E+02  0.51100000000E-03 0.  1.
         12    1    3    3    0    0  0.25742359663E+01 -0.21772541244E+01 -0.24263139491E+01  0.41538085791E+01  0.00000000000E+00 0. -1.
</event>
<event>
 7    1  0.6136531E-013  0.5052886E+02  0.7816164E-02  0.1300439E+00
        -11   -1    0    0    0    0  0.00000000000E+00  0.00000000000E+00  0.45593999997E+02  0.45594000000E+02  0.51100000000E-03 0.  1.
         11   -1    0    0    0    0 -0.00000000000E+00 -0.00000000000E+00 -0.45593999997E+02  0.45594000000E+02  0.51100000000E-03 0. -1.
    9900012    2    1    2    0    0 -0.19207871337E+02 -0.20158019273E+02  0.29628999677E+02  0.50528859771E+02  0.29999999761E+02 0.  0.
         12    1    1    2    0    0  0.19207871337E+02  0.20158019273E+02 -0.29628999677E+02  0.40659140229E+02  0.00000000000E+00 0. -1.
         11    1    3    3    0    0 -0.11378490630E+02 -0.80665159798E+01  0.10882709979E+01  0.13990105900E+02  0.51100000000E-03 0. -1.
        -11    1    3    3    0    0 -0.13004095132E+02 -0.80690868850E+01  0.24347678635E+02  0.28758061627E+02  0.51100000000E-03 0.  1.
        -12    1    3    3    0    0  0.51747144245E+01 -0.40224164080E+01  0.41930500436E+01  0.77806922444E+01  0.00000000000E+00 0.  1.
</event>
<event>
 7    1  0.6136531E-013  0.5052886E+02  0.7816164E-02  0.1300439E+00
        -11   -1    0    0    0    0  0.00000000000E+00  0.00000000000E+00  0.45593999997E+02  0.45594000000E+02  0.51100000000E-03 0. -1.
         11   -1    0    0    0    0 -0.00000000000E+00 -0.00000000000E+00 -0.45593999997E+02  0.45594000000E+02  0.51100000000E-03 0.  1.
    9900012    2    1    2    0    0 -0.76034109852E+01 -0.10551660464E+02 -0.38522929050E+02  0.50528862531E+02  0.30000008148E+02 0.  0.
         12    1    1    2    0    0  0.76034109852E+01  0.10551660464E+02  0.38522929050E+02  0.40659137469E+02  0.00000000000E+00 0. -1.
         11    1    3    3    0    0  0.72021711444E+00 -0.10049571496E+02 -0.12250951097E+00  0.10076090947E+02  0.51100000000E-03 0.  1.
        -11    1    3    3    0    0 -0.38115556575E+01 -0.17675992481E+01 -0.33150100388E+02  0.33415288711E+02  0.51100000000E-03 0. -1.
        -12    1    3    3    0    0 -0.45120724421E+01  0.12655102796E+01 -0.52503191508E+01  0.70374828721E+01  0.00000000000E+00 0.  1.
</event>
<event>
 7    1  0.6136531E-013  0.5052885E+02  0.7816164E-02  0.1300439E+00
        -11   -1    0    0    0    0  0.00000000000E+00  0.00000000000E+00  0.45593999997E+02  0.45594000000E+02  0.51100000000E-03 0.  1.
         11   -1    0    0    0    0 -0.00000000000E+00 -0.00000000000E+00 -0.45593999997E+02  0.45594000000E+02  0.51100000000E-03 0. -1.
    9900012    2    1    2    0    0 -0.35495167906E+02  0.13245637535E+02  0.14758478970E+02  0.50528849002E+02  0.29999967027E+02 0.  0.
         12    1    1    2    0    0  0.35495167906E+02 -0.13245637535E+02 -0.14758478970E+02  0.40659150998E+02  0.00000000000E+00 0. -1.
         11    1    3    3    0    0 -0.59630490649E+01  0.14599370113E+02 -0.52241968996E+00  0.15778861950E+02  0.51100000000E-03 0. -1.
        -11    1    3    3    0    0 -0.20256331099E+02  0.62214278365E+00  0.15085336278E+02  0.25264072952E+02  0.51100000000E-03 0.  1.
         12    1    3    3    0    0 -0.92757877418E+01 -0.19758753619E+01  0.19556238239E+00  0.94859141005E+01  0.00000000000E+00 0. -1.
</event>
<event>
 7    1  0.6136531E-013  0.5052888E+02  0.7816164E-02  0.1300439E+00
        -11   -1    0    0    0    0  0.00000000000E+00  0.00000000000E+00  0.45593999997E+02  0.45594000000E+02  0.51100000000E-03 0.  1.
         11   -1    0    0    0    0 -0.00000000000E+00 -0.00000000000E+00 -0.45593999997E+02  0.45594000000E+02  0.51100000000E-03 0. -1.
    9900012    2    1    2    0    0  0.22145790981E+02 -0.20789072939E+02  0.27028552637E+02  0.50528877167E+02  0.30000052638E+02 0.  0.
         12    1    1    2    0    0 -0.22145790981E+02  0.20789072939E+02 -0.27028552637E+02  0.40659122833E+02  0.00000000000E+00 0. -1.
         11    1    3    3    0    0  0.99233395726E+01 -0.14954898820E+02  0.22630427413E+02  0.28883523195E+02  0.51100000000E-03 0.  1.
        -11    1    3    3    0    0  0.12539784748E+02  0.21002943384E+01  0.31981705641E+00  0.12718479510E+02  0.51100000000E-03 0. -1.
        -12    1    3    3    0    0 -0.31733333965E+00 -0.79344684571E+01  0.40783081676E+01  0.89268744617E+01  0.00000000000E+00 0.  1.
</event>
<event>
 7    1  0.6136531E-013  0.5052889E+02  0.7816164E-02  0.1300439E+00
        -11   -1    0    0    0    0  0.00000000000E+00  0.00000000000E+00  0.45593999997E+02  0.45594000000E+02  0.51100000000E-03 0.  1.
         11   -1    0    0    0    0 -0.00000000000E+00 -0.00000000000E+00 -0.45593999997E+02  0.45594000000E+02  0.51100000000E-03 0. -1.
    9900012    2    1    2    0    0  0.35017094378E+02  0.17218144062E+02  0.11423753878E+02  0.50528886184E+02  0.30000080045E+02 0.  0.
         12    1    1    2    0    0 -0.35017094378E+02 -0.17218144062E+02 -0.11423753878E+02  0.40659113816E+02  0.00000000000E+00 0. -1.
         11    1    3    3    0    0 -0.50017596308E+00  0.54333840707E+01  0.12248094958E+01  0.55921370705E+01  0.51100000000E-03 0. -1.
        -11    1    3    3    0    0  0.31119403154E+02 -0.19501115039E-01  0.63046802671E+01  0.31751639745E+02  0.51100000000E-03 0.  1.
        -12    1    3    3    0    0  0.43978671874E+01  0.11804261106E+02  0.38942641154E+01  0.13185109369E+02  0.00000000000E+00 0.  1.
</event>
<event>
 7    1  0.6136531E-013  0.5052886E+02  0.7816164E-02  0.1300439E+00
        -11   -1    0    0    0    0  0.00000000000E+00  0.00000000000E+00  0.45593999997E+02  0.45594000000E+02  0.51100000000E-03 0.  1.
         11   -1    0    0    0    0 -0.00000000000E+00 -0.00000000000E+00 -0.45593999997E+02  0.45594000000E+02  0.51100000000E-03 0. -1.
    9900012    2    1    2    0    0 -0.13449650758E+02 -0.30173414269E+02  0.23703113220E+02  0.50528860677E+02  0.30000002514E+02 0.  0.
         12    1    1    2    0    0  0.13449650758E+02  0.30173414269E+02 -0.23703113220E+02  0.40659139323E+02  0.00000000000E+00 0. -1.
         11    1    3    3    0    0 -0.59120734655E+01 -0.18581395382E+01 -0.26242037169E+01  0.67299138637E+01  0.51100000000E-03 0. -1.
        -11    1    3    3    0    0 -0.13554969972E+02 -0.20493455471E+02  0.15050873800E+02  0.28814019686E+02  0.51100000000E-03 0.  1.
        -12    1    3    3    0    0  0.60173926791E+01 -0.78218192591E+01  0.11276443137E+02  0.14984927127E+02  0.00000000000E+00 0.  1.
</event>
<event>
 7    1  0.6136531E-013  0.5052888E+02  0.7816164E-02  0.1300439E+00
        -11   -1    0    0    0    0  0.00000000000E+00  0.00000000000E+00  0.45593999997E+02  0.45594000000E+02  0.51100000000E-03 0.  1.
         11   -1    0    0    0    0 -0.00000000000E+00 -0.00000000000E+00 -0.45593999997E+02  0.45594000000E+02  0.51100000000E-03 0. -1.
    9900012    2    1    2    0    0 -0.90291478201E+01 -0.34438104510E+02  0.19638119377E+02  0.50528876974E+02  0.30000052049E+02 0.  0.
         12    1    1    2    0    0  0.90291478201E+01  0.34438104510E+02 -0.19638119377E+02  0.40659123026E+02  0.00000000000E+00 0. -1.
         11    1    3    3    0    0 -0.13819151509E+02 -0.19969439826E+02  0.94368204947E+01  0.26053810790E+02  0.51100000000E-03 0. -1.
        -11    1    3    3    0    0  0.27272039985E+01 -0.24587192313E-01  0.94823059788E+01  0.98667306194E+01  0.51100000000E-03 0.  1.
        -12    1    3    3    0    0  0.20627996900E+01 -0.14444077492E+02  0.71899290339E+00  0.14608335564E+02  0.00000000000E+00 0.  1.
</event>
<event>
 7    1  0.6136531E-013  0.5052885E+02  0.7816164E-02  0.1300439E+00
        -11   -1    0    0    0    0  0.00000000000E+00  0.00000000000E+00  0.45593999997E+02  0.45594000000E+02  0.51100000000E-03 0.  1.
         11   -1    0    0    0    0 -0.00000000000E+00 -0.00000000000E+00 -0.45593999997E+02  0.45594000000E+02  0.51100000000E-03 0. -1.
    9900012    2    1    2    0    0 -0.29094916837E+02  0.73538256689E+01  0.27433077709E+02  0.50528847398E+02  0.29999962151E+02 0.  0.
         12    1    1    2    0    0  0.29094916837E+02 -0.73538256689E+01 -0.27433077709E+02  0.40659152602E+02  0.00000000000E+00 0. -1.
         11    1    3    3    0    0  0.47707961089E+00 -0.32327115569E+00 -0.15510783864E+01  0.16546762877E+01  0.51100000000E-03 0. -1.
        -11    1    3    3    0    0 -0.17832769922E+02  0.16511569387E+02  0.21184670002E+02  0.32240189982E+02  0.51100000000E-03 0.  1.
        -12    1    3    3    0    0 -0.11739226525E+02 -0.88344725620E+01  0.77994860937E+01  0.16633981128E+02  0.00000000000E+00 0.  1.
</event>
<event>
 7    1  0.6136531E-013  0.5052886E+02  0.7816164E-02  0.1300439E+00
        -11   -1    0    0    0    0  0.00000000000E+00  0.00000000000E+00  0.45593999997E+02  0.45594000000E+02  0.51100000000E-03 0.  1.
         11   -1    0    0    0    0 -0.00000000000E+00 -0.00000000000E+00 -0.45593999997E+02  0.45594000000E+02  0.51100000000E-03 0. -1.
    9900012    2    1    2    0    0 -0.15142383440E+02 -0.16202323123E+02  0.34078716316E+02  0.50528856421E+02  0.29999989578E+02 0.  0.
         12    1    1    2    0    0  0.15142383440E+02  0.16202323123E+02 -0.34078716316E+02  0.40659143579E+02  0.00000000000E+00 0. -1.
         11    1    3    3    0    0 -0.10705335695E+01  0.20025352737E+01  0.20375863740E+02  0.20502000221E+02  0.51100000000E-03 0. -1.
        -11    1    3    3    0    0 -0.66829564825E+01 -0.17053196624E+02  0.13111897879E+02  0.22525436482E+02  0.51100000000E-03 0.  1.
        -12    1    3    3    0    0 -0.73888933884E+01 -0.11516617726E+01  0.59095469727E+00  0.75014197188E+01  0.00000000000E+00 0.  1.
</event>
<event>
 7    1  0.6136531E-013  0.5052886E+02  0.7816164E-02  0.1300439E+00
        -11   -1    0    0    0    0  0.00000000000E+00  0.00000000000E+00  0.45593999997E+02  0.45594000000E+02  0.51100000000E-03 0.  1.
         11   -1    0    0    0    0 -0.00000000000E+00 -0.00000000000E+00 -0.45593999997E+02  0.45594000000E+02  0.51100000000E-03 0. -1.
    9900012    2    1    2    0    0 -0.24549553347E+02  0.25281144583E+02  0.20281737086E+02  0.50528859574E+02  0.29999999161E+02 0.  0.
         12    1    1    2    0    0  0.24549553347E+02 -0.25281144583E+02 -0.20281737086E+02  0.40659140426E+02  0.00000000000E+00 0. -1.
         11    1    3    3    0    0 -0.15111338698E+02  0.28507306385E+02  0.20311167799E+02  0.38125616220E+02  0.51100000000E-03 0. -1.
        -11    1    3    3    0    0 -0.19014249460E+00 -0.24221662903E+01  0.16937227722E+01  0.29617124770E+01  0.51100000000E-03 0.  1.
         12    1    3    3    0    0 -0.92480721546E+01 -0.80399551179E+00 -0.17231534853E+01  0.94415308766E+01  0.00000000000E+00 0. -1.
</event>
<event>
 7    1  0.6209328E-013  0.5052886E+02  0.7816164E-02  0.1300439E+00
        -11   -1    0    0    0    0  0.00000000000E+00  0.00000000000E+00  0.45593999997E+02  0.45594000000E+02  0.51100000000E-03 0. -1.
         11   -1    0    0    0    0 -0.00000000000E+00 -0.00000000000E+00 -0.45593999997E+02  0.45594000000E+02  0.51100000000E-03 0.  1.
    9900012    2    1    2    0    0 -0.36364181302E+02 -0.16187442966E+02 -0.82932923951E+01  0.50528859695E+02  0.29999999530E+02 0.  0.
         12    1    1    2    0    0  0.36364181302E+02  0.16187442966E+02  0.82932923951E+01  0.40659140305E+02  0.00000000000E+00 0. -1.
         11    1    3    3    0    0 -0.78724644077E+01 -0.59177483246E+01  0.85410577728E+01  0.13036299675E+02  0.51100000000E-03 0. -1.
        -11    1    3    3    0    0 -0.66580047419E+01  0.13947007510E+01 -0.94817254613E+01  0.11669504502E+02  0.51100000000E-03 0.  1.
        -12    1    3    3    0    0 -0.21833712153E+02 -0.11664395392E+02 -0.73526247065E+01  0.25823055519E+02  0.00000000000E+00 0.  1.
</event>
<event>
 7    1  0.6136531E-013  0.5052885E+02  0.7816164E-02  0.1300439E+00
        -11   -1    0    0    0    0  0.00000000000E+00  0.00000000000E+00  0.45593999997E+02  0.45594000000E+02  0.51100000000E-03 0. -1.
         11   -1    0    0    0    0 -0.00000000000E+00 -0.00000000000E+00 -0.45593999997E+02  0.45594000000E+02  0.51100000000E-03 0.  1.
    9900012    2    1    2    0    0  0.35000592751E+02  0.20233604076E+02 -0.43273553914E+01  0.50528853040E+02  0.29999979301E+02 0.  0.
         12    1    1    2    0    0 -0.35000592751E+02 -0.20233604076E+02  0.43273553914E+01  0.40659146960E+02  0.00000000000E+00 0. -1.
         11    1    3    3    0    0  0.11887809018E+02 -0.65162892683E+01  0.33544872222E+01  0.13965479364E+02  0.51100000000E-03 0. -1.
        -11    1    3    3    0    0  0.21407408028E+02  0.22030413024E+02 -0.69140717566E+01  0.31486832248E+02  0.51100000000E-03 0.  1.
        -12    1    3    3    0    0  0.17053757045E+01  0.47194803198E+01 -0.76777085706E+00  0.50765414282E+01  0.00000000000E+00 0.  1.
</event>
<event>
 7    1  0.6136531E-013  0.5052887E+02  0.7816164E-02  0.1300439E+00
        -11   -1    0    0    0    0  0.00000000000E+00  0.00000000000E+00  0.45593999997E+02  0.45594000000E+02  0.51100000000E-03 0. -1.
         11   -1    0    0    0    0 -0.00000000000E+00 -0.00000000000E+00 -0.45593999997E+02  0.45594000000E+02  0.51100000000E-03 0.  1.
    9900012    2    1    2    0    0  0.33547628954E+02 -0.22414165285E+02  0.50325901275E+01  0.50528866005E+02  0.30000018708E+02 0.  0.
         12    1    1    2    0    0 -0.33547628954E+02  0.22414165285E+02 -0.50325901275E+01  0.40659133995E+02  0.00000000000E+00 0. -1.
         11    1    3    3    0    0  0.17308487101E+01 -0.74876797056E+01  0.91682480518E+01  0.11963191766E+02  0.51100000000E-03 0. -1.
        -11    1    3    3    0    0  0.32130549563E+02 -0.16282420691E+02 -0.57032621755E+01  0.36469393174E+02  0.51100000000E-03 0.  1.
        -12    1    3    3    0    0 -0.31376931934E+00  0.13559351119E+01  0.15676042512E+01  0.20962810647E+01  0.00000000000E+00 0.  1.
</event>
<event>
 7    1  0.6136531E-013  0.5052886E+02  0.7816164E-02  0.1300439E+00
        -11   -1    0    0    0    0  0.00000000000E+00  0.00000000000E+00  0.45593999997E+02  0.45594000000E+02  0.51100000000E-03 0.  1.
         11   -1    0    0    0    0 -0.00000000000E+00 -0.00000000000E+00 -0.45593999997E+02  0.45594000000E+02  0.51100000000E-03 0. -1.
    9900012    2    1    2    0    0  0.25992633208E+02 -0.64631010119E+01  0.30590473562E+02  0.50528859225E+02  0.29999998101E+02 0.  0.
         12    1    1    2    0    0 -0.25992633208E+02  0.64631010119E+01 -0.30590473562E+02  0.40659140775E+02  0.00000000000E+00 0. -1.
         11    1    3    3    0    0  0.76767103713E+00  0.27246922921E+01  0.10213486365E+02  0.10598517392E+02  0.51100000000E-03 0. -1.
        -11    1    3    3    0    0  0.13458557238E+02 -0.18437351557E+01 -0.18713604126E+01  0.13712553092E+02  0.51100000000E-03 0.  1.
        -12    1    3    3    0    0  0.11766404932E+02 -0.73440581482E+01  0.22248347610E+02  0.26217788741E+02  0.00000000000E+00 0.  1.
</event>
<event>
 7    1  0.6136531E-013  0.5052886E+02  0.7816164E-02  0.1300439E+00
        -11   -1    0    0    0    0  0.00000000000E+00  0.00000000000E+00  0.45593999997E+02  0.45594000000E+02  0.51100000000E-03 0.  1.
         11   -1    0    0    0    0 -0.00000000000E+00 -0.00000000000E+00 -0.45593999997E+02  0.45594000000E+02  0.51100000000E-03 0. -1.
    9900012    2    1    2    0    0 -0.33047033575E+02  0.22548942583E+02  0.72528872418E+01  0.50528860645E+02  0.30000002417E+02 0.  0.
         12    1    1    2    0    0  0.33047033575E+02 -0.22548942583E+02 -0.72528872418E+01  0.40659139355E+02  0.00000000000E+00 0. -1.
         11    1    3    3    0    0  0.73726102671E+00 -0.80527563295E+00  0.93263237467E+01  0.93900126494E+01  0.51100000000E-03 0. -1.
        -11    1    3    3    0    0 -0.20834968158E+02  0.13782288307E+02 -0.10341688931E+01  0.25002337385E+02  0.51100000000E-03 0.  1.
         12    1    3    3    0    0 -0.12949326443E+02  0.95719299089E+01 -0.10392676118E+01  0.16136510611E+02  0.00000000000E+00 0. -1.
</event>
<event>
 7    1  0.6136531E-013  0.5052886E+02  0.7816164E-02  0.1300439E+00
        -11   -1    0    0    0    0  0.00000000000E+00  0.00000000000E+00  0.45593999997E+02  0.45594000000E+02  0.51100000000E-03 0. -1.
         11   -1    0    0    0    0 -0.00000000000E+00 -0.00000000000E+00 -0.45593999997E+02  0.45594000000E+02  0.51100000000E-03 0.  1.
    9900012    2    1    2    0    0  0.54802550436E+01 -0.39001916759E+02 -0.10098652638E+02  0.50528862143E+02  0.30000006969E+02 0.  0.
         12    1    1    2    0    0 -0.54802550436E+01  0.39001916759E+02  0.10098652638E+02  0.40659137857E+02  0.00000000000E+00 0. -1.
         11    1    3    3    0    0 -0.94629392655E+01 -0.43403573589E+01 -0.66349945076E+01  0.12345406997E+02  0.51100000000E-03 0. -1.
        -11    1    3    3    0    0  0.35561581301E+01 -0.12004231575E+02 -0.27350941038E+01  0.12815169775E+02  0.51100000000E-03 0.  1.
         12    1    3    3    0    0  0.11387036179E+02 -0.22657327825E+02 -0.72856402644E+00  0.25368285370E+02  0.00000000000E+00 0. -1.
</event>
<event>
 7    1  0.6136531E-013  0.5052886E+02  0.7816164E-02  0.1300439E+00
        -11   -1    0    0    0    0  0.00000000000E+00  0.00000000000E+00  0.45593999997E+02  0.45594000000E+02  0.51100000000E-03 0.  1.
         11   -1    0    0    0    0 -0.00000000000E+00 -0.00000000000E+00 -0.45593999997E+02  0.45594000000E+02  0.51100000000E-03 0. -1.
    9900012    2    1    2    0    0  0.29930104532E+02  0.18802032770E+02 -0.20095716137E+02  0.50528863258E+02  0.30000010359E+02 0.  0.
         12    1    1    2    0    0 -0.29930104532E+02 -0.18802032770E+02  0.20095716137E+02  0.40659136742E+02  0.00000000000E+00 0. -1.
         11    1    3    3    0    0  0.56322839050E+01 -0.86794415438E+00  0.10309510784E+01  0.57912701050E+01  0.51100000000E-03 0. -1.
        -11    1    3    3    0    0  0.23048848557E+02  0.24315839864E+02 -0.21662486353E+02  0.39897027500E+02  0.51100000000E-03 0.  1.
        -12    1    3    3    0    0  0.12489720694E+01 -0.46458629402E+01  0.53581913692E+00  0.48405656526E+01  0.00000000000E+00 0.  1.
</event>
<event>
 7    1  0.6136531E-013  0.5052886E+02  0.7816164E-02  0.1300439E+00
        -11   -1    0    0    0    0  0.00000000000E+00  0.00000000000E+00  0.45593999997E+02  0.45594000000E+02  0.51100000000E-03 0.  1.
         11   -1    0    0    0    0 -0.00000000000E+00 -0.00000000000E+00 -0.45593999997E+02  0.45594000000E+02  0.51100000000E-03 0. -1.
    9900012    2    1    2    0    0 -0.39063779038E+02  0.25160979409E+01  0.10993467210E+02  0.50528857082E+02  0.29999991585E+02 0.  0.
         12    1    1    2    0    0  0.39063779038E+02 -0.25160979409E+01 -0.10993467210E+02  0.40659142918E+02  0.00000000000E+00 0. -1.
         11    1    3    3    0    0 -0.92671793927E+01  0.24340601566E+01 -0.29970482512E+01  0.10039300833E+02  0.51100000000E-03 0. -1.
        -11    1    3    3    0    0 -0.19723241279E+02 -0.11351130090E+02  0.82054428199E+01  0.24190570332E+02  0.51100000000E-03 0.  1.
        -12    1    3    3    0    0 -0.10073358366E+02  0.11433167875E+02  0.57850726411E+01  0.16298985916E+02  0.00000000000E+00 0.  1.
</event>
<event>
 7    1  0.6136531E-013  0.5052886E+02  0.7816164E-02  0.1300439E+00
        -11   -1    0    0    0    0  0.00000000000E+00  0.00000000000E+00  0.45593999997E+02  0.45594000000E+02  0.51100000000E-03 0.  1.
         11   -1    0    0    0    0 -0.00000000000E+00 -0.00000000000E+00 -0.45593999997E+02  0.45594000000E+02  0.51100000000E-03 0. -1.
    9900012    2    1    2    0    0  0.18613697338E+02 -0.15426669319E+02  0.32691182410E+02  0.50528864960E+02  0.30000015531E+02 0.  0.
         12    1    1    2    0    0 -0.18613697338E+02  0.15426669319E+02 -0.32691182410E+02  0.40659135040E+02  0.00000000000E+00 0. -1.
         11    1    3    3    0    0 -0.27332767744E+01 -0.12933019414E+02  0.23317096080E+02  0.26803372231E+02  0.51100000000E-03 0. -1.
        -11    1    3    3    0    0  0.14916570020E+02 -0.30680841981E+01  0.76549398175E+01  0.17044509547E+02  0.51100000000E-03 0.  1.
         12    1    3    3    0    0  0.64304040918E+01  0.57443429360E+00  0.17191465131E+01  0.66809831817E+01  0.00000000000E+00 0. -1.
</event>
<event>
 7    1  0.6136531E-013  0.5052886E+02  0.7816164E-02  0.1300439E+00
        -11   -1    0    0    0    0  0.00000000000E+00  0.00000000000E+00  0.45593999997E+02  0.45594000000E+02  0.51100000000E-03 0.  1.
         11   -1    0    0    0    0 -0.00000000000E+00 -0.00000000000E+00 -0.45593999997E+02  0.45594000000E+02  0.51100000000E-03 0. -1.
    9900012    2    1    2    0    0 -0.20487280545E+02 -0.12055104968E+01  0.35099628247E+02  0.50528858067E+02  0.29999994579E+02 0.  0.
         12    1    1    2    0    0  0.20487280545E+02  0.12055104968E+01 -0.35099628247E+02  0.40659141933E+02  0.00000000000E+00 0. -1.
         11    1    3    3    0    0 -0.41166836508E+01  0.62329094171E+01  0.10690071184E+01  0.75457948927E+01  0.51100000000E-03 0. -1.
        -11    1    3    3    0    0 -0.18926531180E+02 -0.10204832237E+01  0.21402120965E+02  0.28588559785E+02  0.51100000000E-03 0.  1.
        -12    1    3    3    0    0  0.25559342855E+01 -0.64179366903E+01  0.12628500163E+02  0.14394503389E+02  0.00000000000E+00 0.  1.
</event>
<event>
 7    1  0.6136531E-013  0.5052886E+02  0.7816164E-02  0.1300439E+00
        -11   -1    0    0    0    0  0.00000000000E+00  0.00000000000E+00  0.45593999997E+02  0.45594000000E+02  0.51100000000E-03 0.  1.
         11   -1    0    0    0    0 -0.00000000000E+00 -0.00000000000E+00 -0.45593999997E+02  0.45594000000E+02  0.51100000000E-03 0. -1.
    9900012    2    1    2    0    0  0.35567463891E+02 -0.14847269678E+02  0.12949111072E+02  0.50528863486E+02  0.30000011053E+02 0.  0.
         12    1    1    2    0    0 -0.35567463891E+02  0.14847269678E+02 -0.12949111072E+02  0.40659136514E+02  0.00000000000E+00 0. -1.
         11    1    3    3    0    0  0.50320862701E+01 -0.15379405480E+02  0.11140320184E+02  0.19645730814E+02  0.51100000000E-03 0. -1.
        -11    1    3    3    0    0  0.18539236058E+02  0.18867140219E+01  0.24411447570E+01  0.18794205261E+02  0.51100000000E-03 0.  1.
         12    1    3    3    0    0  0.11996141562E+02 -0.13545782196E+01 -0.63235386946E+00  0.12088927411E+02  0.00000000000E+00 0. -1.
</event>
<event>
 7    1  0.6136531E-013  0.5052884E+02  0.7816164E-02  0.1300439E+00
        -11   -1    0    0    0    0  0.00000000000E+00  0.00000000000E+00  0.45593999997E+02  0.45594000000E+02  0.51100000000E-03 0.  1.
         11   -1    0    0    0    0 -0.00000000000E+00 -0.00000000000E+00 -0.45593999997E+02  0.45594000000E+02  0.51100000000E-03 0. -1.
    9900012    2    1    2    0    0  0.11541961003E+02 -0.19102474345E+02  0.33985960892E+02  0.50528844480E+02  0.29999953280E+02 0.  0.
         12    1    1    2    0    0 -0.11541961003E+02  0.19102474345E+02 -0.33985960892E+02  0.40659155520E+02  0.00000000000E+00 0. -1.
         11    1    3    3    0    0 -0.68734849431E+01 -0.43483023146E+01  0.19273140118E+01  0.83586522744E+01  0.51100000000E-03 0. -1.
        -11    1    3    3    0    0  0.15213337549E+02 -0.53094090119E+01  0.13170858960E+02  0.20811222680E+02  0.51100000000E-03 0.  1.
        -12    1    3    3    0    0  0.32021083974E+01 -0.94447630187E+01  0.18887787920E+02  0.21358969525E+02  0.00000000000E+00 0.  1.
</event>
<event>
 7    1  0.6136531E-013  0.5052886E+02  0.7816164E-02  0.1300439E+00
        -11   -1    0    0    0    0  0.00000000000E+00  0.00000000000E+00  0.45593999997E+02  0.45594000000E+02  0.51100000000E-03 0.  1.
         11   -1    0    0    0    0 -0.00000000000E+00 -0.00000000000E+00 -0.45593999997E+02  0.45594000000E+02  0.51100000000E-03 0. -1.
    9900012    2    1    2    0    0  0.19065962569E+02 -0.26400549074E+02  0.24344719514E+02  0.50528864639E+02  0.30000014555E+02 0.  0.
         12    1    1    2    0    0 -0.19065962569E+02  0.26400549074E+02 -0.24344719514E+02  0.40659135361E+02  0.00000000000E+00 0. -1.
         11    1    3    3    0    0  0.12519119704E+02 -0.14315293040E+01 -0.20154794163E+01  0.12760869557E+02  0.51100000000E-03 0. -1.
        -11    1    3    3    0    0  0.53606791871E+01 -0.10945525486E+02  0.16796423402E+02  0.20752379355E+02  0.51100000000E-03 0.  1.
         12    1    3    3    0    0  0.11861636783E+01 -0.14023494284E+02  0.95637755282E+01  0.17015615727E+02  0.00000000000E+00 0. -1.
</event>
<event>
 7    1  0.6136531E-013  0.5052885E+02  0.7816164E-02  0.1300439E+00
        -11   -1    0    0    0    0  0.00000000000E+00  0.00000000000E+00  0.45593999997E+02  0.45594000000E+02  0.51100000000E-03 0.  1.
         11   -1    0    0    0    0 -0.00000000000E+00 -0.00000000000E+00 -0.45593999997E+02  0.45594000000E+02  0.51100000000E-03 0. -1.
    9900012    2    1    2    0    0 -0.30228111052E+02 -0.25225475984E+02 -0.10153961395E+02  0.50528852586E+02  0.29999977921E+02 0.  0.
         12    1    1    2    0    0  0.30228111052E+02  0.25225475984E+02  0.10153961395E+02  0.40659147414E+02  0.00000000000E+00 0. -1.
         11    1    3    3    0    0 -0.34118594391E+01 -0.36732058731E+01 -0.13534456593E+01  0.51927874626E+01  0.51100000000E-03 0. -1.
        -11    1    3    3    0    0 -0.48123709062E+01 -0.81047017693E+01 -0.15993084930E+02  0.18564047790E+02  0.51100000000E-03 0.  1.
        -12    1    3    3    0    0 -0.22003880707E+02 -0.13447568342E+02  0.71925691947E+01  0.26772017333E+02  0.00000000000E+00 0.  1.
</event>
<event>
 7    1  0.6136531E-013  0.5052885E+02  0.7816164E-02  0.1300439E+00
        -11   -1    0    0    0    0  0.00000000000E+00  0.00000000000E+00  0.45593999997E+02  0.45594000000E+02  0.51100000000E-03 0.  1.
         11   -1    0    0    0    0 -0.00000000000E+00 -0.00000000000E+00 -0.45593999997E+02  0.45594000000E+02  0.51100000000E-03 0. -1.
    9900012    2    1    2    0    0 -0.37770301247E+01 -0.32226223593E+02  0.24502465078E+02  0.50528852954E+02  0.29999979038E+02 0.  0.
         12    1    1    2    0    0  0.37770301247E+01  0.32226223593E+02 -0.24502465078E+02  0.40659147046E+02  0.00000000000E+00 0. -1.
         11    1    3    3    0    0 -0.71355233787E+00  0.21905514574E+01  0.36224411899E+01  0.42929888262E+01  0.51100000000E-03 0. -1.
        -11    1    3    3    0    0  0.16647035299E+01 -0.35864085899E+02  0.16061469465E+02  0.39331599215E+02  0.51100000000E-03 0.  1.
        -12    1    3    3    0    0 -0.47281813167E+01  0.14473108479E+01  0.48185544227E+01  0.69042649123E+01  0.00000000000E+00 0.  1.
</event>
<event>
 7    1  0.6136531E-013  0.5052886E+02  0.7816164E-02  0.1300439E+00
        -11   -1    0    0    0    0  0.00000000000E+00  0.00000000000E+00  0.45593999997E+02  0.45594000000E+02  0.51100000000E-03 0. -1.
         11   -1    0    0    0    0 -0.00000000000E+00 -0.00000000000E+00 -0.45593999997E+02  0.45594000000E+02  0.51100000000E-03 0.  1.
    9900012    2    1    2    0    0  0.14188884237E+01  0.30890020910E+02 -0.26399981494E+02  0.50528860080E+02  0.30000000698E+02 0.  0.
         12    1    1    2    0    0 -0.14188884237E+01 -0.30890020910E+02  0.26399981494E+02  0.40659139920E+02  0.00000000000E+00 0. -1.
         11    1    3    3    0    0  0.15912653160E+01 -0.78157578004E+00 -0.14655440447E+02  0.14762280344E+02  0.51100000000E-03 0. -1.
        -11    1    3    3    0    0 -0.41800229110E+01  0.27387880350E+02 -0.11171319990E+02  0.29872511983E+02  0.51100000000E-03 0.  1.
         12    1    3    3    0    0  0.40076460186E+01  0.42837163400E+01 -0.57322105749E+00  0.58940677527E+01  0.00000000000E+00 0. -1.
</event>
<event>
 7    1  0.6136531E-013  0.5052886E+02  0.7816164E-02  0.1300439E+00
        -11   -1    0    0    0    0  0.00000000000E+00  0.00000000000E+00  0.45593999997E+02  0.45594000000E+02  0.51100000000E-03 0. -1.
         11   -1    0    0    0    0 -0.00000000000E+00 -0.00000000000E+00 -0.45593999997E+02  0.45594000000E+02  0.51100000000E-03 0.  1.
    9900012    2    1    2    0    0  0.31227423074E+02 -0.18839842462E+02 -0.17974264639E+02  0.50528858283E+02  0.29999995238E+02 0.  0.
         12    1    1    2    0    0 -0.31227423074E+02  0.18839842462E+02  0.17974264639E+02  0.40659141717E+02  0.00000000000E+00 0. -1.
         11    1    3    3    0    0  0.17401076321E+02 -0.55807495957E+01 -0.13791089562E+01  0.18326051537E+02  0.51100000000E-03 0. -1.
        -11    1    3    3    0    0  0.55293162756E+01 -0.17445528508E+02 -0.10770275992E+02  0.21234845151E+02  0.51100000000E-03 0.  1.
        -12    1    3    3    0    0  0.82970304777E+01  0.41864356418E+01 -0.58248796906E+01  0.10967961595E+02  0.00000000000E+00 0.  1.
</event>
<event>
 7    1  0.6136531E-013  0.5052886E+02  0.7816164E-02  0.1300439E+00
        -11   -1    0    0    0    0  0.00000000000E+00  0.00000000000E+00  0.45593999997E+02  0.45594000000E+02  0.51100000000E-03 0.  1.
         11   -1    0    0    0    0 -0.00000000000E+00 -0.00000000000E+00 -0.45593999997E+02  0.45594000000E+02  0.51100000000E-03 0. -1.
    9900012    2    1    2    0    0  0.13956899199E+02  0.30680186748E+02  0.22739761235E+02  0.50528860373E+02  0.30000001591E+02 0.  0.
         12    1    1    2    0    0 -0.13956899199E+02 -0.30680186748E+02 -0.22739761235E+02  0.40659139627E+02  0.00000000000E+00 0. -1.
         11    1    3    3    0    0 -0.31019312535E+01  0.36647709232E+01 -0.38551679979E+01  0.61575030633E+01  0.51100000000E-03 0. -1.
        -11    1    3    3    0    0  0.17373284725E+02  0.28617000596E+02  0.23598241052E+02  0.40959012760E+02  0.51100000000E-03 0.  1.
         12    1    3    3    0    0 -0.31445427260E+00 -0.16015847718E+01  0.29966881817E+01  0.34123445501E+01  0.00000000000E+00 0. -1.
</event>
<event>
 7    1  0.6136531E-013  0.5052886E+02  0.7816164E-02  0.1300439E+00
        -11   -1    0    0    0    0  0.00000000000E+00  0.00000000000E+00  0.45593999997E+02  0.45594000000E+02  0.51100000000E-03 0.  1.
         11   -1    0    0    0    0 -0.00000000000E+00 -0.00000000000E+00 -0.45593999997E+02  0.45594000000E+02  0.51100000000E-03 0. -1.
    9900012    2    1    2    0    0 -0.19497695392E+01 -0.39312424682E+02 -0.10193022952E+02  0.50528855241E+02  0.29999985991E+02 0.  0.
         12    1    1    2    0    0  0.19497695392E+01  0.39312424682E+02  0.10193022952E+02  0.40659144759E+02  0.00000000000E+00 0. -1.
         11    1    3    3    0    0  0.66816500207E+01 -0.22448605068E+01  0.55018983471E+01  0.89417409590E+01  0.51100000000E-03 0. -1.
        -11    1    3    3    0    0 -0.87266332197E+01 -0.31179290203E+02 -0.14911291501E+02  0.35646162198E+02  0.51100000000E-03 0.  1.
        -12    1    3    3    0    0  0.95213659850E-01 -0.58882739717E+01 -0.78362979784E+00  0.59409520842E+01  0.00000000000E+00 0.  1.
</event>
<event>
 7    1  0.6136531E-013  0.5052885E+02  0.7816164E-02  0.1300439E+00
        -11   -1    0    0    0    0  0.00000000000E+00  0.00000000000E+00  0.45593999997E+02  0.45594000000E+02  0.51100000000E-03 0. -1.
         11   -1    0    0    0    0 -0.00000000000E+00 -0.00000000000E+00 -0.45593999997E+02  0.45594000000E+02  0.51100000000E-03 0.  1.
    9900012    2    1    2    0    0  0.10533403162E+02 -0.15751853463E+02 -0.35973499671E+02  0.50528854064E+02  0.29999982411E+02 0.  0.
         12    1    1    2    0    0 -0.10533403162E+02  0.15751853463E+02  0.35973499671E+02  0.40659145936E+02  0.00000000000E+00 0. -1.
         11    1    3    3    0    0  0.15054957261E+02 -0.12339819426E+02 -0.32180057029E+02  0.37609559320E+02  0.51100000000E-03 0.  1.
        -11    1    3    3    0    0 -0.38960183461E+01 -0.21108377203E+01 -0.76281830820E+01  0.88217782918E+01  0.51100000000E-03 0. -1.
         12    1    3    3    0    0 -0.62553575305E+00 -0.13011963173E+01  0.38347404397E+01  0.40975164520E+01  0.00000000000E+00 0. -1.
</event>
<event>
 7    1  0.6136531E-013  0.5052886E+02  0.7816164E-02  0.1300439E+00
        -11   -1    0    0    0    0  0.00000000000E+00  0.00000000000E+00  0.45593999997E+02  0.45594000000E+02  0.51100000000E-03 0.  1.
         11   -1    0    0    0    0 -0.00000000000E+00 -0.00000000000E+00 -0.45593999997E+02  0.45594000000E+02  0.51100000000E-03 0. -1.
    9900012    2    1    2    0    0 -0.43962632864E+01  0.15124167765E+02  0.37484639511E+02  0.50528858584E+02  0.29999996151E+02 0.  0.
         12    1    1    2    0    0  0.43962632864E+01 -0.15124167765E+02 -0.37484639511E+02  0.40659141416E+02  0.00000000000E+00 0. -1.
         11    1    3    3    0    0 -0.78539643959E+00  0.18214071029E+02  0.24871342480E+02  0.30837524350E+02  0.51100000000E-03 0. -1.
        -11    1    3    3    0    0  0.66423183854E+00 -0.71449108025E+01  0.18335331336E+01  0.74062675029E+01  0.51100000000E-03 0.  1.
        -12    1    3    3    0    0 -0.42750986853E+01  0.40550075385E+01  0.10779763897E+02  0.12285066731E+02  0.00000000000E+00 0.  1.
</event>
<event>
 7    1  0.6136531E-013  0.5052886E+02  0.7816164E-02  0.1300439E+00
        -11   -1    0    0    0    0  0.00000000000E+00  0.00000000000E+00  0.45593999997E+02  0.45594000000E+02  0.51100000000E-03 0. -1.
         11   -1    0    0    0    0 -0.00000000000E+00 -0.00000000000E+00 -0.45593999997E+02  0.45594000000E+02  0.51100000000E-03 0.  1.
    9900012    2    1    2    0    0  0.43113869478E+00  0.16789877989E+02 -0.37028095495E+02  0.50528859091E+02  0.29999997693E+02 0.  0.
         12    1    1    2    0    0 -0.43113869478E+00 -0.16789877989E+02  0.37028095495E+02  0.40659140909E+02  0.00000000000E+00 0. -1.
         11    1    3    3    0    0  0.25357001267E+01  0.14736974094E+02 -0.72111330864E+01  0.16601464431E+02  0.51100000000E-03 0. -1.
        -11    1    3    3    0    0  0.51055386970E+01 -0.27878916303E+01 -0.19960407236E+02  0.20790784555E+02  0.51100000000E-03 0.  1.
        -12    1    3    3    0    0 -0.72101001289E+01  0.48407955250E+01 -0.98565551727E+01  0.13136610105E+02  0.00000000000E+00 0.  1.
</event>
<event>
 7    1  0.6136531E-013  0.5052886E+02  0.7816164E-02  0.1300439E+00
        -11   -1    0    0    0    0  0.00000000000E+00  0.00000000000E+00  0.45593999997E+02  0.45594000000E+02  0.51100000000E-03 0.  1.
         11   -1    0    0    0    0 -0.00000000000E+00 -0.00000000000E+00 -0.45593999997E+02  0.45594000000E+02  0.51100000000E-03 0. -1.
    9900012    2    1    2    0    0  0.28719835954E+02 -0.10952144323E+02  0.26615541615E+02  0.50528862061E+02  0.30000006721E+02 0.  0.
         12    1    1    2    0    0 -0.28719835954E+02  0.10952144323E+02 -0.26615541615E+02  0.40659137939E+02  0.00000000000E+00 0. -1.
         11    1    3    3    0    0  0.71929565035E+01  0.95985406328E+01  0.26490230880E+01  0.12283644782E+02  0.51100000000E-03 0. -1.
        -11    1    3    3    0    0  0.13738272019E+02 -0.12323907313E+02  0.14171548238E+02  0.23269112343E+02  0.51100000000E-03 0.  1.
         12    1    3    3    0    0  0.77886074314E+01 -0.82267776429E+01  0.97949702885E+01  0.14976104936E+02  0.00000000000E+00 0. -1.
</event>
<event>
 7    1  0.6136531E-013  0.5052887E+02  0.7816164E-02  0.1300439E+00
        -11   -1    0    0    0    0  0.00000000000E+00  0.00000000000E+00  0.45593999997E+02  0.45594000000E+02  0.51100000000E-03 0. -1.
         11   -1    0    0    0    0 -0.00000000000E+00 -0.00000000000E+00 -0.45593999997E+02  0.45594000000E+02  0.51100000000E-03 0.  1.
    9900012    2    1    2    0    0  0.16384537360E+02  0.33072800617E+02 -0.17055841333E+02  0.50528869060E+02  0.30000027996E+02 0.  0.
         12    1    1    2    0    0 -0.16384537360E+02 -0.33072800617E+02  0.17055841333E+02  0.40659130940E+02  0.00000000000E+00 0. -1.
         11    1    3    3    0    0 -0.33603522669E+01  0.80262790903E+00  0.43025970719E+01  0.55180178273E+01  0.51100000000E-03 0. -1.
        -11    1    3    3    0    0  0.13495028643E+02  0.28468156472E+02 -0.13502868865E+02  0.34276510890E+02  0.51100000000E-03 0.  1.
        -12    1    3    3    0    0  0.62498609845E+01  0.38020162364E+01 -0.78555695404E+01  0.10734340343E+02  0.00000000000E+00 0.  1.
</event>
<event>
 7    1  0.6136531E-013  0.5052886E+02  0.7816164E-02  0.1300439E+00
        -11   -1    0    0    0    0  0.00000000000E+00  0.00000000000E+00  0.45593999997E+02  0.45594000000E+02  0.51100000000E-03 0.  1.
         11   -1    0    0    0    0 -0.00000000000E+00 -0.00000000000E+00 -0.45593999997E+02  0.45594000000E+02  0.51100000000E-03 0. -1.
    9900012    2    1    2    0    0 -0.32637492580E+00 -0.12298082927E+02  0.38753278273E+02  0.50528856611E+02  0.29999990154E+02 0.  0.
         12    1    1    2    0    0  0.32637492580E+00  0.12298082927E+02 -0.38753278273E+02  0.40659143389E+02  0.00000000000E+00 0. -1.
         11    1    3    3    0    0  0.19616225397E+01  0.25860323945E+01 -0.33695828602E+01  0.46786339295E+01  0.51100000000E-03 0. -1.
        -11    1    3    3    0    0  0.28445055651E+01 -0.53454609452E+01  0.78972857337E+01  0.99514967140E+01  0.51100000000E-03 0.  1.
         12    1    3    3    0    0 -0.51325030306E+01 -0.95386543762E+01  0.34225575399E+02  0.35898725967E+02  0.00000000000E+00 0. -1.
</event>
<event>
 7    1  0.6136531E-013  0.5052886E+02  0.7816164E-02  0.1300439E+00
        -11   -1    0    0    0    0  0.00000000000E+00  0.00000000000E+00  0.45593999997E+02  0.45594000000E+02  0.51100000000E-03 0.  1.
         11   -1    0    0    0    0 -0.00000000000E+00 -0.00000000000E+00 -0.45593999997E+02  0.45594000000E+02  0.51100000000E-03 0. -1.
    9900012    2    1    2    0    0  0.31098724797E+02  0.10113547633E+02  0.24160942405E+02  0.50528859974E+02  0.30000000378E+02 0.  0.
         12    1    1    2    0    0 -0.31098724797E+02 -0.10113547633E+02 -0.24160942405E+02  0.40659140026E+02  0.00000000000E+00 0. -1.
         11    1    3    3    0    0  0.15970913970E+02  0.37104370077E+01 -0.13621589125E+01  0.16452747886E+02  0.51100000000E-03 0. -1.
        -11    1    3    3    0    0  0.45887017867E+01  0.78951227888E+01  0.20214830674E+02  0.22181716060E+02  0.51100000000E-03 0.  1.
        -12    1    3    3    0    0  0.10539109040E+02 -0.14920121640E+01  0.53082706441E+01  0.11894396029E+02  0.00000000000E+00 0.  1.
</event>
<event>
 7    1  0.6136531E-013  0.5052886E+02  0.7816164E-02  0.1300439E+00
        -11   -1    0    0    0    0  0.00000000000E+00  0.00000000000E+00  0.45593999997E+02  0.45594000000E+02  0.51100000000E-03 0. -1.
         11   -1    0    0    0    0 -0.00000000000E+00 -0.00000000000E+00 -0.45593999997E+02  0.45594000000E+02  0.51100000000E-03 0.  1.
    9900012    2    1    2    0    0  0.35582220706E+02  0.18996465300E+02  0.51191608095E+01  0.50528856727E+02  0.29999990508E+02 0.  0.
         12    1    1    2    0    0 -0.35582220706E+02 -0.18996465300E+02 -0.51191608095E+01  0.40659143273E+02  0.00000000000E+00 0. -1.
         11    1    3    3    0    0  0.90246816262E+01  0.16646503681E+02  0.10842219616E+02  0.21819823320E+02  0.51100000000E-03 0. -1.
        -11    1    3    3    0    0  0.19269942991E+02  0.20467709780E+01 -0.81493414827E+01  0.21022172608E+02  0.51100000000E-03 0.  1.
         12    1    3    3    0    0  0.72875960893E+01  0.30319064148E+00  0.24262826763E+01  0.76868607995E+01  0.00000000000E+00 0. -1.
</event>
<event>
 7    1  0.6136531E-013  0.5052886E+02  0.7816164E-02  0.1300439E+00
        -11   -1    0    0    0    0  0.00000000000E+00  0.00000000000E+00  0.45593999997E+02  0.45594000000E+02  0.51100000000E-03 0.  1.
         11   -1    0    0    0    0 -0.00000000000E+00 -0.00000000000E+00 -0.45593999997E+02  0.45594000000E+02  0.51100000000E-03 0. -1.
    9900012    2    1    2    0    0  0.35927787238E+01  0.90738000446E+01  0.39470538924E+02  0.50528863891E+02  0.30000012283E+02 0.  0.
         12    1    1    2    0    0 -0.35927787238E+01 -0.90738000446E+01 -0.39470538924E+02  0.40659136109E+02  0.00000000000E+00 0. -1.
         11    1    3    3    0    0 -0.35423873409E+01 -0.40335762247E+01  0.31571381257E+02  0.32024527474E+02  0.51100000000E-03 0. -1.
        -11    1    3    3    0    0  0.55226743395E+01  0.10373059356E+02  0.93468306469E+01  0.15015443239E+02  0.51100000000E-03 0.  1.
         12    1    3    3    0    0  0.16124917252E+01  0.27343169138E+01 -0.14476729802E+01  0.34888931778E+01  0.00000000000E+00 0. -1.
</event>
<event>
 7    1  0.6136531E-013  0.5052872E+02  0.7816164E-02  0.1300439E+00
        -11   -1    0    0    0    0  0.00000000000E+00  0.00000000000E+00  0.45593999997E+02  0.45594000000E+02  0.51100000000E-03 0.  1.
         11   -1    0    0    0    0 -0.00000000000E+00 -0.00000000000E+00 -0.45593999997E+02  0.45594000000E+02  0.51100000000E-03 0. -1.
    9900012    2    1    2    0    0 -0.39221926685E+02 -0.41360888878E+01  0.98848639065E+01  0.50528716944E+02  0.29999565619E+02 0.  0.
         12    1    1    2    0    0  0.39221926685E+02  0.41360888878E+01 -0.98848639065E+01  0.40659283056E+02  0.00000000000E+00 0. -1.
         11    1    3    3    0    0 -0.20128005038E+02  0.50581713260E+00 -0.90976070986E+01  0.22094318115E+02  0.51100000000E-03 0. -1.
        -11    1    3    3    0    0 -0.22576335877E+01 -0.36658111998E+01  0.39380385148E+01  0.58346575542E+01  0.51100000000E-03 0.  1.
         12    1    3    3    0    0 -0.16836288059E+02 -0.97609482052E+00  0.15044432490E+02  0.22599741274E+02  0.00000000000E+00 0. -1.
</event>
<event>
 7    1  0.6136531E-013  0.5052887E+02  0.7816164E-02  0.1300439E+00
        -11   -1    0    0    0    0  0.00000000000E+00  0.00000000000E+00  0.45593999997E+02  0.45594000000E+02  0.51100000000E-03 0.  1.
         11   -1    0    0    0    0 -0.00000000000E+00 -0.00000000000E+00 -0.45593999997E+02  0.45594000000E+02  0.51100000000E-03 0. -1.
    9900012    2    1    2    0    0  0.22814188879E+02 -0.38927897850E+01  0.33429389541E+02  0.50528866812E+02  0.30000021162E+02 0.  0.
         12    1    1    2    0    0 -0.22814188879E+02  0.38927897850E+01 -0.33429389541E+02  0.40659133188E+02  0.00000000000E+00 0. -1.
         11    1    3    3    0    0 -0.38692423399E+01  0.51420693570E+01 -0.44523424358E+00  0.64505927906E+01  0.51100000000E-03 0. -1.
        -11    1    3    3    0    0  0.15230844342E+02 -0.47064039310E+01  0.19942394146E+02  0.25530921289E+02  0.51100000000E-03 0.  1.
         12    1    3    3    0    0  0.11452586877E+02 -0.43284552109E+01  0.13932229638E+02  0.18547352733E+02  0.00000000000E+00 0. -1.
</event>
<event>
 7    1  0.6136531E-013  0.5052886E+02  0.7816164E-02  0.1300439E+00
        -11   -1    0    0    0    0  0.00000000000E+00  0.00000000000E+00  0.45593999997E+02  0.45594000000E+02  0.51100000000E-03 0. -1.
         11   -1    0    0    0    0 -0.00000000000E+00 -0.00000000000E+00 -0.45593999997E+02  0.45594000000E+02  0.51100000000E-03 0.  1.
    9900012    2    1    2    0    0 -0.12267283477E+02 -0.37951971175E+02 -0.78947638150E+01  0.50528860122E+02  0.30000000826E+02 0.  0.
         12    1    1    2    0    0  0.12267283477E+02  0.37951971175E+02  0.78947638150E+01  0.40659139878E+02  0.00000000000E+00 0. -1.
         11    1    3    3    0    0 -0.10068272431E+02 -0.29991711283E+02  0.44227550877E+01  0.31944226681E+02  0.51100000000E-03 0. -1.
        -11    1    3    3    0    0  0.32253526972E+01 -0.75939579024E+01 -0.90283509256E+01  0.12230380916E+02  0.51100000000E-03 0.  1.
         12    1    3    3    0    0 -0.54243637432E+01 -0.36630198883E+00 -0.32891679772E+01  0.63542525246E+01  0.00000000000E+00 0. -1.
</event>
<event>
 7    1  0.6136531E-013  0.5052885E+02  0.7816164E-02  0.1300439E+00
        -11   -1    0    0    0    0  0.00000000000E+00  0.00000000000E+00  0.45593999997E+02  0.45594000000E+02  0.51100000000E-03 0.  1.
         11   -1    0    0    0    0 -0.00000000000E+00 -0.00000000000E+00 -0.45593999997E+02  0.45594000000E+02  0.51100000000E-03 0. -1.
    9900012    2    1    2    0    0  0.26279963099E+02 -0.99567599525E+01  0.29383549126E+02  0.50528849880E+02  0.29999969696E+02 0.  0.
         12    1    1    2    0    0 -0.26279963099E+02  0.99567599525E+01 -0.29383549126E+02  0.40659150120E+02  0.00000000000E+00 0. -1.
         11    1    3    3    0    0  0.80006108982E+01 -0.40805464894E+01  0.25848245658E+02  0.27364072033E+02  0.51100000000E-03 0. -1.
        -11    1    3    3    0    0  0.17765382320E+02 -0.88637092755E+01  0.32764911953E+01  0.20122364322E+02  0.51100000000E-03 0.  1.
        -12    1    3    3    0    0  0.51396988102E+00  0.29874958123E+01  0.25881227298E+00  0.30424135255E+01  0.00000000000E+00 0.  1.
</event>
<event>
 7    1  0.6136531E-013  0.5052886E+02  0.7816164E-02  0.1300439E+00
        -11   -1    0    0    0    0  0.00000000000E+00  0.00000000000E+00  0.45593999997E+02  0.45594000000E+02  0.51100000000E-03 0.  1.
         11   -1    0    0    0    0 -0.00000000000E+00 -0.00000000000E+00 -0.45593999997E+02  0.45594000000E+02  0.51100000000E-03 0. -1.
    9900012    2    1    2    0    0  0.11464323514E+02  0.37400540441E+02  0.11087591840E+02  0.50528857957E+02  0.29999994245E+02 0.  0.
         12    1    1    2    0    0 -0.11464323514E+02 -0.37400540441E+02 -0.11087591840E+02  0.40659142043E+02  0.00000000000E+00 0. -1.
         11    1    3    3    0    0  0.53558402862E-01  0.12551332372E+02 -0.78297433508E+01  0.14793366554E+02  0.51100000000E-03 0. -1.
        -11    1    3    3    0    0  0.22646864982E+01  0.10657148876E+02  0.14763020442E+02  0.18348035316E+02  0.51100000000E-03 0.  1.
         12    1    3    3    0    0  0.91460786134E+01  0.14192059193E+02  0.41543147484E+01  0.17387456087E+02  0.00000000000E+00 0. -1.
</event>
<event>
 7    1  0.6136531E-013  0.5052886E+02  0.7816164E-02  0.1300439E+00
        -11   -1    0    0    0    0  0.00000000000E+00  0.00000000000E+00  0.45593999997E+02  0.45594000000E+02  0.51100000000E-03 0.  1.
         11   -1    0    0    0    0 -0.00000000000E+00 -0.00000000000E+00 -0.45593999997E+02  0.45594000000E+02  0.51100000000E-03 0. -1.
    9900012    2    1    2    0    0  0.29193674329E+02 -0.11911313890E+02  0.25671294094E+02  0.50528863759E+02  0.30000011882E+02 0.  0.
         12    1    1    2    0    0 -0.29193674329E+02  0.11911313890E+02 -0.25671294094E+02  0.40659136241E+02  0.00000000000E+00 0. -1.
         11    1    3    3    0    0  0.88185979955E+01  0.40308645949E+01 -0.42440511299E+01  0.10584304901E+02  0.51100000000E-03 0. -1.
        -11    1    3    3    0    0  0.89747809826E+01 -0.36461687083E+01  0.11598901401E+02  0.15112106203E+02  0.51100000000E-03 0.  1.
         12    1    3    3    0    0  0.11400295351E+02 -0.12296009777E+02  0.18316443823E+02  0.24832452654E+02  0.00000000000E+00 0. -1.
</event>
<event>
 7    1  0.6136531E-013  0.5052887E+02  0.7816164E-02  0.1300439E+00
        -11   -1    0    0    0    0  0.00000000000E+00  0.00000000000E+00  0.45593999997E+02  0.45594000000E+02  0.51100000000E-03 0.  1.
         11   -1    0    0    0    0 -0.00000000000E+00 -0.00000000000E+00 -0.45593999997E+02  0.45594000000E+02  0.51100000000E-03 0. -1.
    9900012    2    1    2    0    0  0.77094723759E+01  0.38103046876E+02  0.11911630148E+02  0.50528867221E+02  0.30000022404E+02 0.  0.
         12    1    1    2    0    0 -0.77094723759E+01 -0.38103046876E+02 -0.11911630148E+02  0.40659132779E+02  0.00000000000E+00 0. -1.
         11    1    3    3    0    0 -0.51970771848E+01 -0.23464253217E+01  0.36859495647E+00  0.57141215911E+01  0.51100000000E-03 0. -1.
        -11    1    3    3    0    0  0.67859762977E+01  0.17235520131E+02  0.87507972674E+00  0.18543958404E+02  0.51100000000E-03 0.  1.
         12    1    3    3    0    0  0.61205732631E+01  0.23213952067E+02  0.10667955465E+02  0.26270787226E+02  0.00000000000E+00 0. -1.
</event>
<event>
 7    1  0.6136531E-013  0.5052886E+02  0.7816164E-02  0.1300439E+00
        -11   -1    0    0    0    0  0.00000000000E+00  0.00000000000E+00  0.45593999997E+02  0.45594000000E+02  0.51100000000E-03 0.  1.
         11   -1    0    0    0    0 -0.00000000000E+00 -0.00000000000E+00 -0.45593999997E+02  0.45594000000E+02  0.51100000000E-03 0. -1.
    9900012    2    1    2    0    0 -0.35079663896E+02  0.18677984756E+02 -0.85857734507E+01  0.50528862782E+02  0.30000008912E+02 0.  0.
         12    1    1    2    0    0  0.35079663896E+02 -0.18677984756E+02  0.85857734507E+01  0.40659137218E+02  0.00000000000E+00 0. -1.
         11    1    3    3    0    0 -0.99518468815E+01  0.91176917426E+01 -0.16425428539E+02  0.21259498160E+02  0.51100000000E-03 0. -1.
        -11    1    3    3    0    0 -0.11236040928E+02  0.23801507478E+01 -0.59732921800E+00  0.11500892826E+02  0.51100000000E-03 0.  1.
         12    1    3    3    0    0 -0.13891776086E+02  0.71801422653E+01  0.84369843068E+01  0.17768471796E+02  0.00000000000E+00 0. -1.
</event>
<event>
 7    1  0.6136531E-013  0.5052886E+02  0.7816164E-02  0.1300439E+00
        -11   -1    0    0    0    0  0.00000000000E+00  0.00000000000E+00  0.45593999997E+02  0.45594000000E+02  0.51100000000E-03 0.  1.
         11   -1    0    0    0    0 -0.00000000000E+00 -0.00000000000E+00 -0.45593999997E+02  0.45594000000E+02  0.51100000000E-03 0. -1.
    9900012    2    1    2    0    0  0.27653768241E+02  0.18076353170E+02  0.23699787583E+02  0.50528863593E+02  0.30000011379E+02 0.  0.
         12    1    1    2    0    0 -0.27653768241E+02 -0.18076353170E+02 -0.23699787583E+02  0.40659136407E+02  0.00000000000E+00 0. -1.
         11    1    3    3    0    0  0.96486675808E+00  0.63490557937E+00 -0.54383519999E+01  0.55596533787E+01  0.51100000000E-03 0. -1.
        -11    1    3    3    0    0  0.64231116453E+01  0.72326265174E+01  0.16144332933E+02  0.18820380859E+02  0.51100000000E-03 0.  1.
         12    1    3    3    0    0  0.20265789838E+02  0.10208821073E+02  0.12993806650E+02  0.26148829356E+02  0.00000000000E+00 0. -1.
</event>
<event>
 7    1  0.6136531E-013  0.5052886E+02  0.7816164E-02  0.1300439E+00
        -11   -1    0    0    0    0  0.00000000000E+00  0.00000000000E+00  0.45593999997E+02  0.45594000000E+02  0.51100000000E-03 0. -1.
         11   -1    0    0    0    0 -0.00000000000E+00 -0.00000000000E+00 -0.45593999997E+02  0.45594000000E+02  0.51100000000E-03 0.  1.
    9900012    2    1    2    0    0 -0.15851263111E+02  0.25831639032E+02 -0.27104044411E+02  0.50528863994E+02  0.30000012597E+02 0.  0.
         12    1    1    2    0    0  0.15851263111E+02 -0.25831639032E+02  0.27104044411E+02  0.40659136006E+02  0.00000000000E+00 0. -1.
         11    1    3    3    0    0 -0.85388077569E+01 -0.22370150695E+01 -0.27185567734E+01  0.92361261101E+01  0.51100000000E-03 0. -1.
        -11    1    3    3    0    0 -0.24419780719E+01  0.28277619012E+02 -0.21693695130E+02  0.35723989175E+02  0.51100000000E-03 0.  1.
        -12    1    3    3    0    0 -0.48704772817E+01 -0.20896491036E+00 -0.26917925076E+01  0.55687487095E+01  0.00000000000E+00 0.  1.
</event>
<event>
 7    1  0.6136531E-013  0.5052886E+02  0.7816164E-02  0.1300439E+00
        -11   -1    0    0    0    0  0.00000000000E+00  0.00000000000E+00  0.45593999997E+02  0.45594000000E+02  0.51100000000E-03 0. -1.
         11   -1    0    0    0    0 -0.00000000000E+00 -0.00000000000E+00 -0.45593999997E+02  0.45594000000E+02  0.51100000000E-03 0.  1.
    9900012    2    1    2    0    0  0.26828976235E+02  0.17522220019E+02 -0.25026855922E+02  0.50528859853E+02  0.30000000008E+02 0.  0.
         12    1    1    2    0    0 -0.26828976235E+02 -0.17522220019E+02  0.25026855922E+02  0.40659140147E+02  0.00000000000E+00 0. -1.
         11    1    3    3    0    0  0.20141318621E+02  0.87876189280E+00 -0.11779449233E+02  0.23349525964E+02  0.51100000000E-03 0. -1.
        -11    1    3    3    0    0  0.94032663041E+01  0.16272590947E+02 -0.64831486157E+01  0.19880891568E+02  0.51100000000E-03 0.  1.
        -12    1    3    3    0    0 -0.27156086906E+01  0.37086717995E+00 -0.67642580731E+01  0.72984423204E+01  0.00000000000E+00 0.  1.
</event>
<event>
 7    1  0.6136531E-013  0.5052886E+02  0.7816164E-02  0.1300439E+00
        -11   -1    0    0    0    0  0.00000000000E+00  0.00000000000E+00  0.45593999997E+02  0.45594000000E+02  0.51100000000E-03 0.  1.
         11   -1    0    0    0    0 -0.00000000000E+00 -0.00000000000E+00 -0.45593999997E+02  0.45594000000E+02  0.51100000000E-03 0. -1.
    9900012    2    1    2    0    0 -0.19530224649E+01 -0.52468062016E+01  0.40271852801E+02  0.50528863264E+02  0.30000010377E+02 0.  0.
         12    1    1    2    0    0  0.19530224649E+01  0.52468062016E+01 -0.40271852801E+02  0.40659136736E+02  0.00000000000E+00 0. -1.
         11    1    3    3    0    0 -0.31681552412E+01 -0.49170567486E+00 -0.21525377881E+01  0.38616578426E+01  0.51100000000E-03 0. -1.
        -11    1    3    3    0    0  0.41947268329E+01  0.59213921083E+01  0.24861939364E+02  0.25899317499E+02  0.51100000000E-03 0.  1.
        -12    1    3    3    0    0 -0.29795940566E+01 -0.10676492635E+02  0.17562451226E+02  0.20767887923E+02  0.00000000000E+00 0.  1.
</event>
<event>
 7    1  0.6136531E-013  0.5052886E+02  0.7816164E-02  0.1300439E+00
        -11   -1    0    0    0    0  0.00000000000E+00  0.00000000000E+00  0.45593999997E+02  0.45594000000E+02  0.51100000000E-03 0.  1.
         11   -1    0    0    0    0 -0.00000000000E+00 -0.00000000000E+00 -0.45593999997E+02  0.45594000000E+02  0.51100000000E-03 0. -1.
    9900012    2    1    2    0    0  0.33756714909E+01 -0.19348545023E+01  0.40472546296E+02  0.50528858055E+02  0.29999994545E+02 0.  0.
         12    1    1    2    0    0 -0.33756714909E+01  0.19348545023E+01 -0.40472546296E+02  0.40659141945E+02  0.00000000000E+00 0. -1.
         11    1    3    3    0    0 -0.22504211195E+01  0.10590856706E+02  0.11997959243E+02  0.16161115903E+02  0.51100000000E-03 0. -1.
        -11    1    3    3    0    0  0.78176545951E+01 -0.85015587888E+01  0.27292256774E+02  0.29635443396E+02  0.51100000000E-03 0.  1.
         12    1    3    3    0    0 -0.21915619847E+01 -0.40241524191E+01  0.11823302789E+01  0.47322987557E+01  0.00000000000E+00 0. -1.
</event>
<event>
 7    1  0.6136531E-013  0.5052883E+02  0.7816164E-02  0.1300439E+00
        -11   -1    0    0    0    0  0.00000000000E+00  0.00000000000E+00  0.45593999997E+02  0.45594000000E+02  0.51100000000E-03 0.  1.
         11   -1    0    0    0    0 -0.00000000000E+00 -0.00000000000E+00 -0.45593999997E+02  0.45594000000E+02  0.51100000000E-03 0. -1.
    9900012    2    1    2    0    0 -0.14910442348E+02  0.36202896161E+02  0.10963430961E+02  0.50528833753E+02  0.29999920675E+02 0.  0.
         12    1    1    2    0    0  0.14910442348E+02 -0.36202896161E+02 -0.10963430961E+02  0.40659166247E+02  0.00000000000E+00 0. -1.
         11    1    3    3    0    0 -0.18241330063E+02  0.29505951010E+02  0.74850208871E+01  0.35487642996E+02  0.51100000000E-03 0.  1.
        -11    1    3    3    0    0  0.50257686804E+01  0.71019229628E+01 -0.23053884491E+01  0.90005820234E+01  0.51100000000E-03 0. -1.
        -12    1    3    3    0    0 -0.16948809657E+01 -0.40497781151E+00  0.57837985232E+01  0.60406087336E+01  0.00000000000E+00 0.  1.
</event>
<event>
 7    1  0.6136531E-013  0.5052888E+02  0.7816164E-02  0.1300439E+00
        -11   -1    0    0    0    0  0.00000000000E+00  0.00000000000E+00  0.45593999997E+02  0.45594000000E+02  0.51100000000E-03 0.  1.
         11   -1    0    0    0    0 -0.00000000000E+00 -0.00000000000E+00 -0.45593999997E+02  0.45594000000E+02  0.51100000000E-03 0. -1.
    9900012    2    1    2    0    0 -0.22791237644E+02  0.21386299552E+02  0.26006728221E+02  0.50528877596E+02  0.30000053942E+02 0.  0.
         12    1    1    2    0    0  0.22791237644E+02 -0.21386299552E+02 -0.26006728221E+02  0.40659122404E+02  0.00000000000E+00 0. -1.
         11    1    3    3    0    0 -0.15103044678E+02  0.27953608707E+01 -0.20468084568E+01  0.15495335623E+02  0.51100000000E-03 0. -1.
        -11    1    3    3    0    0 -0.65069585241E+01  0.14958885373E+02  0.18068361360E+02  0.24342851997E+02  0.51100000000E-03 0.  1.
         12    1    3    3    0    0 -0.11812344414E+01  0.36320533079E+01  0.99851753185E+01  0.10690689977E+02  0.00000000000E+00 0. -1.
</event>
<event>
 7    1  0.6136531E-013  0.5052886E+02  0.7816164E-02  0.1300439E+00
        -11   -1    0    0    0    0  0.00000000000E+00  0.00000000000E+00  0.45593999997E+02  0.45594000000E+02  0.51100000000E-03 0. -1.
         11   -1    0    0    0    0 -0.00000000000E+00 -0.00000000000E+00 -0.45593999997E+02  0.45594000000E+02  0.51100000000E-03 0.  1.
    9900012    2    1    2    0    0 -0.10435419881E+02 -0.27378852070E+01 -0.39201678159E+02  0.50528861126E+02  0.30000003879E+02 0.  0.
         12    1    1    2    0    0  0.10435419881E+02  0.27378852070E+01  0.39201678159E+02  0.40659138874E+02  0.00000000000E+00 0. -1.
         11    1    3    3    0    0  0.12774548527E+01 -0.48036586368E+01  0.32059028342E+01  0.59147984280E+01  0.51100000000E-03 0. -1.
        -11    1    3    3    0    0 -0.59827801320E+01 -0.94040003319E+00 -0.30161500679E+02  0.30763519529E+02  0.51100000000E-03 0.  1.
         12    1    3    3    0    0 -0.57300946020E+01  0.30061734631E+01 -0.12246080314E+02  0.13850543169E+02  0.00000000000E+00 0. -1.
</event>
<event>
 7    1  0.6136531E-013  0.5052885E+02  0.7816164E-02  0.1300439E+00
        -11   -1    0    0    0    0  0.00000000000E+00  0.00000000000E+00  0.45593999997E+02  0.45594000000E+02  0.51100000000E-03 0.  1.
         11   -1    0    0    0    0 -0.00000000000E+00 -0.00000000000E+00 -0.45593999997E+02  0.45594000000E+02  0.51100000000E-03 0. -1.
    9900012    2    1    2    0    0 -0.34826304983E+02 -0.16110558883E+02  0.13444137348E+02  0.50528850288E+02  0.29999970937E+02 0.  0.
         12    1    1    2    0    0  0.34826304983E+02  0.16110558883E+02 -0.13444137348E+02  0.40659149712E+02  0.00000000000E+00 0. -1.
         11    1    3    3    0    0 -0.46106419403E+00  0.83458493824E+00 -0.39982362268E+01  0.41103534394E+01  0.51100000000E-03 0. -1.
        -11    1    3    3    0    0 -0.23630046613E+02 -0.13381828566E+02  0.19359592072E+01  0.27224995446E+02  0.51100000000E-03 0.  1.
        -12    1    3    3    0    0 -0.10735194176E+02 -0.35633152546E+01  0.15506414367E+02  0.19193501403E+02  0.00000000000E+00 0.  1.
</event>
<event>
 7    1  0.6136531E-013  0.5052886E+02  0.7816164E-02  0.1300439E+00
        -11   -1    0    0    0    0  0.00000000000E+00  0.00000000000E+00  0.45593999997E+02  0.45594000000E+02  0.51100000000E-03 0.  1.
         11   -1    0    0    0    0 -0.00000000000E+00 -0.00000000000E+00 -0.45593999997E+02  0.45594000000E+02  0.51100000000E-03 0. -1.
    9900012    2    1    2    0    0  0.14952795575E+02 -0.34420015993E+01  0.37652781993E+02  0.50528862499E+02  0.30000008051E+02 0.  0.
         12    1    1    2    0    0 -0.14952795575E+02  0.34420015993E+01 -0.37652781993E+02  0.40659137501E+02  0.00000000000E+00 0. -1.
         11    1    3    3    0    0  0.70229641076E+01  0.10000554012E+01 -0.37885398571E+01  0.80420874262E+01  0.51100000000E-03 0. -1.
        -11    1    3    3    0    0  0.18448342166E+01 -0.20594772027E+01  0.10113339535E+02  0.10484488374E+02  0.51100000000E-03 0.  1.
         12    1    3    3    0    0  0.60849972510E+01 -0.23825797978E+01  0.31327982315E+02  0.32002286699E+02  0.00000000000E+00 0. -1.
</event>
<event>
 7    1  0.6136531E-013  0.5052885E+02  0.7816164E-02  0.1300439E+00
        -11   -1    0    0    0    0  0.00000000000E+00  0.00000000000E+00  0.45593999997E+02  0.45594000000E+02  0.51100000000E-03 0. -1.
         11   -1    0    0    0    0 -0.00000000000E+00 -0.00000000000E+00 -0.45593999997E+02  0.45594000000E+02  0.51100000000E-03 0.  1.
    9900012    2    1    2    0    0 -0.38251046070E+02  0.11357424580E+02  0.78123358266E+01  0.50528853310E+02  0.29999980120E+02 0.  0.
         12    1    1    2    0    0  0.38251046070E+02 -0.11357424580E+02 -0.78123358266E+01  0.40659146690E+02  0.00000000000E+00 0. -1.
         11    1    3    3    0    0 -0.20847768170E+02 -0.88353367946E+01  0.32808512532E+01  0.22879173918E+02  0.51100000000E-03 0.  1.
        -11    1    3    3    0    0 -0.68331360839E+01  0.11492429234E+02  0.39722272986E+01  0.13947984385E+02  0.51100000000E-03 0. -1.
        -12    1    3    3    0    0 -0.10570141816E+02  0.87003321402E+01  0.55925727485E+00  0.13701695007E+02  0.00000000000E+00 0.  1.
</event>
<event>
 7    1  0.6136531E-013  0.5052886E+02  0.7816164E-02  0.1300439E+00
        -11   -1    0    0    0    0  0.00000000000E+00  0.00000000000E+00  0.45593999997E+02  0.45594000000E+02  0.51100000000E-03 0. -1.
         11   -1    0    0    0    0 -0.00000000000E+00 -0.00000000000E+00 -0.45593999997E+02  0.45594000000E+02  0.51100000000E-03 0.  1.
    9900012    2    1    2    0    0  0.11584194301E+02  0.37980085339E+02 -0.87455621467E+01  0.50528864529E+02  0.30000014224E+02 0.  0.
         12    1    1    2    0    0 -0.11584194301E+02 -0.37980085339E+02  0.87455621467E+01  0.40659135471E+02  0.00000000000E+00 0. -1.
         11    1    3    3    0    0  0.68470231064E+01  0.71478139563E+01 -0.12926704687E+02  0.16281052303E+02  0.51100000000E-03 0. -1.
        -11    1    3    3    0    0  0.20293198291E+00  0.21802819460E+02  0.83087947745E+01  0.23333242138E+02  0.51100000000E-03 0.  1.
        -12    1    3    3    0    0  0.45342392118E+01  0.90294519226E+01 -0.41276522343E+01  0.10914570089E+02  0.00000000000E+00 0.  1.
</event>
<event>
 7    1  0.6136531E-013  0.5052887E+02  0.7816164E-02  0.1300439E+00
        -11   -1    0    0    0    0  0.00000000000E+00  0.00000000000E+00  0.45593999997E+02  0.45594000000E+02  0.51100000000E-03 0. -1.
         11   -1    0    0    0    0 -0.00000000000E+00 -0.00000000000E+00 -0.45593999997E+02  0.45594000000E+02  0.51100000000E-03 0.  1.
    9900012    2    1    2    0    0  0.36438037033E+02  0.16274602378E+02  0.77827904331E+01  0.50528867542E+02  0.30000023379E+02 0.  0.
         12    1    1    2    0    0 -0.36438037033E+02 -0.16274602378E+02 -0.77827904331E+01  0.40659132458E+02  0.00000000000E+00 0. -1.
         11    1    3    3    0    0  0.72228934118E+01  0.90850366068E+01  0.12777722206E+02  0.17262046936E+02  0.51100000000E-03 0. -1.
        -11    1    3    3    0    0  0.96546421832E+01 -0.26441056585E+01 -0.53919277802E+01  0.11369973433E+02  0.51100000000E-03 0.  1.
        -12    1    3    3    0    0  0.19560501437E+02  0.98336714299E+01  0.39699600748E+00  0.21896847173E+02  0.00000000000E+00 0.  1.
</event>
<event>
 7    1  0.6136531E-013  0.5052886E+02  0.7816164E-02  0.1300439E+00
        -11   -1    0    0    0    0  0.00000000000E+00  0.00000000000E+00  0.45593999997E+02  0.45594000000E+02  0.51100000000E-03 0. -1.
         11   -1    0    0    0    0 -0.00000000000E+00 -0.00000000000E+00 -0.45593999997E+02  0.45594000000E+02  0.51100000000E-03 0.  1.
    9900012    2    1    2    0    0 -0.33952767208E+01  0.11709388353E+02 -0.38788244230E+02  0.50528861174E+02  0.30000004024E+02 0.  0.
         12    1    1    2    0    0  0.33952767208E+01 -0.11709388353E+02  0.38788244230E+02  0.40659138826E+02  0.00000000000E+00 0. -1.
         11    1    3    3    0    0  0.17331261116E+01 -0.92096167687E+01 -0.11178531033E+02  0.14586991584E+02  0.51100000000E-03 0. -1.
        -11    1    3    3    0    0 -0.39960328121E+01  0.19140739941E+02 -0.27611252235E+02  0.33833673374E+02  0.51100000000E-03 0.  1.
        -12    1    3    3    0    0 -0.11323700203E+01  0.17782651812E+01  0.15390376366E-02  0.21081962162E+01  0.00000000000E+00 0.  1.
</event>
<event>
 7    1  0.6136531E-013  0.5052886E+02  0.7816164E-02  0.1300439E+00
        -11   -1    0    0    0    0  0.00000000000E+00  0.00000000000E+00  0.45593999997E+02  0.45594000000E+02  0.51100000000E-03 0.  1.
         11   -1    0    0    0    0 -0.00000000000E+00 -0.00000000000E+00 -0.45593999997E+02  0.45594000000E+02  0.51100000000E-03 0. -1.
    9900012    2    1    2    0    0  0.17111258912E+02  0.95999425636E+01  0.35611957352E+02  0.50528860988E+02  0.30000003459E+02 0.  0.
         12    1    1    2    0    0 -0.17111258912E+02 -0.95999425636E+01 -0.35611957352E+02  0.40659139012E+02  0.00000000000E+00 0. -1.
         11    1    3    3    0    0  0.15841431465E+02 -0.21752390857E+01  0.11819102194E+02  0.19884008471E+02  0.51100000000E-03 0. -1.
        -11    1    3    3    0    0  0.53875821714E+01  0.13700046732E+02  0.17244894256E+02  0.22673854994E+02  0.51100000000E-03 0.  1.
         12    1    3    3    0    0 -0.41177547242E+01 -0.19248650825E+01  0.65479609017E+01  0.79709975238E+01  0.00000000000E+00 0. -1.
</event>
<event>
 7    1  0.6136531E-013  0.5052886E+02  0.7816164E-02  0.1300439E+00
        -11   -1    0    0    0    0  0.00000000000E+00  0.00000000000E+00  0.45593999997E+02  0.45594000000E+02  0.51100000000E-03 0.  1.
         11   -1    0    0    0    0 -0.00000000000E+00 -0.00000000000E+00 -0.45593999997E+02  0.45594000000E+02  0.51100000000E-03 0. -1.
    9900012    2    1    2    0    0  0.28209514304E+02 -0.12413970101E+01  0.29254882128E+02  0.50528857214E+02  0.29999991986E+02 0.  0.
         12    1    1    2    0    0 -0.28209514304E+02  0.12413970101E+01 -0.29254882128E+02  0.40659142786E+02  0.00000000000E+00 0. -1.
         11    1    3    3    0    0  0.22925960325E+02 -0.28918078859E+01  0.74487687392E+01  0.24278516546E+02  0.51100000000E-03 0. -1.
        -11    1    3    3    0    0  0.66728138353E+01  0.65989182988E+01  0.12661430246E+02  0.15760202516E+02  0.51100000000E-03 0.  1.
         12    1    3    3    0    0 -0.13892598568E+01 -0.49485074229E+01  0.91446831430E+01  0.10490138152E+02  0.00000000000E+00 0. -1.
</event>
<event>
 7    1  0.6136531E-013  0.5052886E+02  0.7816164E-02  0.1300439E+00
        -11   -1    0    0    0    0  0.00000000000E+00  0.00000000000E+00  0.45593999997E+02  0.45594000000E+02  0.51100000000E-03 0. -1.
         11   -1    0    0    0    0 -0.00000000000E+00 -0.00000000000E+00 -0.45593999997E+02  0.45594000000E+02  0.51100000000E-03 0.  1.
    9900012    2    1    2    0    0 -0.31963717313E+02 -0.25025381428E+02 -0.22839888366E+01  0.50528861481E+02  0.30000004958E+02 0.  0.
         12    1    1    2    0    0  0.31963717313E+02  0.25025381428E+02  0.22839888366E+01  0.40659138519E+02  0.00000000000E+00 0. -1.
         11    1    3    3    0    0 -0.62538639509E-01 -0.15321841274E+02 -0.20908768643E+01  0.15463974179E+02  0.51100000000E-03 0. -1.
        -11    1    3    3    0    0 -0.76503148566E+01 -0.48924081023E+01  0.41134309464E+01  0.99691167541E+01  0.51100000000E-03 0.  1.
         12    1    3    3    0    0 -0.24250863817E+02 -0.48111320523E+01 -0.43065429187E+01  0.25095770548E+02  0.00000000000E+00 0. -1.
</event>
<event>
 7    1  0.6136531E-013  0.5052887E+02  0.7816164E-02  0.1300439E+00
        -11   -1    0    0    0    0  0.00000000000E+00  0.00000000000E+00  0.45593999997E+02  0.45594000000E+02  0.51100000000E-03 0.  1.
         11   -1    0    0    0    0 -0.00000000000E+00 -0.00000000000E+00 -0.45593999997E+02  0.45594000000E+02  0.51100000000E-03 0. -1.
    9900012    2    1    2    0    0 -0.56470620112E+01 -0.13540562966E+02  0.37920034930E+02  0.50528865677E+02  0.30000017711E+02 0.  0.
         12    1    1    2    0    0  0.56470620112E+01  0.13540562966E+02 -0.37920034930E+02  0.40659134323E+02  0.00000000000E+00 0. -1.
         11    1    3    3    0    0  0.94053102880E+01 -0.31662697696E+00  0.24606272903E+02  0.26344425989E+02  0.51100000000E-03 0. -1.
        -11    1    3    3    0    0 -0.79827763139E+01 -0.83516019935E+01  0.67846875740E+01  0.13397983403E+02  0.51100000000E-03 0.  1.
         12    1    3    3    0    0 -0.70695959853E+01 -0.48723339954E+01  0.65290744530E+01  0.10786456284E+02  0.00000000000E+00 0. -1.
</event>
<event>
 7    1  0.6136531E-013  0.5052886E+02  0.7816164E-02  0.1300439E+00
        -11   -1    0    0    0    0  0.00000000000E+00  0.00000000000E+00  0.45593999997E+02  0.45594000000E+02  0.51100000000E-03 0.  1.
         11   -1    0    0    0    0 -0.00000000000E+00 -0.00000000000E+00 -0.45593999997E+02  0.45594000000E+02  0.51100000000E-03 0. -1.
    9900012    2    1    2    0    0  0.25949736670E+02 -0.57254263837E+01  0.30773302721E+02  0.50528862025E+02  0.30000006610E+02 0.  0.
         12    1    1    2    0    0 -0.25949736670E+02  0.57254263837E+01 -0.30773302721E+02  0.40659137975E+02  0.00000000000E+00 0. -1.
         11    1    3    3    0    0  0.12670865720E+02  0.82806538975E+00  0.12310070537E+01  0.12757425642E+02  0.51100000000E-03 0. -1.
        -11    1    3    3    0    0  0.38858654406E+00 -0.22523069872E+01  0.22216188730E+02  0.22333448642E+02  0.51100000000E-03 0.  1.
        -12    1    3    3    0    0  0.12890284406E+02 -0.43011847863E+01  0.73261069371E+01  0.15437987741E+02  0.00000000000E+00 0.  1.
</event>
<event>
 7    1  0.6136531E-013  0.5052891E+02  0.7816164E-02  0.1300439E+00
        -11   -1    0    0    0    0  0.00000000000E+00  0.00000000000E+00  0.45593999997E+02  0.45594000000E+02  0.51100000000E-03 0. -1.
         11   -1    0    0    0    0 -0.00000000000E+00 -0.00000000000E+00 -0.45593999997E+02  0.45594000000E+02  0.51100000000E-03 0.  1.
    9900012    2    1    2    0    0 -0.36385438164E+02  0.12780362548E+02  0.12881144999E+02  0.50528909089E+02  0.30000149666E+02 0.  0.
         12    1    1    2    0    0  0.36385438164E+02 -0.12780362548E+02 -0.12881144999E+02  0.40659090911E+02  0.00000000000E+00 0. -1.
         11    1    3    3    0    0  0.22929534760E+01 -0.73302369035E+00  0.13822217833E+01  0.27758776438E+01  0.51100000000E-03 0. -1.
        -11    1    3    3    0    0 -0.34397026150E+02  0.15313184705E+02  0.26321352636E+01  0.37743571242E+02  0.51100000000E-03 0.  1.
        -12    1    3    3    0    0 -0.42813654899E+01 -0.17997984663E+01  0.88667879522E+01  0.10009460204E+02  0.00000000000E+00 0.  1.
</event>
<event>
 7    1  0.6136531E-013  0.5052886E+02  0.7816164E-02  0.1300439E+00
        -11   -1    0    0    0    0  0.00000000000E+00  0.00000000000E+00  0.45593999997E+02  0.45594000000E+02  0.51100000000E-03 0.  1.
         11   -1    0    0    0    0 -0.00000000000E+00 -0.00000000000E+00 -0.45593999997E+02  0.45594000000E+02  0.51100000000E-03 0. -1.
    9900012    2    1    2    0    0 -0.24901448681E+02 -0.22628680790E+02  0.22825995104E+02  0.50528863349E+02  0.30000010635E+02 0.  0.
         12    1    1    2    0    0  0.24901448681E+02  0.22628680790E+02 -0.22825995104E+02  0.40659136651E+02  0.00000000000E+00 0. -1.
         11    1    3    3    0    0  0.26624166572E+01  0.26017123192E+01 -0.12892068966E+01  0.39394700318E+01  0.51100000000E-03 0. -1.
        -11    1    3    3    0    0 -0.75838962743E+01 -0.87283232869E+01  0.15382834439E+02  0.19243978428E+02  0.51100000000E-03 0.  1.
         12    1    3    3    0    0 -0.19979969064E+02 -0.16502069822E+02  0.87323675623E+01  0.27345414889E+02  0.00000000000E+00 0. -1.
</event>
<event>
 7    1  0.6136531E-013  0.5052891E+02  0.7816164E-02  0.1300439E+00
        -11   -1    0    0    0    0  0.00000000000E+00  0.00000000000E+00  0.45593999997E+02  0.45594000000E+02  0.51100000000E-03 0.  1.
         11   -1    0    0    0    0 -0.00000000000E+00 -0.00000000000E+00 -0.45593999997E+02  0.45594000000E+02  0.51100000000E-03 0. -1.
    9900012    2    1    2    0    0 -0.27414790890E+02 -0.58815300951E+01  0.29444837249E+02  0.50528910040E+02  0.30000152557E+02 0.  0.
         12    1    1    2    0    0  0.27414790890E+02  0.58815300951E+01 -0.29444837249E+02  0.40659089960E+02  0.00000000000E+00 0. -1.
         11    1    3    3    0    0 -0.26874475407E+01  0.59460215564E+01 -0.22024143155E+01  0.68868117233E+01  0.51100000000E-03 0. -1.
        -11    1    3    3    0    0 -0.17107179251E+02 -0.13998995259E+02  0.22533834805E+02  0.31565822680E+02  0.51100000000E-03 0.  1.
        -12    1    3    3    0    0 -0.76201640984E+01  0.21714436075E+01  0.91134167590E+01  0.12076275637E+02  0.00000000000E+00 0.  1.
</event>
<event>
 7    1  0.6136531E-013  0.5052885E+02  0.7816164E-02  0.1300439E+00
        -11   -1    0    0    0    0  0.00000000000E+00  0.00000000000E+00  0.45593999997E+02  0.45594000000E+02  0.51100000000E-03 0.  1.
         11   -1    0    0    0    0 -0.00000000000E+00 -0.00000000000E+00 -0.45593999997E+02  0.45594000000E+02  0.51100000000E-03 0. -1.
    9900012    2    1    2    0    0  0.13856847022E+01 -0.14349142207E+02  0.38017738498E+02  0.50528850418E+02  0.29999971332E+02 0.  0.
         12    1    1    2    0    0 -0.13856847022E+01  0.14349142207E+02 -0.38017738498E+02  0.40659149582E+02  0.00000000000E+00 0. -1.
         11    1    3    3    0    0  0.11902670175E+01  0.12043667182E+01 -0.62177736257E+00  0.18038409338E+01  0.51100000000E-03 0. -1.
        -11    1    3    3    0    0  0.64493741084E+01 -0.20255961621E+02  0.23536213256E+02  0.31715165808E+02  0.51100000000E-03 0.  1.
        -12    1    3    3    0    0 -0.62539564237E+01  0.47024526959E+01  0.15103302605E+02  0.17009843676E+02  0.00000000000E+00 0.  1.
</event>
<event>
 7    1  0.6136531E-013  0.5052886E+02  0.7816164E-02  0.1300439E+00
        -11   -1    0    0    0    0  0.00000000000E+00  0.00000000000E+00  0.45593999997E+02  0.45594000000E+02  0.51100000000E-03 0.  1.
         11   -1    0    0    0    0 -0.00000000000E+00 -0.00000000000E+00 -0.45593999997E+02  0.45594000000E+02  0.51100000000E-03 0. -1.
    9900012    2    1    2    0    0  0.40255719746E+02  0.51962202621E+01  0.23752198134E+01  0.50528863924E+02  0.30000012383E+02 0.  0.
         12    1    1    2    0    0 -0.40255719746E+02 -0.51962202621E+01 -0.23752198134E+01  0.40659136076E+02  0.00000000000E+00 0. -1.
         11    1    3    3    0    0 -0.35262265729E+01  0.22480896529E+01 -0.23413125689E+01  0.47926950390E+01  0.51100000000E-03 0. -1.
        -11    1    3    3    0    0  0.27357392776E+02 -0.18051467452E+01  0.74724967053E+01  0.28416961512E+02  0.51100000000E-03 0.  1.
         12    1    3    3    0    0  0.16424553543E+02  0.47532773544E+01 -0.27559643230E+01  0.17319207373E+02  0.00000000000E+00 0. -1.
</event>
<event>
 7    1  0.6136531E-013  0.5052886E+02  0.7816164E-02  0.1300439E+00
        -11   -1    0    0    0    0  0.00000000000E+00  0.00000000000E+00  0.45593999997E+02  0.45594000000E+02  0.51100000000E-03 0.  1.
         11   -1    0    0    0    0 -0.00000000000E+00 -0.00000000000E+00 -0.45593999997E+02  0.45594000000E+02  0.51100000000E-03 0. -1.
    9900012    2    1    2    0    0 -0.56745917357E+01 -0.17394322621E+02  0.36309809224E+02  0.50528859617E+02  0.29999999291E+02 0.  0.
         12    1    1    2    0    0  0.56745917357E+01  0.17394322621E+02 -0.36309809224E+02  0.40659140383E+02  0.00000000000E+00 0. -1.
         11    1    3    3    0    0 -0.27268518735E+01  0.21353719407E+01 -0.22697264870E+01  0.41409169337E+01  0.51100000000E-03 0. -1.
        -11    1    3    3    0    0  0.66998451073E+01 -0.81307314950E+01  0.19444646710E+02  0.22115401987E+02  0.51100000000E-03 0.  1.
         12    1    3    3    0    0 -0.96475849695E+01 -0.11398963067E+02  0.19134889001E+02  0.24272540696E+02  0.00000000000E+00 0. -1.
</event>
<event>
 7    1  0.6136531E-013  0.5052886E+02  0.7816164E-02  0.1300439E+00
        -11   -1    0    0    0    0  0.00000000000E+00  0.00000000000E+00  0.45593999997E+02  0.45594000000E+02  0.51100000000E-03 0. -1.
         11   -1    0    0    0    0 -0.00000000000E+00 -0.00000000000E+00 -0.45593999997E+02  0.45594000000E+02  0.51100000000E-03 0.  1.
    9900012    2    1    2    0    0 -0.14302292652E+02 -0.19008271945E+02 -0.32974163649E+02  0.50528862703E+02  0.30000008671E+02 0.  0.
         12    1    1    2    0    0  0.14302292652E+02  0.19008271945E+02  0.32974163649E+02  0.40659137297E+02  0.00000000000E+00 0. -1.
         11    1    3    3    0    0 -0.10214188636E+02 -0.38304319472E+01 -0.64867496240E-01  0.10908990166E+02  0.51100000000E-03 0. -1.
        -11    1    3    3    0    0 -0.44498991465E+01 -0.82290327835E+01 -0.31033986307E+02  0.32413375161E+02  0.51100000000E-03 0.  1.
        -12    1    3    3    0    0  0.36179512980E+00 -0.69488072138E+01 -0.18753098457E+01  0.72064973759E+01  0.00000000000E+00 0.  1.
</event>
<event>
 7    1  0.6136531E-013  0.5052887E+02  0.7816164E-02  0.1300439E+00
        -11   -1    0    0    0    0  0.00000000000E+00  0.00000000000E+00  0.45593999997E+02  0.45594000000E+02  0.51100000000E-03 0. -1.
         11   -1    0    0    0    0 -0.00000000000E+00 -0.00000000000E+00 -0.45593999997E+02  0.45594000000E+02  0.51100000000E-03 0.  1.
    9900012    2    1    2    0    0 -0.14712632437E+02  0.31694114307E+02 -0.20789101744E+02  0.50528865894E+02  0.30000018371E+02 0.  0.
         12    1    1    2    0    0  0.14712632437E+02 -0.31694114307E+02  0.20789101744E+02  0.40659134106E+02  0.00000000000E+00 0. -1.
         11    1    3    3    0    0 -0.70422247084E+01  0.76179422383E+01  0.57110648804E+01  0.11842391444E+02  0.51100000000E-03 0. -1.
        -11    1    3    3    0    0 -0.76673286876E+01  0.24500915910E+02 -0.27487426458E+02  0.37611719226E+02  0.51100000000E-03 0.  1.
        -12    1    3    3    0    0 -0.30790407738E-02 -0.42474384114E+00  0.98725983359E+00  0.10747552233E+01  0.00000000000E+00 0.  1.
</event>
<event>
 7    1  0.6136531E-013  0.5052876E+02  0.7816164E-02  0.1300439E+00
        -11   -1    0    0    0    0  0.00000000000E+00  0.00000000000E+00  0.45593999997E+02  0.45594000000E+02  0.51100000000E-03 0. -1.
         11   -1    0    0    0    0 -0.00000000000E+00 -0.00000000000E+00 -0.45593999997E+02  0.45594000000E+02  0.51100000000E-03 0.  1.
    9900012    2    1    2    0    0 -0.37592843792E+02 -0.15478636070E+02  0.60281437800E+00  0.50528764098E+02  0.29999708951E+02 0.  0.
         12    1    1    2    0    0  0.37592843792E+02  0.15478636070E+02 -0.60281437800E+00  0.40659235902E+02  0.00000000000E+00 0. -1.
         11    1    3    3    0    0 -0.34153216527E+01  0.17150331463E+01  0.20041007257E+01  0.43153424736E+01  0.51100000000E-03 0. -1.
        -11    1    3    3    0    0 -0.85790545689E+01 -0.14149509726E+02 -0.96395760596E+01  0.19150201817E+02  0.51100000000E-03 0.  1.
        -12    1    3    3    0    0 -0.25598467570E+02 -0.30441594908E+01  0.82382897119E+01  0.27063219807E+02  0.00000000000E+00 0.  1.
</event>
<event>
 7    1  0.6136531E-013  0.5052887E+02  0.7816164E-02  0.1300439E+00
        -11   -1    0    0    0    0  0.00000000000E+00  0.00000000000E+00  0.45593999997E+02  0.45594000000E+02  0.51100000000E-03 0.  1.
         11   -1    0    0    0    0 -0.00000000000E+00 -0.00000000000E+00 -0.45593999997E+02  0.45594000000E+02  0.51100000000E-03 0. -1.
    9900012    2    1    2    0    0  0.92706144533E+01 -0.24154311276E+02  0.31365427447E+02  0.50528867145E+02  0.30000022175E+02 0.  0.
         12    1    1    2    0    0 -0.92706144533E+01  0.24154311276E+02 -0.31365427447E+02  0.40659132855E+02  0.00000000000E+00 0. -1.
         11    1    3    3    0    0  0.76094228224E+01 -0.17458845037E+02  0.43219077669E+01  0.19529297804E+02  0.51100000000E-03 0. -1.
        -11    1    3    3    0    0 -0.44765056031E+01  0.13950317353E+00  0.16100888487E+02  0.16712186389E+02  0.51100000000E-03 0.  1.
        -12    1    3    3    0    0  0.61376972340E+01 -0.68349694133E+01  0.10942631192E+02  0.14287382953E+02  0.00000000000E+00 0.  1.
</event>
<event>
 7    1  0.6136531E-013  0.5052887E+02  0.7816164E-02  0.1300439E+00
        -11   -1    0    0    0    0  0.00000000000E+00  0.00000000000E+00  0.45593999997E+02  0.45594000000E+02  0.51100000000E-03 0.  1.
         11   -1    0    0    0    0 -0.00000000000E+00 -0.00000000000E+00 -0.45593999997E+02  0.45594000000E+02  0.51100000000E-03 0. -1.
    9900012    2    1    2    0    0  0.33995174540E+02  0.17632540452E+02  0.13659671281E+02  0.50528868254E+02  0.30000025545E+02 0.  0.
         12    1    1    2    0    0 -0.33995174540E+02 -0.17632540452E+02 -0.13659671281E+02  0.40659131746E+02  0.00000000000E+00 0. -1.
         11    1    3    3    0    0  0.23099076277E+02  0.23758034213E+01  0.13733322875E+02  0.26978063759E+02  0.51100000000E-03 0. -1.
        -11    1    3    3    0    0  0.11307089896E+02  0.14489177604E+02  0.44779950715E+01  0.18916632620E+02  0.51100000000E-03 0.  1.
        -12    1    3    3    0    0 -0.41099163259E+00  0.76755942680E+00 -0.45516466656E+01  0.46341718747E+01  0.00000000000E+00 0.  1.
</event>
<event>
 7    1  0.6136531E-013  0.5052886E+02  0.7816164E-02  0.1300439E+00
        -11   -1    0    0    0    0  0.00000000000E+00  0.00000000000E+00  0.45593999997E+02  0.45594000000E+02  0.51100000000E-03 0. -1.
         11   -1    0    0    0    0 -0.00000000000E+00 -0.00000000000E+00 -0.45593999997E+02  0.45594000000E+02  0.51100000000E-03 0.  1.
    9900012    2    1    2    0    0 -0.11480538493E+02 -0.11656504811E+02 -0.37222155116E+02  0.50528859577E+02  0.29999999169E+02 0.  0.
         12    1    1    2    0    0  0.11480538493E+02  0.11656504811E+02  0.37222155116E+02  0.40659140423E+02  0.00000000000E+00 0. -1.
         11    1    3    3    0    0 -0.11930759923E+02 -0.24592916304E+01 -0.10387403941E+02  0.16009038339E+02  0.51100000000E-03 0. -1.
        -11    1    3    3    0    0  0.79279502502E+01 -0.21323426128E+01 -0.33243274106E+01  0.88572249143E+01  0.51100000000E-03 0.  1.
        -12    1    3    3    0    0 -0.74777288201E+01 -0.70648705676E+01 -0.23510423764E+02  0.25662596323E+02  0.00000000000E+00 0.  1.
</event>
<event>
 7    1  0.6136531E-013  0.5052886E+02  0.7816164E-02  0.1300439E+00
        -11   -1    0    0    0    0  0.00000000000E+00  0.00000000000E+00  0.45593999997E+02  0.45594000000E+02  0.51100000000E-03 0. -1.
         11   -1    0    0    0    0 -0.00000000000E+00 -0.00000000000E+00 -0.45593999997E+02  0.45594000000E+02  0.51100000000E-03 0.  1.
    9900012    2    1    2    0    0 -0.18821461682E+01 -0.34964951023E+02 -0.20665802791E+02  0.50528859831E+02  0.29999999944E+02 0.  0.
         12    1    1    2    0    0  0.18821461682E+01  0.34964951023E+02  0.20665802791E+02  0.40659140169E+02  0.00000000000E+00 0. -1.
         11    1    3    3    0    0  0.24572087148E+01 -0.82142215420E+01 -0.54665245903E+01  0.10168293936E+02  0.51100000000E-03 0. -1.
        -11    1    3    3    0    0 -0.88184600189E+01 -0.76526304560E+01  0.45439843736E+01  0.12528997735E+02  0.51100000000E-03 0.  1.
        -12    1    3    3    0    0  0.44791051358E+01 -0.19098099025E+02 -0.19743262574E+02  0.27831568160E+02  0.00000000000E+00 0.  1.
</event>
<event>
 7    1  0.6136531E-013  0.5052886E+02  0.7816164E-02  0.1300439E+00
        -11   -1    0    0    0    0  0.00000000000E+00  0.00000000000E+00  0.45593999997E+02  0.45594000000E+02  0.51100000000E-03 0.  1.
         11   -1    0    0    0    0 -0.00000000000E+00 -0.00000000000E+00 -0.45593999997E+02  0.45594000000E+02  0.51100000000E-03 0. -1.
    9900012    2    1    2    0    0 -0.32375590803E+00  0.38502869016E+02  0.13061021243E+02  0.50528855687E+02  0.29999987347E+02 0.  0.
         12    1    1    2    0    0  0.32375590803E+00 -0.38502869016E+02 -0.13061021243E+02  0.40659144313E+02  0.00000000000E+00 0. -1.
         11    1    3    3    0    0 -0.23634132109E+01 -0.10558480062E+01  0.21260441694E+00  0.25972558436E+01  0.51100000000E-03 0. -1.
        -11    1    3    3    0    0  0.97689278099E+01  0.29116241441E+02  0.15904395490E+02  0.34585217397E+02  0.51100000000E-03 0.  1.
        -12    1    3    3    0    0 -0.77292705070E+01  0.10442475581E+02 -0.30559786640E+01  0.13346382447E+02  0.00000000000E+00 0.  1.
</event>
<event>
 7    1  0.6136531E-013  0.5052886E+02  0.7816164E-02  0.1300439E+00
        -11   -1    0    0    0    0  0.00000000000E+00  0.00000000000E+00  0.45593999997E+02  0.45594000000E+02  0.51100000000E-03 0. -1.
         11   -1    0    0    0    0 -0.00000000000E+00 -0.00000000000E+00 -0.45593999997E+02  0.45594000000E+02  0.51100000000E-03 0.  1.
    9900012    2    1    2    0    0  0.80260342995E+00  0.56431907952E+01 -0.40257619072E+02  0.50528859971E+02  0.30000000366E+02 0.  0.
         12    1    1    2    0    0 -0.80260342995E+00 -0.56431907952E+01  0.40257619072E+02  0.40659140029E+02  0.00000000000E+00 0. -1.
         11    1    3    3    0    0  0.46746696524E+01 -0.72114858918E+01 -0.22314795656E+02  0.23912510754E+02  0.51100000000E-03 0.  1.
        -11    1    3    3    0    0 -0.18895304730E+00  0.43256480735E+01  0.18831962843E+01  0.47215847992E+01  0.51100000000E-03 0. -1.
         12    1    3    3    0    0 -0.36831131751E+01  0.85290286135E+01 -0.19826019700E+02  0.21894764418E+02  0.00000000000E+00 0. -1.
</event>
<event>
 7    1  0.6136531E-013  0.5052886E+02  0.7816164E-02  0.1300439E+00
        -11   -1    0    0    0    0  0.00000000000E+00  0.00000000000E+00  0.45593999997E+02  0.45594000000E+02  0.51100000000E-03 0. -1.
         11   -1    0    0    0    0 -0.00000000000E+00 -0.00000000000E+00 -0.45593999997E+02  0.45594000000E+02  0.51100000000E-03 0.  1.
    9900012    2    1    2    0    0  0.11905538289E+02 -0.11875280103E+02 -0.37018935277E+02  0.50528859717E+02  0.29999999596E+02 0.  0.
         12    1    1    2    0    0 -0.11905538289E+02  0.11875280103E+02  0.37018935277E+02  0.40659140283E+02  0.00000000000E+00 0. -1.
         11    1    3    3    0    0 -0.57101192174E+01 -0.15298270207E+01 -0.10109600998E+01  0.59973221336E+01  0.51100000000E-03 0. -1.
        -11    1    3    3    0    0  0.16397234850E+02 -0.62513232963E+01 -0.14975759579E+02  0.23069931272E+02  0.51100000000E-03 0.  1.
        -12    1    3    3    0    0  0.12184226570E+01 -0.40941297860E+01 -0.21032215599E+02  0.21461606312E+02  0.00000000000E+00 0.  1.
</event>
<event>
 7    1  0.6136531E-013  0.5052887E+02  0.7816164E-02  0.1300439E+00
        -11   -1    0    0    0    0  0.00000000000E+00  0.00000000000E+00  0.45593999997E+02  0.45594000000E+02  0.51100000000E-03 0.  1.
         11   -1    0    0    0    0 -0.00000000000E+00 -0.00000000000E+00 -0.45593999997E+02  0.45594000000E+02  0.51100000000E-03 0. -1.
    9900012    2    1    2    0    0  0.40485842379E+01 -0.14725737694E+02  0.37681914582E+02  0.50528867304E+02  0.30000022658E+02 0.  0.
         12    1    1    2    0    0 -0.40485842379E+01  0.14725737694E+02 -0.37681914582E+02  0.40659132696E+02  0.00000000000E+00 0. -1.
         11    1    3    3    0    0  0.13715845407E+02 -0.21582042748E+01  0.11693365439E+02  0.18152604675E+02  0.51100000000E-03 0. -1.
        -11    1    3    3    0    0 -0.60383606588E+01 -0.13406677044E+02  0.16071787627E+02  0.21783093136E+02  0.51100000000E-03 0.  1.
        -12    1    3    3    0    0 -0.36289005107E+01  0.83914362452E+00  0.99167615160E+01  0.10593169493E+02  0.00000000000E+00 0.  1.
</event>
<event>
 7    1  0.6136531E-013  0.5052886E+02  0.7816164E-02  0.1300439E+00
        -11   -1    0    0    0    0  0.00000000000E+00  0.00000000000E+00  0.45593999997E+02  0.45594000000E+02  0.51100000000E-03 0.  1.
         11   -1    0    0    0    0 -0.00000000000E+00 -0.00000000000E+00 -0.45593999997E+02  0.45594000000E+02  0.51100000000E-03 0. -1.
    9900012    2    1    2    0    0  0.15253307840E+02 -0.13272049610E+02  0.35275414151E+02  0.50528861490E+02  0.30000004984E+02 0.  0.
         12    1    1    2    0    0 -0.15253307840E+02  0.13272049610E+02 -0.35275414151E+02  0.40659138510E+02  0.00000000000E+00 0. -1.
         11    1    3    3    0    0  0.47888255630E+00  0.49550775842E+01  0.17881449922E+02  0.18561475532E+02  0.51100000000E-03 0.  1.
        -11    1    3    3    0    0  0.48337088151E+01 -0.10456097577E+02  0.15339987549E+02  0.19183585059E+02  0.51100000000E-03 0. -1.
         12    1    3    3    0    0  0.99407164685E+01 -0.77710296169E+01  0.20539766801E+01  0.12783800899E+02  0.00000000000E+00 0. -1.
</event>
<event>
 7    1  0.6136531E-013  0.5052886E+02  0.7816164E-02  0.1300439E+00
        -11   -1    0    0    0    0  0.00000000000E+00  0.00000000000E+00  0.45593999997E+02  0.45594000000E+02  0.51100000000E-03 0. -1.
         11   -1    0    0    0    0 -0.00000000000E+00 -0.00000000000E+00 -0.45593999997E+02  0.45594000000E+02  0.51100000000E-03 0.  1.
    9900012    2    1    2    0    0 -0.22736007797E+02 -0.32314253072E+02 -0.95931568771E+01  0.50528860056E+02  0.30000000626E+02 0.  0.
         12    1    1    2    0    0  0.22736007797E+02  0.32314253072E+02  0.95931568771E+01  0.40659139944E+02  0.00000000000E+00 0. -1.
         11    1    3    3    0    0  0.17154152104E+01  0.16077095589E+00 -0.80706251021E+01  0.82524836531E+01  0.51100000000E-03 0. -1.
        -11    1    3    3    0    0 -0.95931779039E+01 -0.22153120271E+02 -0.29050109063E+00  0.24142787560E+02  0.51100000000E-03 0.  1.
         12    1    3    3    0    0 -0.14858245103E+02 -0.10321903757E+02 -0.12320306844E+01  0.18133588843E+02  0.00000000000E+00 0. -1.
</event>
<event>
 7    1  0.6136531E-013  0.5052883E+02  0.7816164E-02  0.1300439E+00
        -11   -1    0    0    0    0  0.00000000000E+00  0.00000000000E+00  0.45593999997E+02  0.45594000000E+02  0.51100000000E-03 0.  1.
         11   -1    0    0    0    0 -0.00000000000E+00 -0.00000000000E+00 -0.45593999997E+02  0.45594000000E+02  0.51100000000E-03 0. -1.
    9900012    2    1    2    0    0  0.98531632081E+01  0.61439561237E+01  0.38965819280E+02  0.50528830133E+02  0.29999909674E+02 0.  0.
         12    1    1    2    0    0 -0.98531632081E+01 -0.61439561237E+01 -0.38965819280E+02  0.40659169867E+02  0.00000000000E+00 0. -1.
         11    1    3    3    0    0 -0.48935852013E+01  0.18998932061E+01 -0.11021079828E+01  0.53638990095E+01  0.51100000000E-03 0. -1.
        -11    1    3    3    0    0  0.14116669164E+02  0.85328581742E+01  0.32363959300E+02  0.36325141138E+02  0.51100000000E-03 0.  1.
        -12    1    3    3    0    0  0.63007924517E+00 -0.42887952566E+01  0.77039679633E+01  0.88397899855E+01  0.00000000000E+00 0.  1.
</event>
<event>
 7    1  0.6136531E-013  0.5052885E+02  0.7816164E-02  0.1300439E+00
        -11   -1    0    0    0    0  0.00000000000E+00  0.00000000000E+00  0.45593999997E+02  0.45594000000E+02  0.51100000000E-03 0.  1.
         11   -1    0    0    0    0 -0.00000000000E+00 -0.00000000000E+00 -0.45593999997E+02  0.45594000000E+02  0.51100000000E-03 0. -1.
    9900012    2    1    2    0    0 -0.13472914345E+02 -0.18369927247E+02  0.33677775609E+02  0.50528853207E+02  0.29999979807E+02 0.  0.
         12    1    1    2    0    0  0.13472914345E+02  0.18369927247E+02 -0.33677775609E+02  0.40659146793E+02  0.00000000000E+00 0. -1.
         11    1    3    3    0    0 -0.72348509414E+01 -0.10321471013E+01 -0.33262072309E+01  0.80294489591E+01  0.51100000000E-03 0. -1.
        -11    1    3    3    0    0 -0.34122970864E+01 -0.52318908092E+01  0.22722241621E+02  0.23565158972E+02  0.51100000000E-03 0.  1.
         12    1    3    3    0    0 -0.28257663175E+01 -0.12105889337E+02  0.14281741219E+02  0.18934245276E+02  0.00000000000E+00 0. -1.
</event>
<event>
 7    1  0.6136531E-013  0.5052886E+02  0.7816164E-02  0.1300439E+00
        -11   -1    0    0    0    0  0.00000000000E+00  0.00000000000E+00  0.45593999997E+02  0.45594000000E+02  0.51100000000E-03 0. -1.
         11   -1    0    0    0    0 -0.00000000000E+00 -0.00000000000E+00 -0.45593999997E+02  0.45594000000E+02  0.51100000000E-03 0.  1.
    9900012    2    1    2    0    0 -0.21684184252E+02 -0.15201007198E+02 -0.30852736934E+02  0.50528857820E+02  0.29999993830E+02 0.  0.
         12    1    1    2    0    0  0.21684184252E+02  0.15201007198E+02  0.30852736934E+02  0.40659142180E+02  0.00000000000E+00 0. -1.
         11    1    3    3    0    0 -0.79921514723E+01 -0.55259109923E+01 -0.10197780676E+02  0.14085627726E+02  0.51100000000E-03 0.  1.
        -11    1    3    3    0    0 -0.52374602495E+01  0.56691676811E+01  0.18365506695E+01  0.79336858196E+01  0.51100000000E-03 0. -1.
        -12    1    3    3    0    0 -0.84545725307E+01 -0.15344263887E+02 -0.22491506927E+02  0.28509544274E+02  0.00000000000E+00 0.  1.
</event>
<event>
 7    1  0.6136531E-013  0.5052886E+02  0.7816164E-02  0.1300439E+00
        -11   -1    0    0    0    0  0.00000000000E+00  0.00000000000E+00  0.45593999997E+02  0.45594000000E+02  0.51100000000E-03 0.  1.
         11   -1    0    0    0    0 -0.00000000000E+00 -0.00000000000E+00 -0.45593999997E+02  0.45594000000E+02  0.51100000000E-03 0. -1.
    9900012    2    1    2    0    0  0.11988647836E+01 -0.28020267622E+02  0.29437950024E+02  0.50528861101E+02  0.30000003804E+02 0.  0.
         12    1    1    2    0    0 -0.11988647836E+01  0.28020267622E+02 -0.29437950024E+02  0.40659138899E+02  0.00000000000E+00 0. -1.
         11    1    3    3    0    0 -0.53639453679E+00 -0.14427725725E+02  0.45745729332E+01  0.15145088527E+02  0.51100000000E-03 0. -1.
        -11    1    3    3    0    0 -0.54973507790E+01  0.35250814717E+01  0.54012429652E+01  0.84746970919E+01  0.51100000000E-03 0.  1.
        -12    1    3    3    0    0  0.72326100993E+01 -0.17117623368E+02  0.19462134125E+02  0.26909075483E+02  0.00000000000E+00 0.  1.
</event>
<event>
 7    1  0.6136531E-013  0.5052886E+02  0.7816164E-02  0.1300439E+00
        -11   -1    0    0    0    0  0.00000000000E+00  0.00000000000E+00  0.45593999997E+02  0.45594000000E+02  0.51100000000E-03 0.  1.
         11   -1    0    0    0    0 -0.00000000000E+00 -0.00000000000E+00 -0.45593999997E+02  0.45594000000E+02  0.51100000000E-03 0. -1.
    9900012    2    1    2    0    0  0.33943541465E+02  0.41777841110E+01  0.21989713241E+02  0.50528863564E+02  0.30000011290E+02 0.  0.
         12    1    1    2    0    0 -0.33943541465E+02 -0.41777841110E+01 -0.21989713241E+02  0.40659136436E+02  0.00000000000E+00 0. -1.
         11    1    3    3    0    0  0.10029983498E+02 -0.83952498053E+01  0.17894134798E+01  0.13201620701E+02  0.51100000000E-03 0. -1.
        -11    1    3    3    0    0  0.10125122613E+02  0.11126363279E+02  0.31821884795E+01  0.15376618339E+02  0.51100000000E-03 0.  1.
        -12    1    3    3    0    0  0.13788435353E+02  0.14466706371E+01  0.17018111282E+02  0.21950624525E+02  0.00000000000E+00 0.  1.
</event>
<event>
 7    1  0.6136531E-013  0.5052884E+02  0.7816164E-02  0.1300439E+00
        -11   -1    0    0    0    0  0.00000000000E+00  0.00000000000E+00  0.45593999997E+02  0.45594000000E+02  0.51100000000E-03 0.  1.
         11   -1    0    0    0    0 -0.00000000000E+00 -0.00000000000E+00 -0.45593999997E+02  0.45594000000E+02  0.51100000000E-03 0. -1.
    9900012    2    1    2    0    0 -0.19433604718E+02  0.50436049061E+01  0.35356251611E+02  0.50528837800E+02  0.29999932977E+02 0.  0.
         12    1    1    2    0    0  0.19433604718E+02 -0.50436049061E+01 -0.35356251611E+02  0.40659162200E+02  0.00000000000E+00 0. -1.
         11    1    3    3    0    0  0.61125680050E+00  0.11303395931E+02  0.38083097642E+01  0.11943350366E+02  0.51100000000E-03 0. -1.
        -11    1    3    3    0    0 -0.17688326426E+01 -0.32411093287E+01  0.51623923410E+01  0.63469562423E+01  0.51100000000E-03 0.  1.
         12    1    3    3    0    0 -0.18276028876E+02 -0.30186816962E+01  0.26385549506E+02  0.32238531192E+02  0.00000000000E+00 0. -1.
</event>
<event>
 7    1  0.6136531E-013  0.5052886E+02  0.7816164E-02  0.1300439E+00
        -11   -1    0    0    0    0  0.00000000000E+00  0.00000000000E+00  0.45593999997E+02  0.45594000000E+02  0.51100000000E-03 0.  1.
         11   -1    0    0    0    0 -0.00000000000E+00 -0.00000000000E+00 -0.45593999997E+02  0.45594000000E+02  0.51100000000E-03 0. -1.
    9900012    2    1    2    0    0  0.31468779626E+02  0.13598581072E+02  0.21862308022E+02  0.50528855760E+02  0.29999987567E+02 0.  0.
         12    1    1    2    0    0 -0.31468779626E+02 -0.13598581072E+02 -0.21862308022E+02  0.40659144240E+02  0.00000000000E+00 0. -1.
         11    1    3    3    0    0  0.12172040783E+02 -0.65828582433E+01  0.82048076160E+00  0.13862387543E+02  0.51100000000E-03 0. -1.
        -11    1    3    3    0    0  0.18567947609E+02  0.12821066959E+02  0.16881096048E+02  0.28180132016E+02  0.51100000000E-03 0.  1.
         12    1    3    3    0    0  0.72879123439E+00  0.73603723564E+01  0.41607312124E+01  0.84863362007E+01  0.00000000000E+00 0. -1.
</event>
<event>
 7    1  0.6136531E-013  0.5052888E+02  0.7816164E-02  0.1300439E+00
        -11   -1    0    0    0    0  0.00000000000E+00  0.00000000000E+00  0.45593999997E+02  0.45594000000E+02  0.51100000000E-03 0. -1.
         11   -1    0    0    0    0 -0.00000000000E+00 -0.00000000000E+00 -0.45593999997E+02  0.45594000000E+02  0.51100000000E-03 0.  1.
    9900012    2    1    2    0    0  0.31215916473E+02 -0.26043360638E+02  0.68835566617E+00  0.50528881612E+02  0.30000066148E+02 0.  0.
         12    1    1    2    0    0 -0.31215916473E+02  0.26043360638E+02 -0.68835566617E+00  0.40659118388E+02  0.00000000000E+00 0. -1.
         11    1    3    3    0    0  0.18772615269E+02 -0.19143790710E+02 -0.10812171816E+02  0.28910186205E+02  0.51100000000E-03 0. -1.
        -11    1    3    3    0    0  0.88827432060E+01  0.14714455107E+01  0.41069905779E+01  0.98962442686E+01  0.51100000000E-03 0.  1.
         12    1    3    3    0    0  0.35605579979E+01 -0.83710154391E+01  0.73935369041E+01  0.11722451138E+02  0.00000000000E+00 0. -1.
</event>
<event>
 7    1  0.6136531E-013  0.5052886E+02  0.7816164E-02  0.1300439E+00
        -11   -1    0    0    0    0  0.00000000000E+00  0.00000000000E+00  0.45593999997E+02  0.45594000000E+02  0.51100000000E-03 0.  1.
         11   -1    0    0    0    0 -0.00000000000E+00 -0.00000000000E+00 -0.45593999997E+02  0.45594000000E+02  0.51100000000E-03 0. -1.
    9900012    2    1    2    0    0  0.87389956461E+01 -0.39507499078E+02  0.39941469045E+01  0.50528859112E+02  0.29999997756E+02 0.  0.
         12    1    1    2    0    0 -0.87389956461E+01  0.39507499078E+02 -0.39941469045E+01  0.40659140888E+02  0.00000000000E+00 0. -1.
         11    1    3    3    0    0  0.23763057551E+01 -0.62443943992E+01 -0.86386229874E+00  0.67368797515E+01  0.51100000000E-03 0. -1.
        -11    1    3    3    0    0  0.35062336652E+01 -0.30542638372E+02  0.14040797293E+02  0.33797787237E+02  0.51100000000E-03 0.  1.
        -12    1    3    3    0    0  0.28564562258E+01 -0.27204663068E+01 -0.91827880900E+01  0.99941921235E+01  0.00000000000E+00 0.  1.
</event>
<event>
 7    1  0.6136531E-013  0.5052887E+02  0.7816164E-02  0.1300439E+00
        -11   -1    0    0    0    0  0.00000000000E+00  0.00000000000E+00  0.45593999997E+02  0.45594000000E+02  0.51100000000E-03 0. -1.
         11   -1    0    0    0    0 -0.00000000000E+00 -0.00000000000E+00 -0.45593999997E+02  0.45594000000E+02  0.51100000000E-03 0.  1.
    9900012    2    1    2    0    0  0.38392304345E+02  0.61329122575E+01 -0.11898882013E+02  0.50528867707E+02  0.30000023882E+02 0.  0.
         12    1    1    2    0    0 -0.38392304345E+02 -0.61329122575E+01  0.11898882013E+02  0.40659132293E+02  0.00000000000E+00 0. -1.
         11    1    3    3    0    0  0.29105698464E+02  0.11960067469E+02  0.38125448214E+00  0.31469513059E+02  0.51100000000E-03 0. -1.
        -11    1    3    3    0    0  0.10844541128E+02 -0.28904063405E+01 -0.99605043745E+01  0.15005671219E+02  0.51100000000E-03 0.  1.
         12    1    3    3    0    0 -0.15579352471E+01 -0.29367488709E+01 -0.23196321204E+01  0.40536834285E+01  0.00000000000E+00 0. -1.
</event>
<event>
 7    1  0.6136531E-013  0.5052885E+02  0.7816164E-02  0.1300439E+00
        -11   -1    0    0    0    0  0.00000000000E+00  0.00000000000E+00  0.45593999997E+02  0.45594000000E+02  0.51100000000E-03 0.  1.
         11   -1    0    0    0    0 -0.00000000000E+00 -0.00000000000E+00 -0.45593999997E+02  0.45594000000E+02  0.51100000000E-03 0. -1.
    9900012    2    1    2    0    0  0.35945438530E+01  0.10570891476E+02  0.39096064900E+02  0.50528846261E+02  0.29999958695E+02 0.  0.
         12    1    1    2    0    0 -0.35945438530E+01 -0.10570891476E+02 -0.39096064900E+02  0.40659153739E+02  0.00000000000E+00 0. -1.
         11    1    3    3    0    0  0.15313378269E+01 -0.57872536547E+01  0.45414146382E+01  0.75141032454E+01  0.51100000000E-03 0. -1.
        -11    1    3    3    0    0 -0.81721539643E+01  0.63852418650E+01  0.20483809670E+02  0.22959570400E+02  0.51100000000E-03 0.  1.
        -12    1    3    3    0    0  0.10235359990E+02  0.99729032659E+01  0.14070840592E+02  0.20055172616E+02  0.00000000000E+00 0.  1.
</event>
<event>
 7    1  0.6136531E-013  0.5052886E+02  0.7816164E-02  0.1300439E+00
        -11   -1    0    0    0    0  0.00000000000E+00  0.00000000000E+00  0.45593999997E+02  0.45594000000E+02  0.51100000000E-03 0.  1.
         11   -1    0    0    0    0 -0.00000000000E+00 -0.00000000000E+00 -0.45593999997E+02  0.45594000000E+02  0.51100000000E-03 0. -1.
    9900012    2    1    2    0    0 -0.17776078137E+02 -0.21272365724E+02  0.29743281259E+02  0.50528864772E+02  0.30000014962E+02 0.  0.
         12    1    1    2    0    0  0.17776078137E+02  0.21272365724E+02 -0.29743281259E+02  0.40659135228E+02  0.00000000000E+00 0. -1.
         11    1    3    3    0    0 -0.43012535500E+01 -0.20043846467E+02  0.87168818893E+01  0.22276458278E+02  0.51100000000E-03 0. -1.
        -11    1    3    3    0    0 -0.14526865230E+02  0.79813954692E+00  0.11755705723E+02  0.18704637325E+02  0.51100000000E-03 0.  1.
        -12    1    3    3    0    0  0.10520406433E+01 -0.20266588040E+01  0.92706936461E+01  0.95477691689E+01  0.00000000000E+00 0.  1.
</event>
<event>
 7    1  0.6136531E-013  0.5052886E+02  0.7816164E-02  0.1300439E+00
        -11   -1    0    0    0    0  0.00000000000E+00  0.00000000000E+00  0.45593999997E+02  0.45594000000E+02  0.51100000000E-03 0.  1.
         11   -1    0    0    0    0 -0.00000000000E+00 -0.00000000000E+00 -0.45593999997E+02  0.45594000000E+02  0.51100000000E-03 0. -1.
    9900012    2    1    2    0    0 -0.28824486387E+01 -0.40342020114E+02 -0.41687629159E+01  0.50528859806E+02  0.29999999866E+02 0.  0.
         12    1    1    2    0    0  0.28824486387E+01  0.40342020114E+02  0.41687629159E+01  0.40659140194E+02  0.00000000000E+00 0. -1.
         11    1    3    3    0    0 -0.37472210847E+01  0.37166388206E+01 -0.95192535109E+00  0.53629499453E+01  0.51100000000E-03 0. -1.
        -11    1    3    3    0    0 -0.27454105338E+01 -0.25752189941E+02  0.14278772728E+01  0.25937451678E+02  0.51100000000E-03 0.  1.
         12    1    3    3    0    0  0.36101829799E+01 -0.18306468994E+02 -0.46447148376E+01  0.19228458183E+02  0.00000000000E+00 0. -1.
</event>
<event>
 7    1  0.6136531E-013  0.5052887E+02  0.7816164E-02  0.1300439E+00
        -11   -1    0    0    0    0  0.00000000000E+00  0.00000000000E+00  0.45593999997E+02  0.45594000000E+02  0.51100000000E-03 0. -1.
         11   -1    0    0    0    0 -0.00000000000E+00 -0.00000000000E+00 -0.45593999997E+02  0.45594000000E+02  0.51100000000E-03 0.  1.
    9900012    2    1    2    0    0 -0.34571445850E+02  0.80075822730E+01 -0.19845866187E+02  0.50528872529E+02  0.30000038539E+02 0.  0.
         12    1    1    2    0    0  0.34571445850E+02 -0.80075822730E+01  0.19845866187E+02  0.40659127471E+02  0.00000000000E+00 0. -1.
         11    1    3    3    0    0 -0.21620358641E+01  0.20579559865E+00 -0.12218180283E+02  0.12409701068E+02  0.51100000000E-03 0. -1.
        -11    1    3    3    0    0 -0.33933663517E+02  0.90252400157E+01 -0.61018885346E+01  0.35639606072E+02  0.51100000000E-03 0.  1.
        -12    1    3    3    0    0  0.15242535312E+01 -0.12234533413E+01 -0.15257973695E+01  0.24795653890E+01  0.00000000000E+00 0.  1.
</event>
<event>
 7    1  0.6136531E-013  0.5052887E+02  0.7816164E-02  0.1300439E+00
        -11   -1    0    0    0    0  0.00000000000E+00  0.00000000000E+00  0.45593999997E+02  0.45594000000E+02  0.51100000000E-03 0. -1.
         11   -1    0    0    0    0 -0.00000000000E+00 -0.00000000000E+00 -0.45593999997E+02  0.45594000000E+02  0.51100000000E-03 0.  1.
    9900012    2    1    2    0    0  0.22604592245E+02  0.26044935956E+02 -0.21537378564E+02  0.50528868738E+02  0.30000027017E+02 0.  0.
         12    1    1    2    0    0 -0.22604592245E+02 -0.26044935956E+02  0.21537378564E+02  0.40659131262E+02  0.00000000000E+00 0. -1.
         11    1    3    3    0    0  0.10373287369E+02  0.10801634213E+02  0.65032886113E+01  0.16327068186E+02  0.51100000000E-03 0. -1.
        -11    1    3    3    0    0  0.65423469651E+01  0.79789084706E+01 -0.13741867457E+02  0.17184417524E+02  0.51100000000E-03 0.  1.
         12    1    3    3    0    0  0.56889579108E+01  0.72643932722E+01 -0.14298799719E+02  0.17017383028E+02  0.00000000000E+00 0. -1.
</event>
<event>
 7    1  0.6136531E-013  0.5052887E+02  0.7816164E-02  0.1300439E+00
        -11   -1    0    0    0    0  0.00000000000E+00  0.00000000000E+00  0.45593999997E+02  0.45594000000E+02  0.51100000000E-03 0.  1.
         11   -1    0    0    0    0 -0.00000000000E+00 -0.00000000000E+00 -0.45593999997E+02  0.45594000000E+02  0.51100000000E-03 0. -1.
    9900012    2    1    2    0    0  0.33545336465E+02 -0.19125558795E+02  0.12731396696E+02  0.50528867451E+02  0.30000023105E+02 0.  0.
         12    1    1    2    0    0 -0.33545336465E+02  0.19125558795E+02 -0.12731396696E+02  0.40659132549E+02  0.00000000000E+00 0. -1.
         11    1    3    3    0    0  0.10186917088E+02 -0.22529179778E+02  0.85339374588E+01  0.26156553864E+02  0.51100000000E-03 0. -1.
        -11    1    3    3    0    0  0.20622693670E+02  0.24099775860E+01  0.49930418361E+01  0.21354951492E+02  0.51100000000E-03 0.  1.
         12    1    3    3    0    0  0.27357257068E+01  0.99364339740E+00 -0.79558259902E+00  0.30173620956E+01  0.00000000000E+00 0. -1.
</event>
<event>
 7    1  0.6136531E-013  0.5052887E+02  0.7816164E-02  0.1300439E+00
        -11   -1    0    0    0    0  0.00000000000E+00  0.00000000000E+00  0.45593999997E+02  0.45594000000E+02  0.51100000000E-03 0. -1.
         11   -1    0    0    0    0 -0.00000000000E+00 -0.00000000000E+00 -0.45593999997E+02  0.45594000000E+02  0.51100000000E-03 0.  1.
    9900012    2    1    2    0    0  0.33824110735E+02 -0.14806617343E+02 -0.17025220446E+02  0.50528874144E+02  0.30000043448E+02 0.  0.
         12    1    1    2    0    0 -0.33824110735E+02  0.14806617343E+02  0.17025220446E+02  0.40659125856E+02  0.00000000000E+00 0. -1.
         11    1    3    3    0    0  0.75930803867E+01 -0.11356347850E+02  0.18131682604E+01  0.13780750547E+02  0.51100000000E-03 0. -1.
        -11    1    3    3    0    0  0.14619890292E+02  0.55296468744E+01 -0.14796452726E+02  0.21523317594E+02  0.51100000000E-03 0.  1.
        -12    1    3    3    0    0  0.11611140056E+02 -0.89799163677E+01 -0.40419359802E+01  0.15224806003E+02  0.00000000000E+00 0.  1.
</event>
<event>
 7    1  0.6136531E-013  0.5052886E+02  0.7816164E-02  0.1300439E+00
        -11   -1    0    0    0    0  0.00000000000E+00  0.00000000000E+00  0.45593999997E+02  0.45594000000E+02  0.51100000000E-03 0.  1.
         11   -1    0    0    0    0 -0.00000000000E+00 -0.00000000000E+00 -0.45593999997E+02  0.45594000000E+02  0.51100000000E-03 0. -1.
    9900012    2    1    2    0    0 -0.82181106523E+01  0.37239226483E+01  0.39645438650E+02  0.50528858982E+02  0.29999997360E+02 0.  0.
         12    1    1    2    0    0  0.82181106523E+01 -0.37239226483E+01 -0.39645438650E+02  0.40659141018E+02  0.00000000000E+00 0. -1.
         11    1    3    3    0    0  0.17065913073E+01 -0.38594531393E+01  0.27376134270E+02  0.27699468592E+02  0.51100000000E-03 0. -1.
        -11    1    3    3    0    0 -0.28898866697E+01  0.90130851814E+01  0.12461101260E+02  0.15648200993E+02  0.51100000000E-03 0.  1.
         12    1    3    3    0    0 -0.70348152898E+01 -0.14297093939E+01 -0.19179687941E+00  0.71811893970E+01  0.00000000000E+00 0. -1.
</event>
<event>
 7    1  0.6136531E-013  0.5052886E+02  0.7816164E-02  0.1300439E+00
        -11   -1    0    0    0    0  0.00000000000E+00  0.00000000000E+00  0.45593999997E+02  0.45594000000E+02  0.51100000000E-03 0.  1.
         11   -1    0    0    0    0 -0.00000000000E+00 -0.00000000000E+00 -0.45593999997E+02  0.45594000000E+02  0.51100000000E-03 0. -1.
    9900012    2    1    2    0    0 -0.11122267330E+02  0.94417671479E+01  0.37951470983E+02  0.50528856536E+02  0.29999989928E+02 0.  0.
         12    1    1    2    0    0  0.11122267330E+02 -0.94417671479E+01 -0.37951470983E+02  0.40659143464E+02  0.00000000000E+00 0. -1.
         11    1    3    3    0    0 -0.60150919912E+01  0.16068873691E+01 -0.40735938151E-01  0.62261608040E+01  0.51100000000E-03 0. -1.
        -11    1    3    3    0    0  0.16396715644E+01  0.13687558268E+02  0.21315338907E+02  0.25384669530E+02  0.51100000000E-03 0.  1.
        -12    1    3    3    0    0 -0.67468469029E+01 -0.58526784891E+01  0.16676868014E+02  0.18918026202E+02  0.00000000000E+00 0.  1.
</event>
<event>
 7    1  0.6136531E-013  0.5052886E+02  0.7816164E-02  0.1300439E+00
        -11   -1    0    0    0    0  0.00000000000E+00  0.00000000000E+00  0.45593999997E+02  0.45594000000E+02  0.51100000000E-03 0.  1.
         11   -1    0    0    0    0 -0.00000000000E+00 -0.00000000000E+00 -0.45593999997E+02  0.45594000000E+02  0.51100000000E-03 0. -1.
    9900012    2    1    2    0    0 -0.11211636414E+02  0.23591082164E+02  0.31159680875E+02  0.50528860056E+02  0.30000000628E+02 0.  0.
         12    1    1    2    0    0  0.11211636414E+02 -0.23591082164E+02 -0.31159680875E+02  0.40659139944E+02  0.00000000000E+00 0. -1.
         11    1    3    3    0    0 -0.15595464038E+02  0.28524277339E+02  0.26609217822E+02  0.42010753024E+02  0.51100000000E-03 0.  1.
        -11    1    3    3    0    0  0.39189673487E+01 -0.41005505133E+01  0.49069177272E+01  0.75000440955E+01  0.51100000000E-03 0. -1.
        -12    1    3    3    0    0  0.46486027571E+00 -0.83264466145E+00 -0.35645467498E+00  0.10180629369E+01  0.00000000000E+00 0.  1.
</event>
<event>
 7    1  0.6136531E-013  0.5052887E+02  0.7816164E-02  0.1300439E+00
        -11   -1    0    0    0    0  0.00000000000E+00  0.00000000000E+00  0.45593999997E+02  0.45594000000E+02  0.51100000000E-03 0.  1.
         11   -1    0    0    0    0 -0.00000000000E+00 -0.00000000000E+00 -0.45593999997E+02  0.45594000000E+02  0.51100000000E-03 0. -1.
    9900012    2    1    2    0    0  0.11717577887E+02  0.36570962746E+02  0.13357688039E+02  0.50528870921E+02  0.30000033652E+02 0.  0.
         12    1    1    2    0    0 -0.11717577887E+02 -0.36570962746E+02 -0.13357688039E+02  0.40659129079E+02  0.00000000000E+00 0. -1.
         11    1    3    3    0    0  0.42085308334E+00  0.13281134746E+02  0.79322864613E+01  0.15475361910E+02  0.51100000000E-03 0. -1.
        -11    1    3    3    0    0 -0.11825693800E+01  0.13185902708E+02 -0.67898068880E+01  0.14878440053E+02  0.51100000000E-03 0.  1.
        -12    1    3    3    0    0  0.12479294184E+02  0.10103925291E+02  0.12215208466E+02  0.20175068959E+02  0.00000000000E+00 0.  1.
</event>
<event>
 7    1  0.6136531E-013  0.5052886E+02  0.7816164E-02  0.1300439E+00
        -11   -1    0    0    0    0  0.00000000000E+00  0.00000000000E+00  0.45593999997E+02  0.45594000000E+02  0.51100000000E-03 0. -1.
         11   -1    0    0    0    0 -0.00000000000E+00 -0.00000000000E+00 -0.45593999997E+02  0.45594000000E+02  0.51100000000E-03 0.  1.
    9900012    2    1    2    0    0  0.10848493393E+02  0.37119733552E+02 -0.12553919386E+02  0.50528864252E+02  0.30000013379E+02 0.  0.
         12    1    1    2    0    0 -0.10848493393E+02 -0.37119733552E+02  0.12553919386E+02  0.40659135748E+02  0.00000000000E+00 0. -1.
         11    1    3    3    0    0  0.14002905766E+02  0.20034851785E+02 -0.16366164402E+02  0.29416457867E+02  0.51100000000E-03 0.  1.
        -11    1    3    3    0    0 -0.48215026649E+00  0.81852450909E+01  0.75028895917E+01  0.11114137779E+02  0.51100000000E-03 0. -1.
        -12    1    3    3    0    0 -0.26722621069E+01  0.88996366763E+01 -0.36906445752E+01  0.99982686060E+01  0.00000000000E+00 0.  1.
</event>
<event>
 7    1  0.6136531E-013  0.5052889E+02  0.7816164E-02  0.1300439E+00
        -11   -1    0    0    0    0  0.00000000000E+00  0.00000000000E+00  0.45593999997E+02  0.45594000000E+02  0.51100000000E-03 0. -1.
         11   -1    0    0    0    0 -0.00000000000E+00 -0.00000000000E+00 -0.45593999997E+02  0.45594000000E+02  0.51100000000E-03 0.  1.
    9900012    2    1    2    0    0  0.39443292774E+02  0.29133572540E+01 -0.94288068950E+01  0.50528887924E+02  0.30000085334E+02 0.  0.
         12    1    1    2    0    0 -0.39443292774E+02 -0.29133572540E+01  0.94288068950E+01  0.40659112076E+02  0.00000000000E+00 0. -1.
         11    1    3    3    0    0  0.66021650164E+01  0.70008640710E+01 -0.12435913153E+02  0.15724268404E+02  0.51100000000E-03 0. -1.
        -11    1    3    3    0    0  0.25587457600E+02 -0.39636699151E+01  0.65831489404E+01  0.26716409112E+02  0.51100000000E-03 0.  1.
        -12    1    3    3    0    0  0.72536701574E+01 -0.12383690189E+00 -0.35760426828E+01  0.80882104077E+01  0.00000000000E+00 0.  1.
</event>
<event>
 7    1  0.6136531E-013  0.5052886E+02  0.7816164E-02  0.1300439E+00
        -11   -1    0    0    0    0  0.00000000000E+00  0.00000000000E+00  0.45593999997E+02  0.45594000000E+02  0.51100000000E-03 0.  1.
         11   -1    0    0    0    0 -0.00000000000E+00 -0.00000000000E+00 -0.45593999997E+02  0.45594000000E+02  0.51100000000E-03 0. -1.
    9900012    2    1    2    0    0  0.38233645151E+02 -0.74800790562E+01  0.11636263771E+02  0.50528857869E+02  0.29999993980E+02 0.  0.
         12    1    1    2    0    0 -0.38233645151E+02  0.74800790562E+01 -0.11636263771E+02  0.40659142131E+02  0.00000000000E+00 0. -1.
         11    1    3    3    0    0  0.35889919001E+02  0.31178122656E+00  0.70946469725E+01  0.36585755553E+02  0.51100000000E-03 0.  1.
        -11    1    3    3    0    0  0.19329691074E+01 -0.35660337898E+01 -0.31646095554E+01  0.51446788490E+01  0.51100000000E-03 0. -1.
         12    1    3    3    0    0  0.41075704310E+00 -0.42258264930E+01  0.77062263542E+01  0.87984234678E+01  0.00000000000E+00 0. -1.
</event>
<event>
 7    1  0.6136531E-013  0.5052886E+02  0.7816164E-02  0.1300439E+00
        -11   -1    0    0    0    0  0.00000000000E+00  0.00000000000E+00  0.45593999997E+02  0.45594000000E+02  0.51100000000E-03 0.  1.
         11   -1    0    0    0    0 -0.00000000000E+00 -0.00000000000E+00 -0.45593999997E+02  0.45594000000E+02  0.51100000000E-03 0. -1.
    9900012    2    1    2    0    0  0.23192245786E+02  0.32837939617E+02  0.60790466107E+01  0.50528863873E+02  0.30000012228E+02 0.  0.
         12    1    1    2    0    0 -0.23192245786E+02 -0.32837939617E+02 -0.60790466107E+01  0.40659136127E+02  0.00000000000E+00 0. -1.
         11    1    3    3    0    0  0.12797212263E+02  0.16905314237E+02  0.10677775517E+02  0.23739696322E+02  0.51100000000E-03 0. -1.
        -11    1    3    3    0    0 -0.26362406919E+00  0.15727141490E+02 -0.26003595806E+01  0.15942846274E+02  0.51100000000E-03 0.  1.
         12    1    3    3    0    0  0.10658657592E+02  0.20548388956E+00 -0.19983693260E+01  0.10846321277E+02  0.00000000000E+00 0. -1.
</event>
<event>
 7    1  0.6136531E-013  0.5052885E+02  0.7816164E-02  0.1300439E+00
        -11   -1    0    0    0    0  0.00000000000E+00  0.00000000000E+00  0.45593999997E+02  0.45594000000E+02  0.51100000000E-03 0. -1.
         11   -1    0    0    0    0 -0.00000000000E+00 -0.00000000000E+00 -0.45593999997E+02  0.45594000000E+02  0.51100000000E-03 0.  1.
    9900012    2    1    2    0    0  0.30183300709E+01 -0.19260346736E+02 -0.35680462919E+02  0.50528847194E+02  0.29999961531E+02 0.  0.
         12    1    1    2    0    0 -0.30183300709E+01  0.19260346736E+02  0.35680462919E+02  0.40659152806E+02  0.00000000000E+00 0. -1.
         11    1    3    3    0    0  0.12113423029E+02 -0.82218566183E+00 -0.10651451177E+02  0.16151297755E+02  0.51100000000E-03 0. -1.
        -11    1    3    3    0    0 -0.11600936768E+01 -0.12869259309E+02 -0.18946259797E+02  0.22933041950E+02  0.51100000000E-03 0.  1.
         12    1    3    3    0    0 -0.79349992808E+01 -0.55689017650E+01 -0.60827519453E+01  0.11444507490E+02  0.00000000000E+00 0. -1.
</event>
<event>
 7    1  0.6136531E-013  0.5052882E+02  0.7816164E-02  0.1300439E+00
        -11   -1    0    0    0    0  0.00000000000E+00  0.00000000000E+00  0.45593999997E+02  0.45594000000E+02  0.51100000000E-03 0.  1.
         11   -1    0    0    0    0 -0.00000000000E+00 -0.00000000000E+00 -0.45593999997E+02  0.45594000000E+02  0.51100000000E-03 0. -1.
    9900012    2    1    2    0    0  0.36159490231E+02 -0.46267006052E+01  0.18007059469E+02  0.50528815515E+02  0.29999865238E+02 0.  0.
         12    1    1    2    0    0 -0.36159490231E+02  0.46267006052E+01 -0.18007059469E+02  0.40659184485E+02  0.00000000000E+00 0. -1.
         11    1    3    3    0    0 -0.35351179364E+01  0.15587990402E+01  0.27548938437E+01  0.47451400004E+01  0.51100000000E-03 0. -1.
        -11    1    3    3    0    0  0.31601455930E+02 -0.89391232651E+01  0.63655073463E+01  0.33452647514E+02  0.51100000000E-03 0.  1.
        -12    1    3    3    0    0  0.80931522375E+01  0.27536236197E+01  0.88866582788E+01  0.12331028000E+02  0.00000000000E+00 0.  1.
</event>
<event>
 7    1  0.6136531E-013  0.5052890E+02  0.7816164E-02  0.1300439E+00
        -11   -1    0    0    0    0  0.00000000000E+00  0.00000000000E+00  0.45593999997E+02  0.45594000000E+02  0.51100000000E-03 0. -1.
         11   -1    0    0    0    0 -0.00000000000E+00 -0.00000000000E+00 -0.45593999997E+02  0.45594000000E+02  0.51100000000E-03 0.  1.
    9900012    2    1    2    0    0 -0.23631415713E+02 -0.75164806360E+01 -0.32221444300E+02  0.50528895699E+02  0.30000108967E+02 0.  0.
         12    1    1    2    0    0  0.23631415713E+02  0.75164806360E+01  0.32221444300E+02  0.40659104301E+02  0.00000000000E+00 0. -1.
         11    1    3    3    0    0 -0.28074460143E+01 -0.11771436115E+02 -0.23712941742E+02  0.26622397857E+02  0.51100000000E-03 0. -1.
        -11    1    3    3    0    0 -0.10284188681E+02  0.58485470428E+00 -0.74159951447E+01  0.12692658355E+02  0.51100000000E-03 0.  1.
         12    1    3    3    0    0 -0.10539781017E+02  0.36701007752E+01 -0.10925074136E+01  0.11213839487E+02  0.00000000000E+00 0. -1.
</event>
<event>
 7    1  0.6136531E-013  0.5052888E+02  0.7816164E-02  0.1300439E+00
        -11   -1    0    0    0    0  0.00000000000E+00  0.00000000000E+00  0.45593999997E+02  0.45594000000E+02  0.51100000000E-03 0.  1.
         11   -1    0    0    0    0 -0.00000000000E+00 -0.00000000000E+00 -0.45593999997E+02  0.45594000000E+02  0.51100000000E-03 0. -1.
    9900012    2    1    2    0    0  0.15249992310E+01  0.37082426538E+02  0.16605189909E+02  0.50528876638E+02  0.30000051029E+02 0.  0.
         12    1    1    2    0    0 -0.15249992310E+01 -0.37082426538E+02 -0.16605189909E+02  0.40659123362E+02  0.00000000000E+00 0. -1.
         11    1    3    3    0    0  0.10049189954E+01 -0.99577424790E+00  0.21355627230E+01  0.25616512146E+01  0.51100000000E-03 0. -1.
        -11    1    3    3    0    0 -0.89586554716E+01  0.26954580254E+02  0.15265721420E+01  0.28445339290E+02  0.51100000000E-03 0.  1.
        -12    1    3    3    0    0  0.94787357072E+01  0.11123620532E+02  0.12943055044E+02  0.19521886134E+02  0.00000000000E+00 0.  1.
</event>
<event>
 7    1  0.6136531E-013  0.5052884E+02  0.7816164E-02  0.1300439E+00
        -11   -1    0    0    0    0  0.00000000000E+00  0.00000000000E+00  0.45593999997E+02  0.45594000000E+02  0.51100000000E-03 0. -1.
         11   -1    0    0    0    0 -0.00000000000E+00 -0.00000000000E+00 -0.45593999997E+02  0.45594000000E+02  0.51100000000E-03 0.  1.
    9900012    2    1    2    0    0 -0.34680670699E+02 -0.11385265418E+02 -0.17910728066E+02  0.50528839056E+02  0.29999936795E+02 0.  0.
         12    1    1    2    0    0  0.34680670699E+02  0.11385265418E+02  0.17910728066E+02  0.40659160944E+02  0.00000000000E+00 0. -1.
         11    1    3    3    0    0 -0.22410784326E+02  0.18091975865E+01 -0.14215466060E+02  0.26600675285E+02  0.51100000000E-03 0. -1.
        -11    1    3    3    0    0  0.24271189747E+01 -0.51095678865E+01 -0.43584354373E+01  0.71410468579E+01  0.51100000000E-03 0.  1.
        -12    1    3    3    0    0 -0.14697005348E+02 -0.80848951181E+01  0.66317343157E+00  0.16787116914E+02  0.00000000000E+00 0.  1.
</event>
<event>
 7    1  0.6136531E-013  0.5052886E+02  0.7816164E-02  0.1300439E+00
        -11   -1    0    0    0    0  0.00000000000E+00  0.00000000000E+00  0.45593999997E+02  0.45594000000E+02  0.51100000000E-03 0.  1.
         11   -1    0    0    0    0 -0.00000000000E+00 -0.00000000000E+00 -0.45593999997E+02  0.45594000000E+02  0.51100000000E-03 0. -1.
    9900012    2    1    2    0    0 -0.16438298728E+02 -0.23154583557E+02  0.29100062430E+02  0.50528855417E+02  0.29999986525E+02 0.  0.
         12    1    1    2    0    0  0.16438298728E+02  0.23154583557E+02 -0.29100062430E+02  0.40659144583E+02  0.00000000000E+00 0. -1.
         11    1    3    3    0    0 -0.35520847142E+01 -0.18967588706E+02  0.68398090667E+01  0.20473634643E+02  0.51100000000E-03 0. -1.
        -11    1    3    3    0    0 -0.50149207823E+01 -0.15893795417E+01  0.21027037807E+02  0.21675144221E+02  0.51100000000E-03 0.  1.
        -12    1    3    3    0    0 -0.78712932319E+01 -0.25976153095E+01  0.12332155560E+01  0.83800765538E+01  0.00000000000E+00 0.  1.
</event>
<event>
 7    1  0.6136531E-013  0.5052887E+02  0.7816164E-02  0.1300439E+00
        -11   -1    0    0    0    0  0.00000000000E+00  0.00000000000E+00  0.45593999997E+02  0.45594000000E+02  0.51100000000E-03 0.  1.
         11   -1    0    0    0    0 -0.00000000000E+00 -0.00000000000E+00 -0.45593999997E+02  0.45594000000E+02  0.51100000000E-03 0. -1.
    9900012    2    1    2    0    0  0.24276223260E+02 -0.19914972750E+02  0.25830675951E+02  0.50528868486E+02  0.30000026250E+02 0.  0.
         12    1    1    2    0    0 -0.24276223260E+02  0.19914972750E+02 -0.25830675951E+02  0.40659131514E+02  0.00000000000E+00 0. -1.
         11    1    3    3    0    0 -0.14667901119E+01 -0.10212553503E+02  0.15151767031E+02  0.18330951058E+02  0.51100000000E-03 0. -1.
        -11    1    3    3    0    0  0.23911296413E+02 -0.46035244132E+01  0.60965323700E+01  0.25101996741E+02  0.51100000000E-03 0.  1.
        -12    1    3    3    0    0  0.18317169584E+01 -0.50988948340E+01  0.45823765505E+01  0.70959206869E+01  0.00000000000E+00 0.  1.
</event>
<event>
 7    1  0.6136531E-013  0.5052886E+02  0.7816164E-02  0.1300439E+00
        -11   -1    0    0    0    0  0.00000000000E+00  0.00000000000E+00  0.45593999997E+02  0.45594000000E+02  0.51100000000E-03 0. -1.
         11   -1    0    0    0    0 -0.00000000000E+00 -0.00000000000E+00 -0.45593999997E+02  0.45594000000E+02  0.51100000000E-03 0.  1.
    9900012    2    1    2    0    0  0.24620772226E+02 -0.28698949123E+02 -0.14945024469E+02  0.50528857582E+02  0.29999993106E+02 0.  0.
         12    1    1    2    0    0 -0.24620772226E+02  0.28698949123E+02  0.14945024469E+02  0.40659142418E+02  0.00000000000E+00 0. -1.
         11    1    3    3    0    0  0.24659687365E+02 -0.13984502181E+02 -0.12434334275E+02  0.30956084237E+02  0.51100000000E-03 0. -1.
        -11    1    3    3    0    0 -0.58527897954E-02 -0.74174074382E+01 -0.76437912968E+01  0.10651080368E+02  0.51100000000E-03 0.  1.
         12    1    3    3    0    0 -0.33062348697E-01 -0.72970395035E+01  0.51331011028E+01  0.89216929764E+01  0.00000000000E+00 0. -1.
</event>
<event>
 7    1  0.6136531E-013  0.5052896E+02  0.7816164E-02  0.1300438E+00
        -11   -1    0    0    0    0  0.00000000000E+00  0.00000000000E+00  0.45593999997E+02  0.45594000000E+02  0.51100000000E-03 0.  1.
         11   -1    0    0    0    0 -0.00000000000E+00 -0.00000000000E+00 -0.45593999997E+02  0.45594000000E+02  0.51100000000E-03 0. -1.
    9900012    2    1    2    0    0 -0.19300481908E+02 -0.34479871655E+02  0.95805795064E+01  0.50528958510E+02  0.30000299885E+02 0.  0.
         12    1    1    2    0    0  0.19300481908E+02  0.34479871655E+02 -0.95805795064E+01  0.40659041490E+02  0.00000000000E+00 0. -1.
         11    1    3    3    0    0  0.35896318675E+01 -0.12764308266E+02 -0.29061821978E+01  0.13574200443E+02  0.51100000000E-03 0. -1.
        -11    1    3    3    0    0 -0.92260439826E+01 -0.15369644453E+02  0.12560807309E+02  0.21888803958E+02  0.51100000000E-03 0.  1.
         12    1    3    3    0    0 -0.13664069793E+02 -0.63459189358E+01 -0.74045604613E-01  0.15065954109E+02  0.00000000000E+00 0. -1.
</event>
<event>
 7    1  0.6136531E-013  0.5052886E+02  0.7816164E-02  0.1300439E+00
        -11   -1    0    0    0    0  0.00000000000E+00  0.00000000000E+00  0.45593999997E+02  0.45594000000E+02  0.51100000000E-03 0.  1.
         11   -1    0    0    0    0 -0.00000000000E+00 -0.00000000000E+00 -0.45593999997E+02  0.45594000000E+02  0.51100000000E-03 0. -1.
    9900012    2    1    2    0    0  0.28946924659E+02  0.72773617148E+01  0.27609441880E+02  0.50528859310E+02  0.29999998359E+02 0.  0.
         12    1    1    2    0    0 -0.28946924659E+02 -0.72773617148E+01 -0.27609441880E+02  0.40659140690E+02  0.00000000000E+00 0. -1.
         11    1    3    3    0    0  0.15105011056E+02  0.16821943969E+02  0.79264013289E+01  0.23957608315E+02  0.51100000000E-03 0. -1.
        -11    1    3    3    0    0  0.10010303947E+02 -0.64583483235E+01  0.17544178835E+02  0.21206476828E+02  0.51100000000E-03 0.  1.
        -12    1    3    3    0    0  0.38316096556E+01 -0.30862339305E+01  0.21388617161E+01  0.53647741674E+01  0.00000000000E+00 0.  1.
</event>
<event>
 7    1  0.6136531E-013  0.5052886E+02  0.7816164E-02  0.1300439E+00
        -11   -1    0    0    0    0  0.00000000000E+00  0.00000000000E+00  0.45593999997E+02  0.45594000000E+02  0.51100000000E-03 0. -1.
         11   -1    0    0    0    0 -0.00000000000E+00 -0.00000000000E+00 -0.45593999997E+02  0.45594000000E+02  0.51100000000E-03 0.  1.
    9900012    2    1    2    0    0  0.37480390720E+02  0.73924112127E+01 -0.13918986002E+02  0.50528860765E+02  0.30000002780E+02 0.  0.
         12    1    1    2    0    0 -0.37480390720E+02 -0.73924112127E+01  0.13918986002E+02  0.40659139235E+02  0.00000000000E+00 0. -1.
         11    1    3    3    0    0  0.36550561002E+01 -0.48453019140E+01  0.47449774878E+01  0.77039728293E+01  0.51100000000E-03 0. -1.
        -11    1    3    3    0    0  0.30244206763E+02  0.77684191923E+01 -0.10685296259E+02  0.33003574593E+02  0.51100000000E-03 0.  1.
        -12    1    3    3    0    0  0.35811278560E+01  0.44692939344E+01 -0.79786672308E+01  0.98213133426E+01  0.00000000000E+00 0.  1.
</event>
<event>
 7    1  0.6136531E-013  0.5052886E+02  0.7816164E-02  0.1300439E+00
        -11   -1    0    0    0    0  0.00000000000E+00  0.00000000000E+00  0.45593999997E+02  0.45594000000E+02  0.51100000000E-03 0.  1.
         11   -1    0    0    0    0 -0.00000000000E+00 -0.00000000000E+00 -0.45593999997E+02  0.45594000000E+02  0.51100000000E-03 0. -1.
    9900012    2    1    2    0    0 -0.33345211232E+02 -0.14346481080E+02  0.18315053561E+02  0.50528858120E+02  0.29999994740E+02 0.  0.
         12    1    1    2    0    0  0.33345211232E+02  0.14346481080E+02 -0.18315053561E+02  0.40659141880E+02  0.00000000000E+00 0. -1.
         11    1    3    3    0    0 -0.44269081457E+01  0.31396925519E+01  0.56113471944E+01  0.78065615125E+01  0.51100000000E-03 0. -1.
        -11    1    3    3    0    0 -0.15422437595E+02 -0.17115230036E+02  0.16913102282E+02  0.28580337815E+02  0.51100000000E-03 0.  1.
        -12    1    3    3    0    0 -0.13495865491E+02 -0.37094359589E+00 -0.42093959151E+01  0.14141958792E+02  0.00000000000E+00 0.  1.
</event>
<event>
 7    1  0.6136531E-013  0.5052881E+02  0.7816164E-02  0.1300439E+00
        -11   -1    0    0    0    0  0.00000000000E+00  0.00000000000E+00  0.45593999997E+02  0.45594000000E+02  0.51100000000E-03 0.  1.
         11   -1    0    0    0    0 -0.00000000000E+00 -0.00000000000E+00 -0.45593999997E+02  0.45594000000E+02  0.51100000000E-03 0. -1.
    9900012    2    1    2    0    0  0.13924281145E+02  0.78565422397E+01  0.37383937037E+02  0.50528811496E+02  0.29999853024E+02 0.  0.
         12    1    1    2    0    0 -0.13924281145E+02 -0.78565422397E+01 -0.37383937037E+02  0.40659188504E+02  0.00000000000E+00 0. -1.
         11    1    3    3    0    0  0.96370517082E+01  0.84285252565E+01  0.31803792125E+02  0.34284019563E+02  0.51100000000E-03 0.  1.
        -11    1    3    3    0    0 -0.18219203867E+01  0.19681622804E+01 -0.38701790756E+01  0.47086455586E+01  0.51100000000E-03 0. -1.
         12    1    3    3    0    0  0.61091498232E+01 -0.25401452973E+01  0.94503239882E+01  0.11536146375E+02  0.00000000000E+00 0. -1.
</event>
<event>
 7    1  0.6136531E-013  0.5052892E+02  0.7816164E-02  0.1300439E+00
        -11   -1    0    0    0    0  0.00000000000E+00  0.00000000000E+00  0.45593999997E+02  0.45594000000E+02  0.51100000000E-03 0.  1.
         11   -1    0    0    0    0 -0.00000000000E+00 -0.00000000000E+00 -0.45593999997E+02  0.45594000000E+02  0.51100000000E-03 0. -1.
    9900012    2    1    2    0    0  0.17796639183E+02 -0.23175256336E+02  0.28272739091E+02  0.50528921701E+02  0.30000188000E+02 0.  0.
         12    1    1    2    0    0 -0.17796639183E+02  0.23175256336E+02 -0.28272739091E+02  0.40659078299E+02  0.00000000000E+00 0. -1.
         11    1    3    3    0    0  0.16050002581E+02 -0.98050170501E+01  0.56450682600E+01  0.19636897365E+02  0.51100000000E-03 0. -1.
        -11    1    3    3    0    0 -0.49751027423E+01 -0.11915362227E+02  0.19377011543E+02  0.23285104270E+02  0.51100000000E-03 0.  1.
        -12    1    3    3    0    0  0.67217393443E+01 -0.14548770592E+01  0.32506592881E+01  0.76069200652E+01  0.00000000000E+00 0.  1.
</event>
<event>
 7    1  0.6136531E-013  0.5052885E+02  0.7816164E-02  0.1300439E+00
        -11   -1    0    0    0    0  0.00000000000E+00  0.00000000000E+00  0.45593999997E+02  0.45594000000E+02  0.51100000000E-03 0.  1.
         11   -1    0    0    0    0 -0.00000000000E+00 -0.00000000000E+00 -0.45593999997E+02  0.45594000000E+02  0.51100000000E-03 0. -1.
    9900012    2    1    2    0    0  0.39917455310E+02  0.24068313442E+01  0.73464687520E+01  0.50528847542E+02  0.29999962587E+02 0.  0.
         12    1    1    2    0    0 -0.39917455310E+02 -0.24068313442E+01 -0.73464687520E+01  0.40659152458E+02  0.00000000000E+00 0. -1.
         11    1    3    3    0    0  0.15676644517E+02  0.33498377041E+01 -0.66847839006E+01  0.17368504023E+02  0.51100000000E-03 0. -1.
        -11    1    3    3    0    0  0.25054224656E+02  0.23620253669E+01  0.15386943366E+02  0.29496633085E+02  0.51100000000E-03 0.  1.
         12    1    3    3    0    0 -0.81341386318E+00 -0.33050317268E+01 -0.13556907134E+01  0.36637104332E+01  0.00000000000E+00 0. -1.
</event>
<event>
 7    1  0.6136531E-013  0.5052886E+02  0.7816164E-02  0.1300439E+00
        -11   -1    0    0    0    0  0.00000000000E+00  0.00000000000E+00  0.45593999997E+02  0.45594000000E+02  0.51100000000E-03 0.  1.
         11   -1    0    0    0    0 -0.00000000000E+00 -0.00000000000E+00 -0.45593999997E+02  0.45594000000E+02  0.51100000000E-03 0. -1.
    9900012    2    1    2    0    0  0.89872602740E+01  0.13431725598E+00  0.39653206889E+02  0.50528859515E+02  0.29999998982E+02 0.  0.
         12    1    1    2    0    0 -0.89872602740E+01 -0.13431725598E+00 -0.39653206889E+02  0.40659140485E+02  0.00000000000E+00 0. -1.
         11    1    3    3    0    0 -0.37267184907E+01  0.44189111723E+01  0.30894406057E+02  0.31430550942E+02  0.51100000000E-03 0.  1.
        -11    1    3    3    0    0  0.72368640020E+01  0.18508017796E+01  0.56865299498E+00  0.74913973530E+01  0.51100000000E-03 0. -1.
        -12    1    3    3    0    0  0.54771147627E+01 -0.61353956959E+01  0.81901478372E+01  0.11606911220E+02  0.00000000000E+00 0.  1.
</event>
<event>
 7    1  0.6136531E-013  0.5052886E+02  0.7816164E-02  0.1300439E+00
        -11   -1    0    0    0    0  0.00000000000E+00  0.00000000000E+00  0.45593999997E+02  0.45594000000E+02  0.51100000000E-03 0.  1.
         11   -1    0    0    0    0 -0.00000000000E+00 -0.00000000000E+00 -0.45593999997E+02  0.45594000000E+02  0.51100000000E-03 0. -1.
    9900012    2    1    2    0    0  0.29014886769E+02  0.96361585999E+01  0.26803855639E+02  0.50528857315E+02  0.29999992295E+02 0.  0.
         12    1    1    2    0    0 -0.29014886769E+02 -0.96361585999E+01 -0.26803855639E+02  0.40659142685E+02  0.00000000000E+00 0. -1.
         11    1    3    3    0    0  0.31033017750E+01 -0.97165161946E+01  0.89884616814E+01  0.13595352608E+02  0.51100000000E-03 0. -1.
        -11    1    3    3    0    0  0.95119863248E+01  0.71572952863E+01  0.70364045014E+01  0.13828078255E+02  0.51100000000E-03 0.  1.
         12    1    3    3    0    0  0.16399598669E+02  0.12195379508E+02  0.10778989456E+02  0.23105426452E+02  0.00000000000E+00 0. -1.
</event>
<event>
 7    1  0.6136531E-013  0.5052884E+02  0.7816164E-02  0.1300439E+00
        -11   -1    0    0    0    0  0.00000000000E+00  0.00000000000E+00  0.45593999997E+02  0.45594000000E+02  0.51100000000E-03 0. -1.
         11   -1    0    0    0    0 -0.00000000000E+00 -0.00000000000E+00 -0.45593999997E+02  0.45594000000E+02  0.51100000000E-03 0.  1.
    9900012    2    1    2    0    0 -0.12195160060E+02 -0.16615856649E+02 -0.35047948242E+02  0.50528839937E+02  0.29999939471E+02 0.  0.
         12    1    1    2    0    0  0.12195160060E+02  0.16615856649E+02  0.35047948242E+02  0.40659160063E+02  0.00000000000E+00 0. -1.
         11    1    3    3    0    0  0.44817210657E+01 -0.14715362595E+02 -0.18552346842E+02  0.24100151319E+02  0.51100000000E-03 0. -1.
        -11    1    3    3    0    0 -0.14136115108E+02  0.19665557127E+00 -0.17931970048E+02  0.22834709848E+02  0.51100000000E-03 0.  1.
        -12    1    3    3    0    0 -0.25407660174E+01 -0.20971496252E+01  0.14363686476E+01  0.35939787698E+01  0.00000000000E+00 0.  1.
</event>
<event>
 7    1  0.6136531E-013  0.5052886E+02  0.7816164E-02  0.1300439E+00
        -11   -1    0    0    0    0  0.00000000000E+00  0.00000000000E+00  0.45593999997E+02  0.45594000000E+02  0.51100000000E-03 0. -1.
         11   -1    0    0    0    0 -0.00000000000E+00 -0.00000000000E+00 -0.45593999997E+02  0.45594000000E+02  0.51100000000E-03 0.  1.
    9900012    2    1    2    0    0 -0.32739300498E+02  0.68846651529E+01  0.23106381192E+02  0.50528864948E+02  0.30000015496E+02 0.  0.
         12    1    1    2    0    0  0.32739300498E+02 -0.68846651529E+01 -0.23106381192E+02  0.40659135052E+02  0.00000000000E+00 0. -1.
         11    1    3    3    0    0 -0.22646780240E+00  0.42083763926E+00 -0.45195134335E+01  0.45447105431E+01  0.51100000000E-03 0. -1.
        -11    1    3    3    0    0 -0.25192752212E+02 -0.93191357381E+00  0.13990880418E+02  0.28832064825E+02  0.51100000000E-03 0.  1.
        -12    1    3    3    0    0 -0.73200804836E+01  0.73957410875E+01  0.13635014208E+02  0.17152089580E+02  0.00000000000E+00 0.  1.
</event>
<event>
 7    1  0.6872129E-013  0.5052889E+02  0.7816164E-02  0.1300439E+00
        -11   -1    0    0    0    0  0.00000000000E+00  0.00000000000E+00  0.45593999997E+02  0.45594000000E+02  0.51100000000E-03 0. -1.
         11   -1    0    0    0    0 -0.00000000000E+00 -0.00000000000E+00 -0.45593999997E+02  0.45594000000E+02  0.51100000000E-03 0.  1.
    9900012    2    1    2    0    0  0.32400686896E+02 -0.60310702716E+01 -0.23811448456E+02  0.50528887891E+02  0.30000085232E+02 0.  0.
         12    1    1    2    0    0 -0.32400686896E+02  0.60310702716E+01  0.23811448456E+02  0.40659112109E+02  0.00000000000E+00 0. -1.
         11    1    3    3    0    0 -0.15164812744E+01 -0.62190967670E+01 -0.28035723066E+01  0.69883401458E+01  0.51100000000E-03 0. -1.
        -11    1    3    3    0    0  0.22351198700E+02 -0.11134608096E+01 -0.36992522117E+01  0.22682600060E+02  0.51100000000E-03 0.  1.
        -12    1    3    3    0    0  0.11565969470E+02  0.13014873051E+01 -0.17308623938E+02  0.20857947684E+02  0.00000000000E+00 0.  1.
</event>
<event>
 7    1  0.6136531E-013  0.5052884E+02  0.7816164E-02  0.1300439E+00
        -11   -1    0    0    0    0  0.00000000000E+00  0.00000000000E+00  0.45593999997E+02  0.45594000000E+02  0.51100000000E-03 0.  1.
         11   -1    0    0    0    0 -0.00000000000E+00 -0.00000000000E+00 -0.45593999997E+02  0.45594000000E+02  0.51100000000E-03 0. -1.
    9900012    2    1    2    0    0 -0.75178369005E+01 -0.29777990113E+02  0.26644332471E+02  0.50528843348E+02  0.29999949840E+02 0.  0.
         12    1    1    2    0    0  0.75178369005E+01  0.29777990113E+02 -0.26644332471E+02  0.40659156652E+02  0.00000000000E+00 0. -1.
         11    1    3    3    0    0 -0.66186970599E+00  0.31545093758E+01  0.59620228924E+00  0.32778740580E+01  0.51100000000E-03 0. -1.
        -11    1    3    3    0    0 -0.12854714438E+02 -0.18627675041E+02  0.21169843840E+02  0.30990260553E+02  0.51100000000E-03 0.  1.
        -12    1    3    3    0    0  0.59987472434E+01 -0.14304824448E+02  0.48782863424E+01  0.16260708737E+02  0.00000000000E+00 0.  1.
</event>
<event>
 7    1  0.6136531E-013  0.5052885E+02  0.7816164E-02  0.1300439E+00
        -11   -1    0    0    0    0  0.00000000000E+00  0.00000000000E+00  0.45593999997E+02  0.45594000000E+02  0.51100000000E-03 0. -1.
         11   -1    0    0    0    0 -0.00000000000E+00 -0.00000000000E+00 -0.45593999997E+02  0.45594000000E+02  0.51100000000E-03 0.  1.
    9900012    2    1    2    0    0 -0.10089697893E+02 -0.24056698520E+02 -0.31187171122E+02  0.50528851093E+02  0.29999973382E+02 0.  0.
         12    1    1    2    0    0  0.10089697893E+02  0.24056698520E+02  0.31187171122E+02  0.40659148907E+02  0.00000000000E+00 0. -1.
         11    1    3    3    0    0 -0.74824081533E+01 -0.18327428294E+02 -0.20849330518E+02  0.28750228573E+02  0.51100000000E-03 0.  1.
        -11    1    3    3    0    0 -0.27524482053E+01 -0.58327531768E+00  0.49244190926E+01  0.56715152190E+01  0.51100000000E-03 0. -1.
         12    1    3    3    0    0  0.14515846555E+00 -0.51459949078E+01 -0.15262259696E+02  0.16107107301E+02  0.00000000000E+00 0. -1.
</event>
<event>
 7    1  0.6136531E-013  0.5052883E+02  0.7816164E-02  0.1300439E+00
        -11   -1    0    0    0    0  0.00000000000E+00  0.00000000000E+00  0.45593999997E+02  0.45594000000E+02  0.51100000000E-03 0. -1.
         11   -1    0    0    0    0 -0.00000000000E+00 -0.00000000000E+00 -0.45593999997E+02  0.45594000000E+02  0.51100000000E-03 0.  1.
    9900012    2    1    2    0    0  0.26039738019E+02  0.23701684482E+02  0.20330518552E+02  0.50528833899E+02  0.29999921119E+02 0.  0.
         12    1    1    2    0    0 -0.26039738019E+02 -0.23701684482E+02 -0.20330518552E+02  0.40659166101E+02  0.00000000000E+00 0. -1.
         11    1    3    3    0    0  0.24753527638E+02  0.12852108978E+02  0.25745803869E+01  0.28009682257E+02  0.51100000000E-03 0.  1.
        -11    1    3    3    0    0  0.22011386276E+01  0.66867881932E+01  0.16707349963E+02  0.18129911491E+02  0.51100000000E-03 0. -1.
        -12    1    3    3    0    0 -0.91492824561E+00  0.41627873109E+01  0.10485882021E+01  0.43892401515E+01  0.00000000000E+00 0.  1.
</event>
<event>
 7    1  0.6136531E-013  0.5052886E+02  0.7816164E-02  0.1300439E+00
        -11   -1    0    0    0    0  0.00000000000E+00  0.00000000000E+00  0.45593999997E+02  0.45594000000E+02  0.51100000000E-03 0.  1.
         11   -1    0    0    0    0 -0.00000000000E+00 -0.00000000000E+00 -0.45593999997E+02  0.45594000000E+02  0.51100000000E-03 0. -1.
    9900012    2    1    2    0    0  0.17627968484E+02 -0.58190607386E+01  0.36174010117E+02  0.50528858977E+02  0.29999997347E+02 0.  0.
         12    1    1    2    0    0 -0.17627968484E+02  0.58190607386E+01 -0.36174010117E+02  0.40659141023E+02  0.00000000000E+00 0. -1.
         11    1    3    3    0    0  0.49753958122E+01 -0.10119081945E+02  0.28589686220E+02  0.30733052912E+02  0.51100000000E-03 0.  1.
        -11    1    3    3    0    0  0.10743523985E+02 -0.25011956648E+01  0.32155571806E+01  0.11489956293E+02  0.51100000000E-03 0. -1.
         12    1    3    3    0    0  0.19090486865E+01  0.68012168709E+01  0.43687667168E+01  0.83058497722E+01  0.00000000000E+00 0. -1.
</event>
<event>
 7    1  0.6136531E-013  0.5052884E+02  0.7816164E-02  0.1300439E+00
        -11   -1    0    0    0    0  0.00000000000E+00  0.00000000000E+00  0.45593999997E+02  0.45594000000E+02  0.51100000000E-03 0.  1.
         11   -1    0    0    0    0 -0.00000000000E+00 -0.00000000000E+00 -0.45593999997E+02  0.45594000000E+02  0.51100000000E-03 0. -1.
    9900012    2    1    2    0    0 -0.13292880763E+02 -0.38158855659E+02  0.45130906649E+01  0.50528844431E+02  0.29999953133E+02 0.  0.
         12    1    1    2    0    0  0.13292880763E+02  0.38158855659E+02 -0.45130906649E+01  0.40659155569E+02  0.00000000000E+00 0. -1.
         11    1    3    3    0    0  0.35516421405E+00  0.89319265890E+00 -0.69050613892E+01  0.69716431202E+01  0.51100000000E-03 0. -1.
        -11    1    3    3    0    0 -0.45965800944E+01 -0.13549377256E+02  0.76805159099E+01  0.16238980802E+02  0.51100000000E-03 0.  1.
        -12    1    3    3    0    0 -0.90514648823E+01 -0.25502671062E+02  0.37376361442E+01  0.27318220509E+02  0.00000000000E+00 0.  1.
</event>
<event>
 7    1  0.6136531E-013  0.5052886E+02  0.7816164E-02  0.1300439E+00
        -11   -1    0    0    0    0  0.00000000000E+00  0.00000000000E+00  0.45593999997E+02  0.45594000000E+02  0.51100000000E-03 0.  1.
         11   -1    0    0    0    0 -0.00000000000E+00 -0.00000000000E+00 -0.45593999997E+02  0.45594000000E+02  0.51100000000E-03 0. -1.
    9900012    2    1    2    0    0  0.39788296630E+02  0.77783284740E+01 -0.30910623226E+01  0.50528860698E+02  0.30000002577E+02 0.  0.
         12    1    1    2    0    0 -0.39788296630E+02 -0.77783284740E+01  0.30910623226E+01  0.40659139302E+02  0.00000000000E+00 0. -1.
         11    1    3    3    0    0  0.33334153038E+01  0.49723096896E+01 -0.40630983295E+01  0.72349353510E+01  0.51100000000E-03 0. -1.
        -11    1    3    3    0    0  0.98066707751E+01 -0.39086180032E+01  0.98255329699E+01  0.14421830147E+02  0.51100000000E-03 0.  1.
        -12    1    3    3    0    0  0.26648210551E+02  0.67146367876E+01 -0.88534969630E+01  0.28872095200E+02  0.00000000000E+00 0.  1.
</event>
<event>
 7    1  0.6136531E-013  0.5052886E+02  0.7816164E-02  0.1300439E+00
        -11   -1    0    0    0    0  0.00000000000E+00  0.00000000000E+00  0.45593999997E+02  0.45594000000E+02  0.51100000000E-03 0.  1.
         11   -1    0    0    0    0 -0.00000000000E+00 -0.00000000000E+00 -0.45593999997E+02  0.45594000000E+02  0.51100000000E-03 0. -1.
    9900012    2    1    2    0    0  0.24548984380E+02  0.21347939503E+02  0.24388088943E+02  0.50528855427E+02  0.29999986557E+02 0.  0.
         12    1    1    2    0    0 -0.24548984380E+02 -0.21347939503E+02 -0.24388088943E+02  0.40659144573E+02  0.00000000000E+00 0. -1.
         11    1    3    3    0    0 -0.14516874492E+01 -0.27734132865E+01 -0.78926619583E+00  0.32283368933E+01  0.51100000000E-03 0. -1.
        -11    1    3    3    0    0  0.75124807764E+01  0.19334440980E+02  0.15476440911E+02  0.25880073395E+02  0.51100000000E-03 0.  1.
        -12    1    3    3    0    0  0.18488191053E+02  0.47869118092E+01  0.97009142277E+01  0.21420445139E+02  0.00000000000E+00 0.  1.
</event>
<event>
 7    1  0.6136531E-013  0.5052887E+02  0.7816164E-02  0.1300439E+00
        -11   -1    0    0    0    0  0.00000000000E+00  0.00000000000E+00  0.45593999997E+02  0.45594000000E+02  0.51100000000E-03 0. -1.
         11   -1    0    0    0    0 -0.00000000000E+00 -0.00000000000E+00 -0.45593999997E+02  0.45594000000E+02  0.51100000000E-03 0.  1.
    9900012    2    1    2    0    0  0.21558152198E+02  0.48192123187E+01 -0.34134824559E+02  0.50528868415E+02  0.30000026035E+02 0.  0.
         12    1    1    2    0    0 -0.21558152198E+02 -0.48192123187E+01  0.34134824559E+02  0.40659131585E+02  0.00000000000E+00 0. -1.
         11    1    3    3    0    0  0.44519322531E+01  0.11091997500E+01 -0.17659911334E+02  0.18246163801E+02  0.51100000000E-03 0. -1.
        -11    1    3    3    0    0  0.19695747830E+01  0.10745258251E+02 -0.49157543973E+01  0.11979333924E+02  0.51100000000E-03 0.  1.
        -12    1    3    3    0    0  0.15136645162E+02 -0.70352456826E+01 -0.11559158828E+02  0.20303370690E+02  0.00000000000E+00 0.  1.
</event>
<event>
 7    1  0.6136531E-013  0.5052887E+02  0.7816164E-02  0.1300439E+00
        -11   -1    0    0    0    0  0.00000000000E+00  0.00000000000E+00  0.45593999997E+02  0.45594000000E+02  0.51100000000E-03 0.  1.
         11   -1    0    0    0    0 -0.00000000000E+00 -0.00000000000E+00 -0.45593999997E+02  0.45594000000E+02  0.51100000000E-03 0. -1.
    9900012    2    1    2    0    0 -0.13201151974E+02  0.92043983048E+01  0.37338627337E+02  0.50528874911E+02  0.30000045779E+02 0.  0.
         12    1    1    2    0    0  0.13201151974E+02 -0.92043983048E+01 -0.37338627337E+02  0.40659125089E+02  0.00000000000E+00 0. -1.
         11    1    3    3    0    0 -0.12374832738E+02 -0.71692741830E+01  0.82609651072E+01  0.16516008064E+02  0.51100000000E-03 0. -1.
        -11    1    3    3    0    0 -0.35362852566E+00  0.26170892061E+01  0.10878888645E+02  0.11194839323E+02  0.51100000000E-03 0.  1.
         12    1    3    3    0    0 -0.47269070983E+00  0.13756583282E+02  0.18198773585E+02  0.22818027524E+02  0.00000000000E+00 0. -1.
</event>
<event>
 7    1  0.6136531E-013  0.5052887E+02  0.7816164E-02  0.1300439E+00
        -11   -1    0    0    0    0  0.00000000000E+00  0.00000000000E+00  0.45593999997E+02  0.45594000000E+02  0.51100000000E-03 0.  1.
         11   -1    0    0    0    0 -0.00000000000E+00 -0.00000000000E+00 -0.45593999997E+02  0.45594000000E+02  0.51100000000E-03 0. -1.
    9900012    2    1    2    0    0 -0.60379915440E+01 -0.17327194484E+02  0.36283272878E+02  0.50528869398E+02  0.30000029022E+02 0.  0.
         12    1    1    2    0    0  0.60379915440E+01  0.17327194484E+02 -0.36283272878E+02  0.40659130602E+02  0.00000000000E+00 0. -1.
         11    1    3    3    0    0 -0.23619462729E+01  0.43988490135E+01  0.31290341773E+01  0.58923270432E+01  0.51100000000E-03 0. -1.
        -11    1    3    3    0    0 -0.96198484494E+01 -0.17547228380E+02  0.31279319491E+02  0.37132769034E+02  0.51100000000E-03 0.  1.
        -12    1    3    3    0    0  0.59438031783E+01 -0.41788151174E+01  0.18749192093E+01  0.75037733207E+01  0.00000000000E+00 0.  1.
</event>
<event>
 7    1  0.6136531E-013  0.5052886E+02  0.7816164E-02  0.1300439E+00
        -11   -1    0    0    0    0  0.00000000000E+00  0.00000000000E+00  0.45593999997E+02  0.45594000000E+02  0.51100000000E-03 0.  1.
         11   -1    0    0    0    0 -0.00000000000E+00 -0.00000000000E+00 -0.45593999997E+02  0.45594000000E+02  0.51100000000E-03 0. -1.
    9900012    2    1    2    0    0 -0.15566713177E+02 -0.32046794216E+02  0.19591998677E+02  0.50528856000E+02  0.29999988299E+02 0.  0.
         12    1    1    2    0    0  0.15566713177E+02  0.32046794216E+02 -0.19591998677E+02  0.40659144000E+02  0.00000000000E+00 0. -1.
         11    1    3    3    0    0 -0.68863509737E+01 -0.64540557561E+00  0.52013388318E+01  0.86540339723E+01  0.51100000000E-03 0. -1.
        -11    1    3    3    0    0 -0.56813430214E+00 -0.29776340596E+02  0.15421120022E+02  0.33537504064E+02  0.51100000000E-03 0.  1.
        -12    1    3    3    0    0 -0.81122279009E+01 -0.16250480443E+01 -0.10304601763E+01  0.83373179642E+01  0.00000000000E+00 0.  1.
</event>
<event>
 7    1  0.6136531E-013  0.5052885E+02  0.7816164E-02  0.1300439E+00
        -11   -1    0    0    0    0  0.00000000000E+00  0.00000000000E+00  0.45593999997E+02  0.45594000000E+02  0.51100000000E-03 0.  1.
         11   -1    0    0    0    0 -0.00000000000E+00 -0.00000000000E+00 -0.45593999997E+02  0.45594000000E+02  0.51100000000E-03 0. -1.
    9900012    2    1    2    0    0 -0.30585549547E+02  0.97410643592E+01  0.24956003175E+02  0.50528852561E+02  0.29999977846E+02 0.  0.
         12    1    1    2    0    0  0.30585549547E+02 -0.97410643592E+01 -0.24956003175E+02  0.40659147439E+02  0.00000000000E+00 0. -1.
         11    1    3    3    0    0 -0.12061800801E+01  0.20276658603E+01  0.12433279827E+02  0.12655147046E+02  0.51100000000E-03 0. -1.
        -11    1    3    3    0    0 -0.13287601174E+02 -0.46613407894E+01  0.11433450089E+00  0.14081957092E+02  0.51100000000E-03 0.  1.
        -12    1    3    3    0    0 -0.16091768293E+02  0.12374739288E+02  0.12408388847E+02  0.23791748423E+02  0.00000000000E+00 0.  1.
</event>
<event>
 7    1  0.6136531E-013  0.5052886E+02  0.7816164E-02  0.1300439E+00
        -11   -1    0    0    0    0  0.00000000000E+00  0.00000000000E+00  0.45593999997E+02  0.45594000000E+02  0.51100000000E-03 0.  1.
         11   -1    0    0    0    0 -0.00000000000E+00 -0.00000000000E+00 -0.45593999997E+02  0.45594000000E+02  0.51100000000E-03 0. -1.
    9900012    2    1    2    0    0  0.22880315653E+02 -0.14233418624E+02  0.30447762615E+02  0.50528864515E+02  0.30000014181E+02 0.  0.
         12    1    1    2    0    0 -0.22880315653E+02  0.14233418624E+02 -0.30447762615E+02  0.40659135485E+02  0.00000000000E+00 0. -1.
         11    1    3    3    0    0  0.24564992960E+01  0.20298428983E+01 -0.34901048040E+01  0.47260430370E+01  0.51100000000E-03 0. -1.
        -11    1    3    3    0    0  0.13710931693E+02 -0.70506073896E+01  0.30023132889E+02  0.33750395867E+02  0.51100000000E-03 0.  1.
        -12    1    3    3    0    0  0.67128846648E+01 -0.92126541324E+01  0.39147345303E+01  0.12052425612E+02  0.00000000000E+00 0.  1.
</event>
<event>
 7    1  0.6136531E-013  0.5052886E+02  0.7816164E-02  0.1300439E+00
        -11   -1    0    0    0    0  0.00000000000E+00  0.00000000000E+00  0.45593999997E+02  0.45594000000E+02  0.51100000000E-03 0. -1.
         11   -1    0    0    0    0 -0.00000000000E+00 -0.00000000000E+00 -0.45593999997E+02  0.45594000000E+02  0.51100000000E-03 0.  1.
    9900012    2    1    2    0    0 -0.82646828582E+00  0.70676820827E+01 -0.40031614823E+02  0.50528863694E+02  0.30000011683E+02 0.  0.
         12    1    1    2    0    0  0.82646828582E+00 -0.70676820827E+01  0.40031614823E+02  0.40659136306E+02  0.00000000000E+00 0. -1.
         11    1    3    3    0    0  0.81431201287E+01 -0.12393621288E+01 -0.45171426671E+01  0.93942004478E+01  0.51100000000E-03 0. -1.
        -11    1    3    3    0    0 -0.53857135599E+01  0.29866933433E+01 -0.33987023807E+02  0.34540469528E+02  0.51100000000E-03 0.  1.
        -12    1    3    3    0    0 -0.35838748546E+01  0.53203508683E+01 -0.15274483490E+01  0.65941937183E+01  0.00000000000E+00 0.  1.
</event>
<event>
 7    1  0.6136531E-013  0.5052886E+02  0.7816164E-02  0.1300439E+00
        -11   -1    0    0    0    0  0.00000000000E+00  0.00000000000E+00  0.45593999997E+02  0.45594000000E+02  0.51100000000E-03 0.  1.
         11   -1    0    0    0    0 -0.00000000000E+00 -0.00000000000E+00 -0.45593999997E+02  0.45594000000E+02  0.51100000000E-03 0. -1.
    9900012    2    1    2    0    0  0.32039517841E+02  0.25024674681E+02 -0.63270251125E+00  0.50528863771E+02  0.30000011919E+02 0.  0.
         12    1    1    2    0    0 -0.32039517841E+02 -0.25024674681E+02  0.63270251125E+00  0.40659136229E+02  0.00000000000E+00 0. -1.
         11    1    3    3    0    0  0.10745910909E+02  0.91109044751E+01 -0.12901281208E+02  0.19103042655E+02  0.51100000000E-03 0. -1.
        -11    1    3    3    0    0  0.90370857990E+01  0.12792282790E+02  0.35370534016E+01  0.16056841711E+02  0.51100000000E-03 0.  1.
         12    1    3    3    0    0  0.12256521133E+02  0.31214874163E+01  0.87315252947E+01  0.15368979405E+02  0.00000000000E+00 0. -1.
</event>
<event>
 7    1  0.6136531E-013  0.5052886E+02  0.7816164E-02  0.1300439E+00
        -11   -1    0    0    0    0  0.00000000000E+00  0.00000000000E+00  0.45593999997E+02  0.45594000000E+02  0.51100000000E-03 0.  1.
         11   -1    0    0    0    0 -0.00000000000E+00 -0.00000000000E+00 -0.45593999997E+02  0.45594000000E+02  0.51100000000E-03 0. -1.
    9900012    2    1    2    0    0 -0.18722152735E+02 -0.22918680666E+02  0.27881553048E+02  0.50528856786E+02  0.29999990688E+02 0.  0.
         12    1    1    2    0    0  0.18722152735E+02  0.22918680666E+02 -0.27881553048E+02  0.40659143214E+02  0.00000000000E+00 0. -1.
         11    1    3    3    0    0 -0.22781379859E+02 -0.20299843303E+02  0.31704272163E+02  0.44002679237E+02  0.51100000000E-03 0.  1.
        -11    1    3    3    0    0  0.93849240627E+00 -0.11569319942E+01 -0.23413429392E+01  0.27750939904E+01  0.51100000000E-03 0. -1.
        -12    1    3    3    0    0  0.31207347182E+01 -0.14619053695E+01 -0.14813761760E+01  0.37510835589E+01  0.00000000000E+00 0.  1.
</event>
<event>
 7    1  0.6136531E-013  0.5052891E+02  0.7816164E-02  0.1300439E+00
        -11   -1    0    0    0    0  0.00000000000E+00  0.00000000000E+00  0.45593999997E+02  0.45594000000E+02  0.51100000000E-03 0.  1.
         11   -1    0    0    0    0 -0.00000000000E+00 -0.00000000000E+00 -0.45593999997E+02  0.45594000000E+02  0.51100000000E-03 0. -1.
    9900012    2    1    2    0    0  0.12743008823E+02 -0.38237252246E+02  0.53563174576E+01  0.50528906677E+02  0.30000142334E+02 0.  0.
         12    1    1    2    0    0 -0.12743008823E+02  0.38237252246E+02 -0.53563174576E+01  0.40659093323E+02  0.00000000000E+00 0. -1.
         11    1    3    3    0    0 -0.21914484476E+00  0.17858636554E+01 -0.54732259382E+01  0.57613831577E+01  0.51100000000E-03 0. -1.
        -11    1    3    3    0    0  0.86660149627E+01 -0.13258139305E+02  0.78419558766E+00  0.15858531967E+02  0.51100000000E-03 0.  1.
         12    1    3    3    0    0  0.42961387051E+01 -0.26764976596E+02  0.10045347808E+02  0.28908991552E+02  0.00000000000E+00 0. -1.
</event>
<event>
 7    1  0.6136531E-013  0.5052886E+02  0.7816164E-02  0.1300439E+00
        -11   -1    0    0    0    0  0.00000000000E+00  0.00000000000E+00  0.45593999997E+02  0.45594000000E+02  0.51100000000E-03 0. -1.
         11   -1    0    0    0    0 -0.00000000000E+00 -0.00000000000E+00 -0.45593999997E+02  0.45594000000E+02  0.51100000000E-03 0.  1.
    9900012    2    1    2    0    0  0.30013943701E+02 -0.27099108236E+02  0.42387421322E+01  0.50528863037E+02  0.30000009688E+02 0.  0.
         12    1    1    2    0    0 -0.30013943701E+02  0.27099108236E+02 -0.42387421322E+01  0.40659136963E+02  0.00000000000E+00 0. -1.
         11    1    3    3    0    0  0.13612905205E+02  0.42030532983E+01 -0.26783904975E+01  0.14496572735E+02  0.51100000000E-03 0. -1.
        -11    1    3    3    0    0  0.69259020592E+01 -0.14506263467E+02  0.29072917868E+01  0.16335609719E+02  0.51100000000E-03 0.  1.
         12    1    3    3    0    0  0.94751364373E+01 -0.16795898068E+02  0.40098408429E+01  0.19696680583E+02  0.00000000000E+00 0. -1.
</event>
<event>
 7    1  0.6136531E-013  0.5052886E+02  0.7816164E-02  0.1300439E+00
        -11   -1    0    0    0    0  0.00000000000E+00  0.00000000000E+00  0.45593999997E+02  0.45594000000E+02  0.51100000000E-03 0. -1.
         11   -1    0    0    0    0 -0.00000000000E+00 -0.00000000000E+00 -0.45593999997E+02  0.45594000000E+02  0.51100000000E-03 0.  1.
    9900012    2    1    2    0    0  0.34636051510E+02  0.21111384749E+02 -0.27962252834E+01  0.50528861962E+02  0.30000006419E+02 0.  0.
         12    1    1    2    0    0 -0.34636051510E+02 -0.21111384749E+02  0.27962252834E+01  0.40659138038E+02  0.00000000000E+00 0. -1.
         11    1    3    3    0    0  0.15492201420E+02  0.87744163475E+01 -0.11314708715E+02  0.21095528452E+02  0.51100000000E-03 0. -1.
        -11    1    3    3    0    0  0.11782560978E+02  0.13207616796E+02  0.11856654003E+02  0.21303758566E+02  0.51100000000E-03 0.  1.
        -12    1    3    3    0    0  0.73612891116E+01 -0.87064839481E+00 -0.33381705708E+01  0.81295749441E+01  0.00000000000E+00 0.  1.
</event>
<event>
 7    1  0.6136531E-013  0.5052886E+02  0.7816164E-02  0.1300439E+00
        -11   -1    0    0    0    0  0.00000000000E+00  0.00000000000E+00  0.45593999997E+02  0.45594000000E+02  0.51100000000E-03 0.  1.
         11   -1    0    0    0    0 -0.00000000000E+00 -0.00000000000E+00 -0.45593999997E+02  0.45594000000E+02  0.51100000000E-03 0. -1.
    9900012    2    1    2    0    0 -0.90413437958E+01 -0.15162551743E+02  0.36626727299E+02  0.50528855572E+02  0.29999986995E+02 0.  0.
         12    1    1    2    0    0  0.90413437958E+01  0.15162551743E+02 -0.36626727299E+02  0.40659144428E+02  0.00000000000E+00 0. -1.
         11    1    3    3    0    0 -0.75476798696E+01  0.43178533392E+01  0.45034788561E+01  0.97924793051E+01  0.51100000000E-03 0. -1.
        -11    1    3    3    0    0  0.32621230399E+01 -0.14739134401E+02  0.11298880847E+02  0.18855986801E+02  0.51100000000E-03 0.  1.
         12    1    3    3    0    0 -0.47557869661E+01 -0.47412706815E+01  0.20824367597E+02  0.21880389465E+02  0.00000000000E+00 0. -1.
</event>
<event>
 7    1  0.6136531E-013  0.5052885E+02  0.7816164E-02  0.1300439E+00
        -11   -1    0    0    0    0  0.00000000000E+00  0.00000000000E+00  0.45593999997E+02  0.45594000000E+02  0.51100000000E-03 0.  1.
         11   -1    0    0    0    0 -0.00000000000E+00 -0.00000000000E+00 -0.45593999997E+02  0.45594000000E+02  0.51100000000E-03 0. -1.
    9900012    2    1    2    0    0  0.29587669724E+02 -0.26708266158E+02  0.80252724961E+01  0.50528847531E+02  0.29999962554E+02 0.  0.
         12    1    1    2    0    0 -0.29587669724E+02  0.26708266158E+02 -0.80252724961E+01  0.40659152469E+02  0.00000000000E+00 0. -1.
         11    1    3    3    0    0 -0.35908445182E+01 -0.34067009977E+00  0.15256194146E+01  0.39163420854E+01  0.51100000000E-03 0. -1.
        -11    1    3    3    0    0  0.25530184555E+02 -0.22060554527E+02  0.12497664460E+02  0.35981245208E+02  0.51100000000E-03 0.  1.
        -12    1    3    3    0    0  0.76483296866E+01 -0.43070415315E+01 -0.59980113780E+01  0.10631260238E+02  0.00000000000E+00 0.  1.
</event>
<event>
 7    1  0.6136531E-013  0.5052885E+02  0.7816164E-02  0.1300439E+00
        -11   -1    0    0    0    0  0.00000000000E+00  0.00000000000E+00  0.45593999997E+02  0.45594000000E+02  0.51100000000E-03 0.  1.
         11   -1    0    0    0    0 -0.00000000000E+00 -0.00000000000E+00 -0.45593999997E+02  0.45594000000E+02  0.51100000000E-03 0. -1.
    9900012    2    1    2    0    0  0.13280031988E+02 -0.27732916807E+02  0.26602487402E+02  0.50528852687E+02  0.29999978229E+02 0.  0.
         12    1    1    2    0    0 -0.13280031988E+02  0.27732916807E+02 -0.26602487402E+02  0.40659147313E+02  0.00000000000E+00 0. -1.
         11    1    3    3    0    0  0.12420950129E+02 -0.17746459096E+02  0.58945755991E+01  0.22449116560E+02  0.51100000000E-03 0. -1.
        -11    1    3    3    0    0 -0.59121019065E+01 -0.93330991048E+01  0.17156114484E+02  0.20405684313E+02  0.51100000000E-03 0.  1.
         12    1    3    3    0    0  0.67711837652E+01 -0.65335860545E+00  0.35517973195E+01  0.76740518143E+01  0.00000000000E+00 0. -1.
</event>
<event>
 7    1  0.6136531E-013  0.5052886E+02  0.7816164E-02  0.1300439E+00
        -11   -1    0    0    0    0  0.00000000000E+00  0.00000000000E+00  0.45593999997E+02  0.45594000000E+02  0.51100000000E-03 0.  1.
         11   -1    0    0    0    0 -0.00000000000E+00 -0.00000000000E+00 -0.45593999997E+02  0.45594000000E+02  0.51100000000E-03 0. -1.
    9900012    2    1    2    0    0 -0.68758125434E+01 -0.31839755749E+02  0.24333498698E+02  0.50528855848E+02  0.29999987837E+02 0.  0.
         12    1    1    2    0    0  0.68758125434E+01  0.31839755749E+02 -0.24333498698E+02  0.40659144152E+02  0.00000000000E+00 0. -1.
         11    1    3    3    0    0 -0.12732136614E+02 -0.19949680515E+01  0.44037782697E+01  0.13619121249E+02  0.51100000000E-03 0. -1.
        -11    1    3    3    0    0  0.43237948443E+01 -0.14702689881E+02  0.66297805098E+01  0.16697852600E+02  0.51100000000E-03 0.  1.
         12    1    3    3    0    0  0.15325292266E+01 -0.15142097816E+02  0.13299939918E+02  0.20211881999E+02  0.00000000000E+00 0. -1.
</event>
<event>
 7    1  0.6136531E-013  0.5052886E+02  0.7816164E-02  0.1300439E+00
        -11   -1    0    0    0    0  0.00000000000E+00  0.00000000000E+00  0.45593999997E+02  0.45594000000E+02  0.51100000000E-03 0.  1.
         11   -1    0    0    0    0 -0.00000000000E+00 -0.00000000000E+00 -0.45593999997E+02  0.45594000000E+02  0.51100000000E-03 0. -1.
    9900012    2    1    2    0    0  0.15512466301E+02  0.68640023224E+01  0.36951515734E+02  0.50528860147E+02  0.30000000902E+02 0.  0.
         12    1    1    2    0    0 -0.15512466301E+02 -0.68640023224E+01 -0.36951515734E+02  0.40659139853E+02  0.00000000000E+00 0. -1.
         11    1    3    3    0    0  0.11786295993E+02  0.13576681763E+02  0.65984813336E+01  0.19151580016E+02  0.51100000000E-03 0. -1.
        -11    1    3    3    0    0  0.12337608753E+01 -0.42638257553E+01  0.18042002215E+02  0.18579995160E+02  0.51100000000E-03 0.  1.
         12    1    3    3    0    0  0.24924094322E+01 -0.24488536858E+01  0.12311032185E+02  0.12797284971E+02  0.00000000000E+00 0. -1.
</event>
<event>
 7    1  0.6136531E-013  0.5052882E+02  0.7816164E-02  0.1300439E+00
        -11   -1    0    0    0    0  0.00000000000E+00  0.00000000000E+00  0.45593999997E+02  0.45594000000E+02  0.51100000000E-03 0. -1.
         11   -1    0    0    0    0 -0.00000000000E+00 -0.00000000000E+00 -0.45593999997E+02  0.45594000000E+02  0.51100000000E-03 0.  1.
    9900012    2    1    2    0    0 -0.34227840201E+02  0.11047451717E+02 -0.18962532328E+02  0.50528820636E+02  0.29999880805E+02 0.  0.
         12    1    1    2    0    0  0.34227840201E+02 -0.11047451717E+02  0.18962532328E+02  0.40659179364E+02  0.00000000000E+00 0. -1.
         11    1    3    3    0    0  0.15343336951E+01  0.21961355526E+00 -0.10237883822E+02  0.10354548537E+02  0.51100000000E-03 0. -1.
        -11    1    3    3    0    0 -0.35338463676E+02  0.11935797869E+02 -0.68016019212E+01  0.37914800207E+02  0.51100000000E-03 0.  1.
        -12    1    3    3    0    0 -0.42371021991E+00 -0.11079597074E+01 -0.19230465847E+01  0.22594718919E+01  0.00000000000E+00 0.  1.
</event>
<event>
 7    1  0.6136531E-013  0.5052887E+02  0.7816164E-02  0.1300439E+00
        -11   -1    0    0    0    0  0.00000000000E+00  0.00000000000E+00  0.45593999997E+02  0.45594000000E+02  0.51100000000E-03 0.  1.
         11   -1    0    0    0    0 -0.00000000000E+00 -0.00000000000E+00 -0.45593999997E+02  0.45594000000E+02  0.51100000000E-03 0. -1.
    9900012    2    1    2    0    0 -0.31493741138E+02  0.18048727602E+02  0.18318090563E+02  0.50528871372E+02  0.30000035023E+02 0.  0.
         12    1    1    2    0    0  0.31493741138E+02 -0.18048727602E+02 -0.18318090563E+02  0.40659128628E+02  0.00000000000E+00 0. -1.
         11    1    3    3    0    0 -0.44381141036E+01 -0.35346178379E+01  0.90028700993E+01  0.10641524813E+02  0.51100000000E-03 0. -1.
        -11    1    3    3    0    0 -0.10618715288E+02  0.94999888687E+01 -0.48503685976E+01  0.15051012546E+02  0.51100000000E-03 0.  1.
        -12    1    3    3    0    0 -0.16436911746E+02  0.12083356571E+02  0.14165589061E+02  0.24836334013E+02  0.00000000000E+00 0.  1.
</event>
<event>
 7    1  0.6136531E-013  0.5052886E+02  0.7816164E-02  0.1300439E+00
        -11   -1    0    0    0    0  0.00000000000E+00  0.00000000000E+00  0.45593999997E+02  0.45594000000E+02  0.51100000000E-03 0. -1.
         11   -1    0    0    0    0 -0.00000000000E+00 -0.00000000000E+00 -0.45593999997E+02  0.45594000000E+02  0.51100000000E-03 0.  1.
    9900012    2    1    2    0    0 -0.49320228984E+01 -0.10178893791E+02 -0.39054208774E+02  0.50528856481E+02  0.29999989760E+02 0.  0.
         12    1    1    2    0    0  0.49320228984E+01  0.10178893791E+02  0.39054208774E+02  0.40659143519E+02  0.00000000000E+00 0. -1.
         11    1    3    3    0    0 -0.20884634852E+01 -0.16252168407E+02 -0.28163963953E+02  0.32583792343E+02  0.51100000000E-03 0. -1.
        -11    1    3    3    0    0  0.45868580045E+01  0.28742361065E+01 -0.16391534223E+01  0.56557337059E+01  0.51100000000E-03 0.  1.
         12    1    3    3    0    0 -0.74304174177E+01  0.31990385094E+01 -0.92510913991E+01  0.12289330432E+02  0.00000000000E+00 0. -1.
</event>
<event>
 7    1  0.6136531E-013  0.5052885E+02  0.7816164E-02  0.1300439E+00
        -11   -1    0    0    0    0  0.00000000000E+00  0.00000000000E+00  0.45593999997E+02  0.45594000000E+02  0.51100000000E-03 0.  1.
         11   -1    0    0    0    0 -0.00000000000E+00 -0.00000000000E+00 -0.45593999997E+02  0.45594000000E+02  0.51100000000E-03 0. -1.
    9900012    2    1    2    0    0  0.29324637004E+02  0.14666337963E+02  0.24044351884E+02  0.50528847744E+02  0.29999963204E+02 0.  0.
         12    1    1    2    0    0 -0.29324637004E+02 -0.14666337963E+02 -0.24044351884E+02  0.40659152256E+02  0.00000000000E+00 0. -1.
         11    1    3    3    0    0 -0.20688689599E+01 -0.54360501493E+01  0.26609756497E+01  0.63962216713E+01  0.51100000000E-03 0. -1.
        -11    1    3    3    0    0  0.17363319690E+02  0.16217550910E+02  0.15838241069E+02  0.28554224006E+02  0.51100000000E-03 0.  1.
        -12    1    3    3    0    0  0.14030186273E+02  0.38848372017E+01  0.55451351658E+01  0.15578402067E+02  0.00000000000E+00 0.  1.
</event>
<event>
 7    1  0.6136531E-013  0.5052883E+02  0.7816164E-02  0.1300439E+00
        -11   -1    0    0    0    0  0.00000000000E+00  0.00000000000E+00  0.45593999997E+02  0.45594000000E+02  0.51100000000E-03 0.  1.
         11   -1    0    0    0    0 -0.00000000000E+00 -0.00000000000E+00 -0.45593999997E+02  0.45594000000E+02  0.51100000000E-03 0. -1.
    9900012    2    1    2    0    0  0.11905176724E+02  0.14513349011E+02 -0.36066568162E+02  0.50528832874E+02  0.29999918004E+02 0.  0.
         12    1    1    2    0    0 -0.11905176724E+02 -0.14513349011E+02  0.36066568162E+02  0.40659167126E+02  0.00000000000E+00 0. -1.
         11    1    3    3    0    0  0.11629726797E+02 -0.49464271791E+00 -0.12824215986E+02  0.17319230142E+02  0.51100000000E-03 0. -1.
        -11    1    3    3    0    0 -0.47647560181E+01 -0.11396669833E+01 -0.58485031734E+00  0.49339427337E+01  0.51100000000E-03 0.  1.
        -12    1    3    3    0    0  0.50402059449E+01  0.16147658712E+02 -0.22657501859E+02  0.28275659998E+02  0.00000000000E+00 0.  1.
</event>
<event>
 7    1  0.6136531E-013  0.5052887E+02  0.7816164E-02  0.1300439E+00
        -11   -1    0    0    0    0  0.00000000000E+00  0.00000000000E+00  0.45593999997E+02  0.45594000000E+02  0.51100000000E-03 0. -1.
         11   -1    0    0    0    0 -0.00000000000E+00 -0.00000000000E+00 -0.45593999997E+02  0.45594000000E+02  0.51100000000E-03 0.  1.
    9900012    2    1    2    0    0 -0.24675038845E+02  0.15306354380E+02  0.28460905624E+02  0.50528866028E+02  0.30000018780E+02 0.  0.
         12    1    1    2    0    0  0.24675038845E+02 -0.15306354380E+02 -0.28460905624E+02  0.40659133972E+02  0.00000000000E+00 0. -1.
         11    1    3    3    0    0 -0.13356360462E+02  0.18374639776E+02  0.73462774697E+01  0.23874411922E+02  0.51100000000E-03 0.  1.
        -11    1    3    3    0    0 -0.65188015334E+01 -0.15281775097E+01  0.20512636666E+02  0.21577728407E+02  0.51100000000E-03 0. -1.
        -12    1    3    3    0    0 -0.47998768498E+01 -0.15401078866E+01  0.60199148750E+00  0.50767256994E+01  0.00000000000E+00 0.  1.
</event>
<event>
 7    1  0.6136531E-013  0.5052888E+02  0.7816164E-02  0.1300439E+00
        -11   -1    0    0    0    0  0.00000000000E+00  0.00000000000E+00  0.45593999997E+02  0.45594000000E+02  0.51100000000E-03 0.  1.
         11   -1    0    0    0    0 -0.00000000000E+00 -0.00000000000E+00 -0.45593999997E+02  0.45594000000E+02  0.51100000000E-03 0. -1.
    9900012    2    1    2    0    0  0.26962635676E+02 -0.22387635836E+02  0.20614895182E+02  0.50528882151E+02  0.30000067785E+02 0.  0.
         12    1    1    2    0    0 -0.26962635676E+02  0.22387635836E+02 -0.20614895182E+02  0.40659117849E+02  0.00000000000E+00 0. -1.
         11    1    3    3    0    0 -0.19629113214E+01  0.18956736523E+01  0.98943655156E+01  0.10263774582E+02  0.51100000000E-03 0. -1.
        -11    1    3    3    0    0  0.14144749805E+02 -0.11626474612E+02  0.98386359473E+01  0.20785755135E+02  0.51100000000E-03 0.  1.
         12    1    3    3    0    0  0.14780797192E+02 -0.12656834876E+02  0.88189371956E+00  0.19479352434E+02  0.00000000000E+00 0. -1.
</event>
<event>
 7    1  0.6136531E-013  0.5052885E+02  0.7816164E-02  0.1300439E+00
        -11   -1    0    0    0    0  0.00000000000E+00  0.00000000000E+00  0.45593999997E+02  0.45594000000E+02  0.51100000000E-03 0. -1.
         11   -1    0    0    0    0 -0.00000000000E+00 -0.00000000000E+00 -0.45593999997E+02  0.45594000000E+02  0.51100000000E-03 0.  1.
    9900012    2    1    2    0    0 -0.39142119365E+02  0.10997875009E+02 -0.32862629762E+00  0.50528846561E+02  0.29999959607E+02 0.  0.
         12    1    1    2    0    0  0.39142119365E+02 -0.10997875009E+02  0.32862629762E+00  0.40659153439E+02  0.00000000000E+00 0. -1.
         11    1    3    3    0    0 -0.10700034321E+02 -0.61115148413E+01  0.95829537507E+01  0.15610072100E+02  0.51100000000E-03 0. -1.
        -11    1    3    3    0    0 -0.24752841291E+02  0.14148767303E+02 -0.69782918784E+01  0.29352807804E+02  0.51100000000E-03 0.  1.
         12    1    3    3    0    0 -0.36892437528E+01  0.29606225471E+01 -0.29332881700E+01  0.55659666566E+01  0.00000000000E+00 0. -1.
</event>
<event>
 7    1  0.6136531E-013  0.5052887E+02  0.7816164E-02  0.1300439E+00
        -11   -1    0    0    0    0  0.00000000000E+00  0.00000000000E+00  0.45593999997E+02  0.45594000000E+02  0.51100000000E-03 0.  1.
         11   -1    0    0    0    0 -0.00000000000E+00 -0.00000000000E+00 -0.45593999997E+02  0.45594000000E+02  0.51100000000E-03 0. -1.
    9900012    2    1    2    0    0  0.23148428432E+02  0.33334387969E+02  0.24765959507E+01  0.50528872025E+02  0.30000037008E+02 0.  0.
         12    1    1    2    0    0 -0.23148428432E+02 -0.33334387969E+02 -0.24765959507E+01  0.40659127975E+02  0.00000000000E+00 0. -1.
         11    1    3    3    0    0 -0.21247511870E+00 -0.38147042537E+01 -0.29593248798E+01  0.48326719549E+01  0.51100000000E-03 0. -1.
        -11    1    3    3    0    0  0.20252442493E+02  0.24282490622E+02  0.66729457574E+00  0.31626666913E+02  0.51100000000E-03 0.  1.
         12    1    3    3    0    0  0.31084610581E+01  0.12866601601E+02  0.47686262547E+01  0.14069533158E+02  0.00000000000E+00 0. -1.
</event>
<event>
 7    1  0.6136531E-013  0.5052888E+02  0.7816164E-02  0.1300439E+00
        -11   -1    0    0    0    0  0.00000000000E+00  0.00000000000E+00  0.45593999997E+02  0.45594000000E+02  0.51100000000E-03 0.  1.
         11   -1    0    0    0    0 -0.00000000000E+00 -0.00000000000E+00 -0.45593999997E+02  0.45594000000E+02  0.51100000000E-03 0. -1.
    9900012    2    1    2    0    0  0.92526722426E+01 -0.36578649222E+02  0.15151064750E+02  0.50528876969E+02  0.30000052036E+02 0.  0.
         12    1    1    2    0    0 -0.92526722426E+01  0.36578649222E+02 -0.15151064750E+02  0.40659123031E+02  0.00000000000E+00 0. -1.
         11    1    3    3    0    0  0.42476328768E+01 -0.19329373596E+02 -0.27081645723E+01  0.19975015001E+02  0.51100000000E-03 0. -1.
        -11    1    3    3    0    0  0.57464812839E+01 -0.18783866793E+02  0.19854690884E+02  0.27929633890E+02  0.51100000000E-03 0.  1.
        -12    1    3    3    0    0 -0.74144191809E+00  0.15345911667E+01 -0.19954615615E+01  0.26242280790E+01  0.00000000000E+00 0.  1.
</event>
<event>
 7    1  0.6136531E-013  0.5052886E+02  0.7816164E-02  0.1300439E+00
        -11   -1    0    0    0    0  0.00000000000E+00  0.00000000000E+00  0.45593999997E+02  0.45594000000E+02  0.51100000000E-03 0.  1.
         11   -1    0    0    0    0 -0.00000000000E+00 -0.00000000000E+00 -0.45593999997E+02  0.45594000000E+02  0.51100000000E-03 0. -1.
    9900012    2    1    2    0    0 -0.29305908638E+02 -0.16925687436E+02  0.22535540626E+02  0.50528858746E+02  0.29999996644E+02 0.  0.
         12    1    1    2    0    0  0.29305908638E+02  0.16925687436E+02 -0.22535540626E+02  0.40659141254E+02  0.00000000000E+00 0. -1.
         11    1    3    3    0    0 -0.37483227626E+01  0.56548011165E+01 -0.14857532130E+01  0.69450818621E+01  0.51100000000E-03 0. -1.
        -11    1    3    3    0    0 -0.18706042152E+02 -0.81745178179E+01  0.13515112420E+02  0.24482586026E+02  0.51100000000E-03 0.  1.
         12    1    3    3    0    0 -0.68515437230E+01 -0.14405970734E+02  0.10506181419E+02  0.19101190858E+02  0.00000000000E+00 0. -1.
</event>
<event>
 7    1  0.6136531E-013  0.5052885E+02  0.7816164E-02  0.1300439E+00
        -11   -1    0    0    0    0  0.00000000000E+00  0.00000000000E+00  0.45593999997E+02  0.45594000000E+02  0.51100000000E-03 0.  1.
         11   -1    0    0    0    0 -0.00000000000E+00 -0.00000000000E+00 -0.45593999997E+02  0.45594000000E+02  0.51100000000E-03 0. -1.
    9900012    2    1    2    0    0  0.27195477770E+02  0.24328418163E+02 -0.17936003394E+02  0.50528853929E+02  0.29999982004E+02 0.  0.
         12    1    1    2    0    0 -0.27195477770E+02 -0.24328418163E+02  0.17936003394E+02  0.40659146071E+02  0.00000000000E+00 0. -1.
         11    1    3    3    0    0 -0.91714837437E+00 -0.27174059006E+01 -0.23986847561E+01  0.37388694534E+01  0.51100000000E-03 0. -1.
        -11    1    3    3    0    0  0.28044502704E+02  0.29533084695E+02 -0.16731583713E+02  0.44030025179E+02  0.51100000000E-03 0.  1.
        -12    1    3    3    0    0  0.68123440605E-01 -0.24872606309E+01  0.11942650753E+01  0.27599592967E+01  0.00000000000E+00 0.  1.
</event>
<event>
 7    1  0.6136531E-013  0.5052892E+02  0.7816164E-02  0.1300439E+00
        -11   -1    0    0    0    0  0.00000000000E+00  0.00000000000E+00  0.45593999997E+02  0.45594000000E+02  0.51100000000E-03 0.  1.
         11   -1    0    0    0    0 -0.00000000000E+00 -0.00000000000E+00 -0.45593999997E+02  0.45594000000E+02  0.51100000000E-03 0. -1.
    9900012    2    1    2    0    0  0.25972123401E+02 -0.18821017868E+02  0.24987580011E+02  0.50528916607E+02  0.30000172518E+02 0.  0.
         12    1    1    2    0    0 -0.25972123401E+02  0.18821017868E+02 -0.24987580011E+02  0.40659083393E+02  0.00000000000E+00 0. -1.
         11    1    3    3    0    0  0.20951392246E+02 -0.53024802629E+01  0.19136438233E+02  0.28866596656E+02  0.51100000000E-03 0. -1.
        -11    1    3    3    0    0  0.46641643810E+01 -0.16623321180E+02  0.65394602803E+01  0.18462225691E+02  0.51100000000E-03 0.  1.
        -12    1    3    3    0    0  0.35656677414E+00  0.31047835754E+01 -0.68831850211E+00  0.32000942603E+01  0.00000000000E+00 0.  1.
</event>
<event>
 7    1  0.6136531E-013  0.5052886E+02  0.7816164E-02  0.1300439E+00
        -11   -1    0    0    0    0  0.00000000000E+00  0.00000000000E+00  0.45593999997E+02  0.45594000000E+02  0.51100000000E-03 0. -1.
         11   -1    0    0    0    0 -0.00000000000E+00 -0.00000000000E+00 -0.45593999997E+02  0.45594000000E+02  0.51100000000E-03 0.  1.
    9900012    2    1    2    0    0  0.73379027951E+00  0.28211563883E+02 -0.29270033504E+02  0.50528860238E+02  0.30000001179E+02 0.  0.
         12    1    1    2    0    0 -0.73379027951E+00 -0.28211563883E+02  0.29270033504E+02  0.40659139762E+02  0.00000000000E+00 0. -1.
         11    1    3    3    0    0 -0.36153142826E+01  0.12949996457E+02  0.31428229152E+01  0.13807615353E+02  0.51100000000E-03 0. -1.
        -11    1    3    3    0    0  0.84104832963E+00  0.43349443503E+01 -0.16636142148E+02  0.17212214577E+02  0.51100000000E-03 0.  1.
         12    1    3    3    0    0  0.35080562325E+01  0.10926623076E+02 -0.15776714271E+02  0.19509030308E+02  0.00000000000E+00 0. -1.
</event>
<event>
 7    1  0.6136531E-013  0.5052886E+02  0.7816164E-02  0.1300439E+00
        -11   -1    0    0    0    0  0.00000000000E+00  0.00000000000E+00  0.45593999997E+02  0.45594000000E+02  0.51100000000E-03 0.  1.
         11   -1    0    0    0    0 -0.00000000000E+00 -0.00000000000E+00 -0.45593999997E+02  0.45594000000E+02  0.51100000000E-03 0. -1.
    9900012    2    1    2    0    0  0.55805380945E+01 -0.50796950699E+00  0.40271143725E+02  0.50528862585E+02  0.30000008313E+02 0.  0.
         12    1    1    2    0    0 -0.55805380945E+01  0.50796950699E+00 -0.40271143725E+02  0.40659137415E+02  0.00000000000E+00 0. -1.
         11    1    3    3    0    0 -0.35980562918E+01  0.83965055475E+01  0.10774657221E+02  0.14125882378E+02  0.51100000000E-03 0. -1.
        -11    1    3    3    0    0  0.12625153015E+02 -0.98276226172E+01  0.28524182896E+02  0.32704826327E+02  0.51100000000E-03 0.  1.
        -12    1    3    3    0    0 -0.34465586291E+01  0.92314756275E+00  0.97230360830E+00  0.36981538790E+01  0.00000000000E+00 0.  1.
</event>
<event>
 7    1  0.6136531E-013  0.5052886E+02  0.7816164E-02  0.1300439E+00
        -11   -1    0    0    0    0  0.00000000000E+00  0.00000000000E+00  0.45593999997E+02  0.45594000000E+02  0.51100000000E-03 0.  1.
         11   -1    0    0    0    0 -0.00000000000E+00 -0.00000000000E+00 -0.45593999997E+02  0.45594000000E+02  0.51100000000E-03 0. -1.
    9900012    2    1    2    0    0  0.63354998609E+01  0.35969371324E+02  0.17867045097E+02  0.50528861637E+02  0.30000005432E+02 0.  0.
         12    1    1    2    0    0 -0.63354998609E+01 -0.35969371324E+02 -0.17867045097E+02  0.40659138363E+02  0.00000000000E+00 0. -1.
         11    1    3    3    0    0 -0.20050116354E+01  0.10789661959E+02 -0.28164916837E+01  0.11330026589E+02  0.51100000000E-03 0. -1.
        -11    1    3    3    0    0 -0.16474688996E+01  0.20165031429E+02  0.19257683019E+02  0.27932078366E+02  0.51100000000E-03 0.  1.
         12    1    3    3    0    0  0.99879803959E+01  0.50146779356E+01  0.14258537618E+01  0.11266756682E+02  0.00000000000E+00 0. -1.
</event>
<event>
 7    1  0.6136531E-013  0.5052886E+02  0.7816164E-02  0.1300439E+00
        -11   -1    0    0    0    0  0.00000000000E+00  0.00000000000E+00  0.45593999997E+02  0.45594000000E+02  0.51100000000E-03 0. -1.
         11   -1    0    0    0    0 -0.00000000000E+00 -0.00000000000E+00 -0.45593999997E+02  0.45594000000E+02  0.51100000000E-03 0.  1.
    9900012    2    1    2    0    0 -0.26162982742E+01  0.10845303988E+02 -0.39098592223E+02  0.50528861433E+02  0.30000004810E+02 0.  0.
         12    1    1    2    0    0  0.26162982742E+01 -0.10845303988E+02  0.39098592223E+02  0.40659138567E+02  0.00000000000E+00 0. -1.
         11    1    3    3    0    0 -0.14595581817E+02  0.35186207015E+01 -0.23090142928E+02  0.27542084179E+02  0.51100000000E-03 0. -1.
        -11    1    3    3    0    0  0.48410329988E+01  0.13940332364E+01 -0.11730718032E+02  0.12766701804E+02  0.51100000000E-03 0.  1.
         12    1    3    3    0    0  0.71382505437E+01  0.59326500496E+01 -0.42777312633E+01  0.10220075450E+02  0.00000000000E+00 0. -1.
</event>
<event>
 7    1  0.6136531E-013  0.5052885E+02  0.7816164E-02  0.1300439E+00
        -11   -1    0    0    0    0  0.00000000000E+00  0.00000000000E+00  0.45593999997E+02  0.45594000000E+02  0.51100000000E-03 0.  1.
         11   -1    0    0    0    0 -0.00000000000E+00 -0.00000000000E+00 -0.45593999997E+02  0.45594000000E+02  0.51100000000E-03 0. -1.
    9900012    2    1    2    0    0 -0.44106157984E+01 -0.22448526053E+02  0.33612144613E+02  0.50528854421E+02  0.29999983499E+02 0.  0.
         12    1    1    2    0    0  0.44106157984E+01  0.22448526053E+02 -0.33612144613E+02  0.40659145579E+02  0.00000000000E+00 0. -1.
         11    1    3    3    0    0  0.51158572983E+01 -0.81843363324E+01  0.61421464893E+01  0.11440337445E+02  0.51100000000E-03 0. -1.
        -11    1    3    3    0    0 -0.26964235157E+01  0.42613563862E+01  0.14782588183E+02  0.15619051562E+02  0.51100000000E-03 0.  1.
        -12    1    3    3    0    0 -0.68300495810E+01 -0.18525546107E+02  0.12687409941E+02  0.23469465414E+02  0.00000000000E+00 0.  1.
</event>
<event>
 7    1  0.6136531E-013  0.5052885E+02  0.7816164E-02  0.1300439E+00
        -11   -1    0    0    0    0  0.00000000000E+00  0.00000000000E+00  0.45593999997E+02  0.45594000000E+02  0.51100000000E-03 0.  1.
         11   -1    0    0    0    0 -0.00000000000E+00 -0.00000000000E+00 -0.45593999997E+02  0.45594000000E+02  0.51100000000E-03 0. -1.
    9900012    2    1    2    0    0  0.30499946620E+02  0.19048916274E+02 -0.18975198341E+02  0.50528854569E+02  0.29999983949E+02 0.  0.
         12    1    1    2    0    0 -0.30499946620E+02 -0.19048916274E+02  0.18975198341E+02  0.40659145431E+02  0.00000000000E+00 0. -1.
         11    1    3    3    0    0  0.87636410631E+01  0.26519514627E+01 -0.11119358119E+02  0.14403970858E+02  0.51100000000E-03 0. -1.
        -11    1    3    3    0    0  0.10714140296E+02  0.77152197289E+01  0.76131626308E+01  0.15240658229E+02  0.51100000000E-03 0.  1.
        -12    1    3    3    0    0  0.11022165262E+02  0.86817450824E+01 -0.15469002853E+02  0.20884225483E+02  0.00000000000E+00 0.  1.
</event>
<event>
 7    1  0.6136531E-013  0.5052885E+02  0.7816164E-02  0.1300439E+00
        -11   -1    0    0    0    0  0.00000000000E+00  0.00000000000E+00  0.45593999997E+02  0.45594000000E+02  0.51100000000E-03 0.  1.
         11   -1    0    0    0    0 -0.00000000000E+00 -0.00000000000E+00 -0.45593999997E+02  0.45594000000E+02  0.51100000000E-03 0. -1.
    9900012    2    1    2    0    0 -0.16393837953E+02  0.31202594839E+02  0.20268365493E+02  0.50528849894E+02  0.29999969738E+02 0.  0.
         12    1    1    2    0    0  0.16393837953E+02 -0.31202594839E+02 -0.20268365493E+02  0.40659150106E+02  0.00000000000E+00 0. -1.
         11    1    3    3    0    0  0.66678404770E+01  0.37091588481E+01  0.56275820694E+01  0.94809090384E+01  0.51100000000E-03 0. -1.
        -11    1    3    3    0    0 -0.15650444732E+02  0.14904210554E+02  0.19552183567E+01  0.21700110406E+02  0.51100000000E-03 0.  1.
        -12    1    3    3    0    0 -0.74112336983E+01  0.12589225438E+02  0.12685565067E+02  0.19347830450E+02  0.00000000000E+00 0.  1.
</event>
<event>
 7    1  0.6136531E-013  0.5052887E+02  0.7816164E-02  0.1300439E+00
        -11   -1    0    0    0    0  0.00000000000E+00  0.00000000000E+00  0.45593999997E+02  0.45594000000E+02  0.51100000000E-03 0.  1.
         11   -1    0    0    0    0 -0.00000000000E+00 -0.00000000000E+00 -0.45593999997E+02  0.45594000000E+02  0.51100000000E-03 0. -1.
    9900012    2    1    2    0    0 -0.14339295338E+02 -0.88296011604E+01  0.37007944426E+02  0.50528865748E+02  0.30000017928E+02 0.  0.
         12    1    1    2    0    0  0.14339295338E+02  0.88296011604E+01 -0.37007944426E+02  0.40659134252E+02  0.00000000000E+00 0. -1.
         11    1    3    3    0    0 -0.12445918536E+02 -0.19346133782E+02  0.24771986032E+02  0.33805695863E+02  0.51100000000E-03 0. -1.
        -11    1    3    3    0    0 -0.17846240849E+01  0.87683549201E+01  0.11980161291E+02  0.14953033002E+02  0.51100000000E-03 0.  1.
         12    1    3    3    0    0 -0.10875271668E+00  0.17481777015E+01  0.25579710320E+00  0.17701368838E+01  0.00000000000E+00 0. -1.
</event>
<event>
 7    1  0.6136531E-013  0.5052885E+02  0.7816164E-02  0.1300439E+00
        -11   -1    0    0    0    0  0.00000000000E+00  0.00000000000E+00  0.45593999997E+02  0.45594000000E+02  0.51100000000E-03 0.  1.
         11   -1    0    0    0    0 -0.00000000000E+00 -0.00000000000E+00 -0.45593999997E+02  0.45594000000E+02  0.51100000000E-03 0. -1.
    9900012    2    1    2    0    0  0.10648924493E+02 -0.38352187648E+02 -0.82991688952E+01  0.50528854723E+02  0.29999984417E+02 0.  0.
         12    1    1    2    0    0 -0.10648924493E+02  0.38352187648E+02  0.82991688952E+01  0.40659145277E+02  0.00000000000E+00 0. -1.
         11    1    3    3    0    0  0.12785063395E+00  0.37978826850E+01 -0.19821241826E+00  0.38052000075E+01  0.51100000000E-03 0. -1.
        -11    1    3    3    0    0  0.12312547705E+02 -0.18054189049E+02 -0.37220792975E+01  0.22167689274E+02  0.51100000000E-03 0.  1.
         12    1    3    3    0    0 -0.17914738460E+01 -0.24095881284E+02 -0.43788771794E+01  0.24555965441E+02  0.00000000000E+00 0. -1.
</event>
<event>
 7    1  0.6136531E-013  0.5052887E+02  0.7816164E-02  0.1300439E+00
        -11   -1    0    0    0    0  0.00000000000E+00  0.00000000000E+00  0.45593999997E+02  0.45594000000E+02  0.51100000000E-03 0. -1.
         11   -1    0    0    0    0 -0.00000000000E+00 -0.00000000000E+00 -0.45593999997E+02  0.45594000000E+02  0.51100000000E-03 0.  1.
    9900012    2    1    2    0    0 -0.24090926176E+02  0.59570694692E+01 -0.32207231532E+02  0.50528866172E+02  0.30000019215E+02 0.  0.
         12    1    1    2    0    0  0.24090926176E+02 -0.59570694692E+01  0.32207231532E+02  0.40659133828E+02  0.00000000000E+00 0. -1.
         11    1    3    3    0    0  0.12634544370E+01  0.30261559360E+01 -0.31779436257E+01  0.45665372891E+01  0.51100000000E-03 0. -1.
        -11    1    3    3    0    0 -0.28460590184E+02  0.62332627662E+01 -0.29428292041E+02  0.41411147425E+02  0.51100000000E-03 0.  1.
        -12    1    3    3    0    0  0.31062095713E+01 -0.33023492330E+01  0.39900413446E+00  0.45511814573E+01  0.00000000000E+00 0.  1.
</event>
<event>
 7    1  0.6136531E-013  0.5052887E+02  0.7816164E-02  0.1300439E+00
        -11   -1    0    0    0    0  0.00000000000E+00  0.00000000000E+00  0.45593999997E+02  0.45594000000E+02  0.51100000000E-03 0.  1.
         11   -1    0    0    0    0 -0.00000000000E+00 -0.00000000000E+00 -0.45593999997E+02  0.45594000000E+02  0.51100000000E-03 0. -1.
    9900012    2    1    2    0    0  0.19997497625E+02 -0.31463655716E+02  0.16226621057E+02  0.50528870974E+02  0.30000033812E+02 0.  0.
         12    1    1    2    0    0 -0.19997497625E+02  0.31463655716E+02 -0.16226621057E+02  0.40659129026E+02  0.00000000000E+00 0. -1.
         11    1    3    3    0    0 -0.58385731848E+01 -0.17315938796E+02  0.55247078293E+01  0.19090653999E+02  0.51100000000E-03 0. -1.
        -11    1    3    3    0    0  0.18632043008E+02 -0.10109895675E+02  0.88694461843E+01  0.22978905394E+02  0.51100000000E-03 0.  1.
         12    1    3    3    0    0  0.72040278015E+01 -0.40378212444E+01  0.18324670431E+01  0.84593115814E+01  0.00000000000E+00 0. -1.
</event>
<event>
 7    1  0.6136531E-013  0.5052886E+02  0.7816164E-02  0.1300439E+00
        -11   -1    0    0    0    0  0.00000000000E+00  0.00000000000E+00  0.45593999997E+02  0.45594000000E+02  0.51100000000E-03 0. -1.
         11   -1    0    0    0    0 -0.00000000000E+00 -0.00000000000E+00 -0.45593999997E+02  0.45594000000E+02  0.51100000000E-03 0.  1.
    9900012    2    1    2    0    0 -0.19126243623E+02 -0.35859189179E+02  0.12127650118E+01  0.50528862741E+02  0.30000008788E+02 0.  0.
         12    1    1    2    0    0  0.19126243623E+02  0.35859189179E+02 -0.12127650118E+01  0.40659137259E+02  0.00000000000E+00 0. -1.
         11    1    3    3    0    0 -0.23854507395E+02 -0.19091296372E+02 -0.17561174323E+01  0.30603906105E+02  0.51100000000E-03 0. -1.
        -11    1    3    3    0    0  0.14985218039E+01 -0.53494375849E+01 -0.33436248042E+01  0.64839707868E+01  0.51100000000E-03 0.  1.
         12    1    3    3    0    0  0.32297419680E+01 -0.11418455222E+02  0.63125072483E+01  0.13440985849E+02  0.00000000000E+00 0. -1.
</event>
<event>
 7    1  0.6136531E-013  0.5052885E+02  0.7816164E-02  0.1300439E+00
        -11   -1    0    0    0    0  0.00000000000E+00  0.00000000000E+00  0.45593999997E+02  0.45594000000E+02  0.51100000000E-03 0.  1.
         11   -1    0    0    0    0 -0.00000000000E+00 -0.00000000000E+00 -0.45593999997E+02  0.45594000000E+02  0.51100000000E-03 0. -1.
    9900012    2    1    2    0    0  0.23391327847E+02 -0.71032345575E+01  0.32489323756E+02  0.50528851980E+02  0.29999976077E+02 0.  0.
         12    1    1    2    0    0 -0.23391327847E+02  0.71032345575E+01 -0.32489323756E+02  0.40659148020E+02  0.00000000000E+00 0. -1.
         11    1    3    3    0    0 -0.25472220311E+01 -0.75934439336E+01  0.60117512114E+01  0.10014483698E+02  0.51100000000E-03 0. -1.
        -11    1    3    3    0    0  0.12522016409E+02  0.47570791826E+01  0.39785332464E+01  0.13973525838E+02  0.51100000000E-03 0.  1.
        -12    1    3    3    0    0  0.13416533469E+02 -0.42668698065E+01  0.22499039298E+02  0.26540842443E+02  0.00000000000E+00 0.  1.
</event>
<event>
 7    1  0.6136531E-013  0.5052880E+02  0.7816164E-02  0.1300439E+00
        -11   -1    0    0    0    0  0.00000000000E+00  0.00000000000E+00  0.45593999997E+02  0.45594000000E+02  0.51100000000E-03 0.  1.
         11   -1    0    0    0    0 -0.00000000000E+00 -0.00000000000E+00 -0.45593999997E+02  0.45594000000E+02  0.51100000000E-03 0. -1.
    9900012    2    1    2    0    0 -0.23146131148E+02 -0.18127330567E+02  0.28086064474E+02  0.50528800325E+02  0.29999819066E+02 0.  0.
         12    1    1    2    0    0  0.23146131148E+02  0.18127330567E+02 -0.28086064474E+02  0.40659199675E+02  0.00000000000E+00 0. -1.
         11    1    3    3    0    0 -0.19321024715E+02  0.47657802666E+00  0.18617409912E+02  0.26835369845E+02  0.51100000000E-03 0. -1.
        -11    1    3    3    0    0  0.23917765190E+01 -0.44357980385E+01  0.60030936607E+01  0.78379865345E+01  0.51100000000E-03 0.  1.
         12    1    3    3    0    0 -0.62168829525E+01 -0.14168110555E+02  0.34655609017E+01  0.15855443945E+02  0.00000000000E+00 0. -1.
</event>
<event>
 7    1  0.6136531E-013  0.5052886E+02  0.7816164E-02  0.1300439E+00
        -11   -1    0    0    0    0  0.00000000000E+00  0.00000000000E+00  0.45593999997E+02  0.45594000000E+02  0.51100000000E-03 0.  1.
         11   -1    0    0    0    0 -0.00000000000E+00 -0.00000000000E+00 -0.45593999997E+02  0.45594000000E+02  0.51100000000E-03 0. -1.
    9900012    2    1    2    0    0 -0.37168756410E+02 -0.16290659715E+02  0.25027026801E+01  0.50528861203E+02  0.30000004113E+02 0.  0.
         12    1    1    2    0    0  0.37168756410E+02  0.16290659715E+02 -0.25027026801E+01  0.40659138797E+02  0.00000000000E+00 0. -1.
         11    1    3    3    0    0 -0.36503663039E+02 -0.12225392075E+02 -0.24468524533E+01  0.38574145666E+02  0.51100000000E-03 0. -1.
        -11    1    3    3    0    0  0.44708016560E+01 -0.67763768695E+00  0.96218491306E+00  0.46231007290E+01  0.51100000000E-03 0.  1.
        -12    1    3    3    0    0 -0.51358950273E+01 -0.33876299526E+01  0.39873702204E+01  0.73316148086E+01  0.00000000000E+00 0.  1.
</event>
<event>
 7    1  0.6136531E-013  0.5052884E+02  0.7816164E-02  0.1300439E+00
        -11   -1    0    0    0    0  0.00000000000E+00  0.00000000000E+00  0.45593999997E+02  0.45594000000E+02  0.51100000000E-03 0.  1.
         11   -1    0    0    0    0 -0.00000000000E+00 -0.00000000000E+00 -0.45593999997E+02  0.45594000000E+02  0.51100000000E-03 0. -1.
    9900012    2    1    2    0    0  0.14208093390E+02  0.37339671312E+02  0.75528922194E+01  0.50528841717E+02  0.29999944881E+02 0.  0.
         12    1    1    2    0    0 -0.14208093390E+02 -0.37339671312E+02 -0.75528922194E+01  0.40659158283E+02  0.00000000000E+00 0. -1.
         11    1    3    3    0    0  0.10499230916E+01  0.10037974573E+01  0.84310268449E+01  0.85552417706E+01  0.51100000000E-03 0. -1.
        -11    1    3    3    0    0  0.47190548140E+01  0.26691020080E+02 -0.66643201248E+01  0.27912240939E+02  0.51100000000E-03 0.  1.
         12    1    3    3    0    0  0.84391154845E+01  0.96448537747E+01  0.57861854993E+01  0.14061359007E+02  0.00000000000E+00 0. -1.
</event>
<event>
 7    1  0.6136531E-013  0.5052886E+02  0.7816164E-02  0.1300439E+00
        -11   -1    0    0    0    0  0.00000000000E+00  0.00000000000E+00  0.45593999997E+02  0.45594000000E+02  0.51100000000E-03 0.  1.
         11   -1    0    0    0    0 -0.00000000000E+00 -0.00000000000E+00 -0.45593999997E+02  0.45594000000E+02  0.51100000000E-03 0. -1.
    9900012    2    1    2    0    0 -0.28649687631E+02  0.27704822652E+02  0.80500820318E+01  0.50528860557E+02  0.30000002148E+02 0.  0.
         12    1    1    2    0    0  0.28649687631E+02 -0.27704822652E+02 -0.80500820318E+01  0.40659139443E+02  0.00000000000E+00 0. -1.
         11    1    3    3    0    0 -0.21959782493E+02  0.18906576177E+02 -0.41756936570E+00  0.28980425020E+02  0.51100000000E-03 0. -1.
        -11    1    3    3    0    0 -0.34948218722E+01  0.50722544313E+01  0.13302114636E+02  0.14659051777E+02  0.51100000000E-03 0.  1.
         12    1    3    3    0    0 -0.31950832661E+01  0.37259920435E+01 -0.48344632389E+01  0.68893837601E+01  0.00000000000E+00 0. -1.
</event>
<event>
 7    1  0.6136531E-013  0.5052886E+02  0.7816164E-02  0.1300439E+00
        -11   -1    0    0    0    0  0.00000000000E+00  0.00000000000E+00  0.45593999997E+02  0.45594000000E+02  0.51100000000E-03 0. -1.
         11   -1    0    0    0    0 -0.00000000000E+00 -0.00000000000E+00 -0.45593999997E+02  0.45594000000E+02  0.51100000000E-03 0.  1.
    9900012    2    1    2    0    0 -0.21198969347E+02 -0.28645306360E+02 -0.19575907444E+02  0.50528855517E+02  0.29999986830E+02 0.  0.
         12    1    1    2    0    0  0.21198969347E+02  0.28645306360E+02  0.19575907444E+02  0.40659144483E+02  0.00000000000E+00 0. -1.
         11    1    3    3    0    0  0.22328674302E+01  0.15895588738E+01 -0.27311606103E+01  0.38693194382E+01  0.51100000000E-03 0. -1.
        -11    1    3    3    0    0 -0.25126475219E+02 -0.27210089636E+02 -0.90471162711E+01  0.38125831768E+02  0.51100000000E-03 0.  1.
        -12    1    3    3    0    0  0.16946384424E+01 -0.30247755972E+01 -0.77976305631E+01  0.85337043107E+01  0.00000000000E+00 0.  1.
</event>
<event>
 7    1  0.6136531E-013  0.5052886E+02  0.7816164E-02  0.1300439E+00
        -11   -1    0    0    0    0  0.00000000000E+00  0.00000000000E+00  0.45593999997E+02  0.45594000000E+02  0.51100000000E-03 0.  1.
         11   -1    0    0    0    0 -0.00000000000E+00 -0.00000000000E+00 -0.45593999997E+02  0.45594000000E+02  0.51100000000E-03 0. -1.
    9900012    2    1    2    0    0 -0.39642842854E+02  0.22085865127E+01  0.87597278926E+01  0.50528859863E+02  0.30000000039E+02 0.  0.
         12    1    1    2    0    0  0.39642842854E+02 -0.22085865127E+01 -0.87597278926E+01  0.40659140137E+02  0.00000000000E+00 0. -1.
         11    1    3    3    0    0 -0.22809966881E+02  0.81485702208E+01 -0.79994025597E+01  0.25508512841E+02  0.51100000000E-03 0. -1.
        -11    1    3    3    0    0 -0.48097004881E+01 -0.16787104247E+01  0.82182343392E+01  0.96690570063E+01  0.51100000000E-03 0.  1.
         12    1    3    3    0    0 -0.12023175485E+02 -0.42612732834E+01  0.85408961130E+01  0.15351290016E+02  0.00000000000E+00 0. -1.
</event>
<event>
 7    1  0.6136531E-013  0.5052886E+02  0.7816164E-02  0.1300439E+00
        -11   -1    0    0    0    0  0.00000000000E+00  0.00000000000E+00  0.45593999997E+02  0.45594000000E+02  0.51100000000E-03 0.  1.
         11   -1    0    0    0    0 -0.00000000000E+00 -0.00000000000E+00 -0.45593999997E+02  0.45594000000E+02  0.51100000000E-03 0. -1.
    9900012    2    1    2    0    0 -0.14329983285E+02 -0.46018850463E+00  0.38047415452E+02  0.50528855679E+02  0.29999987321E+02 0.  0.
         12    1    1    2    0    0  0.14329983285E+02  0.46018850463E+00 -0.38047415452E+02  0.40659144321E+02  0.00000000000E+00 0. -1.
         11    1    3    3    0    0 -0.68685963089E+01 -0.28949974812E+01 -0.22453462209E+01  0.77846133868E+01  0.51100000000E-03 0. -1.
        -11    1    3    3    0    0  0.12021164760E+01  0.44959777409E+01  0.20789591281E+02  0.21304131190E+02  0.51100000000E-03 0.  1.
         12    1    3    3    0    0 -0.86635034520E+01 -0.20611687644E+01  0.19503170391E+02  0.21440111101E+02  0.00000000000E+00 0. -1.
</event>
<event>
 7    1  0.6136531E-013  0.5052885E+02  0.7816164E-02  0.1300439E+00
        -11   -1    0    0    0    0  0.00000000000E+00  0.00000000000E+00  0.45593999997E+02  0.45594000000E+02  0.51100000000E-03 0.  1.
         11   -1    0    0    0    0 -0.00000000000E+00 -0.00000000000E+00 -0.45593999997E+02  0.45594000000E+02  0.51100000000E-03 0. -1.
    9900012    2    1    2    0    0  0.10649086095E+02  0.34231390611E+02  0.19182679597E+02  0.50528851776E+02  0.29999975458E+02 0.  0.
         12    1    1    2    0    0 -0.10649086095E+02 -0.34231390611E+02 -0.19182679597E+02  0.40659148224E+02  0.00000000000E+00 0. -1.
         11    1    3    3    0    0  0.10621023467E+02  0.29479446596E+02  0.23241282634E+02  0.39012832886E+02  0.51100000000E-03 0. -1.
        -11    1    3    3    0    0  0.27955681347E+01  0.64830354942E+01 -0.11684811871E+01  0.71561371536E+01  0.51100000000E-03 0.  1.
         12    1    3    3    0    0 -0.27675055072E+01 -0.17310914791E+01 -0.28901218502E+01  0.43598817358E+01  0.00000000000E+00 0. -1.
</event>
<event>
 7    1  0.6136531E-013  0.5052886E+02  0.7816164E-02  0.1300439E+00
        -11   -1    0    0    0    0  0.00000000000E+00  0.00000000000E+00  0.45593999997E+02  0.45594000000E+02  0.51100000000E-03 0. -1.
         11   -1    0    0    0    0 -0.00000000000E+00 -0.00000000000E+00 -0.45593999997E+02  0.45594000000E+02  0.51100000000E-03 0.  1.
    9900012    2    1    2    0    0  0.16904184498E+02 -0.36535776870E+02 -0.57053712836E+01  0.50528859496E+02  0.29999998925E+02 0.  0.
         12    1    1    2    0    0 -0.16904184498E+02  0.36535776870E+02  0.57053712836E+01  0.40659140504E+02  0.00000000000E+00 0. -1.
         11    1    3    3    0    0  0.61851819558E+01 -0.12289803645E+02  0.89266687538E+01  0.16400645255E+02  0.51100000000E-03 0. -1.
        -11    1    3    3    0    0  0.97227054960E+01 -0.14969658087E+02 -0.16841014344E+02  0.24540607772E+02  0.51100000000E-03 0.  1.
        -12    1    3    3    0    0  0.99629704598E+00 -0.92763151372E+01  0.22089743070E+01  0.95876064697E+01  0.00000000000E+00 0.  1.
</event>
<event>
 7    1  0.6136531E-013  0.5052886E+02  0.7816164E-02  0.1300439E+00
        -11   -1    0    0    0    0  0.00000000000E+00  0.00000000000E+00  0.45593999997E+02  0.45594000000E+02  0.51100000000E-03 0. -1.
         11   -1    0    0    0    0 -0.00000000000E+00 -0.00000000000E+00 -0.45593999997E+02  0.45594000000E+02  0.51100000000E-03 0.  1.
    9900012    2    1    2    0    0 -0.29862220597E+02 -0.71005273868E+01 -0.26664512317E+02  0.50528856806E+02  0.29999990747E+02 0.  0.
         12    1    1    2    0    0  0.29862220597E+02  0.71005273868E+01  0.26664512317E+02  0.40659143194E+02  0.00000000000E+00 0. -1.
         11    1    3    3    0    0 -0.88285434268E+01  0.11406600285E+02 -0.90578588532E+01  0.17032278660E+02  0.51100000000E-03 0. -1.
        -11    1    3    3    0    0 -0.12821167387E+02 -0.78995052370E+01 -0.99608094632E+01  0.18055532160E+02  0.51100000000E-03 0.  1.
         12    1    3    3    0    0 -0.82125097835E+01 -0.10607622434E+02 -0.76458440006E+01  0.15441045986E+02  0.00000000000E+00 0. -1.
</event>
<event>
 7    1  0.6136531E-013  0.5052883E+02  0.7816164E-02  0.1300439E+00
        -11   -1    0    0    0    0  0.00000000000E+00  0.00000000000E+00  0.45593999997E+02  0.45594000000E+02  0.51100000000E-03 0. -1.
         11   -1    0    0    0    0 -0.00000000000E+00 -0.00000000000E+00 -0.45593999997E+02  0.45594000000E+02  0.51100000000E-03 0.  1.
    9900012    2    1    2    0    0  0.25214365896E+02 -0.10497102457E+02 -0.30120003320E+02  0.50528831200E+02  0.29999912915E+02 0.  0.
         12    1    1    2    0    0 -0.25214365896E+02  0.10497102457E+02  0.30120003320E+02  0.40659168800E+02  0.00000000000E+00 0. -1.
         11    1    3    3    0    0  0.17607429653E+02 -0.90516572518E+01 -0.13985267686E+02  0.24239261344E+02  0.51100000000E-03 0. -1.
        -11    1    3    3    0    0 -0.14991593205E+01 -0.48048823085E+01 -0.15795022012E+02  0.16577608190E+02  0.51100000000E-03 0.  1.
        -12    1    3    3    0    0  0.91060955632E+01  0.33594371037E+01 -0.33971362189E+00  0.97119616662E+01  0.00000000000E+00 0.  1.
</event>
<event>
 7    1  0.6136531E-013  0.5052884E+02  0.7816164E-02  0.1300439E+00
        -11   -1    0    0    0    0  0.00000000000E+00  0.00000000000E+00  0.45593999997E+02  0.45594000000E+02  0.51100000000E-03 0.  1.
         11   -1    0    0    0    0 -0.00000000000E+00 -0.00000000000E+00 -0.45593999997E+02  0.45594000000E+02  0.51100000000E-03 0. -1.
    9900012    2    1    2    0    0 -0.56124671500E+01  0.32454483164E+02  0.23840603257E+02  0.50528835859E+02  0.29999927078E+02 0.  0.
         12    1    1    2    0    0  0.56124671500E+01 -0.32454483164E+02 -0.23840603257E+02  0.40659164141E+02  0.00000000000E+00 0. -1.
         11    1    3    3    0    0 -0.10829958574E+01 -0.15157605129E+01 -0.50921613798E+01  0.54222244272E+01  0.51100000000E-03 0. -1.
        -11    1    3    3    0    0 -0.41214378483E+01  0.15854348431E+02  0.15479414518E+02  0.22537943299E+02  0.51100000000E-03 0.  1.
         12    1    3    3    0    0 -0.40803344435E+00  0.18115895247E+02  0.13453350119E+02  0.22568668133E+02  0.00000000000E+00 0. -1.
</event>
<event>
 7    1  0.6136531E-013  0.5052886E+02  0.7816164E-02  0.1300439E+00
        -11   -1    0    0    0    0  0.00000000000E+00  0.00000000000E+00  0.45593999997E+02  0.45594000000E+02  0.51100000000E-03 0.  1.
         11   -1    0    0    0    0 -0.00000000000E+00 -0.00000000000E+00 -0.45593999997E+02  0.45594000000E+02  0.51100000000E-03 0. -1.
    9900012    2    1    2    0    0 -0.12849249028E+02 -0.38221054104E+02 -0.52166732952E+01  0.50528857637E+02  0.29999993273E+02 0.  0.
         12    1    1    2    0    0  0.12849249028E+02  0.38221054104E+02  0.52166732952E+01  0.40659142363E+02  0.00000000000E+00 0. -1.
         11    1    3    3    0    0 -0.35940148962E+01  0.31422129152E+01 -0.11719474121E+01  0.49156796149E+01  0.51100000000E-03 0. -1.
        -11    1    3    3    0    0 -0.12828385423E+02 -0.37354926546E+02 -0.11503653592E+01  0.39513052913E+02  0.51100000000E-03 0.  1.
         12    1    3    3    0    0  0.35731512911E+01 -0.40083404738E+01 -0.28943605239E+01  0.61001251090E+01  0.00000000000E+00 0. -1.
</event>
<event>
 7    1  0.6136531E-013  0.5052892E+02  0.7816164E-02  0.1300439E+00
        -11   -1    0    0    0    0  0.00000000000E+00  0.00000000000E+00  0.45593999997E+02  0.45594000000E+02  0.51100000000E-03 0.  1.
         11   -1    0    0    0    0 -0.00000000000E+00 -0.00000000000E+00 -0.45593999997E+02  0.45594000000E+02  0.51100000000E-03 0. -1.
    9900012    2    1    2    0    0  0.37323376663E+02 -0.22345882133E+01  0.15972886357E+02  0.50528918252E+02  0.30000177520E+02 0.  0.
         12    1    1    2    0    0 -0.37323376663E+02  0.22345882133E+01 -0.15972886357E+02  0.40659081748E+02  0.00000000000E+00 0. -1.
         11    1    3    3    0    0  0.11461329957E+02  0.31050774314E+01  0.19156262243E+02  0.22538100489E+02  0.51100000000E-03 0. -1.
        -11    1    3    3    0    0  0.20944521329E+02 -0.22750426703E+01  0.59033512349E+00  0.21075988438E+02  0.51100000000E-03 0.  1.
         12    1    3    3    0    0  0.49175253774E+01 -0.30646229743E+01 -0.37737110103E+01  0.69148293256E+01  0.00000000000E+00 0. -1.
</event>
<event>
 7    1  0.6136531E-013  0.5052886E+02  0.7816164E-02  0.1300439E+00
        -11   -1    0    0    0    0  0.00000000000E+00  0.00000000000E+00  0.45593999997E+02  0.45594000000E+02  0.51100000000E-03 0.  1.
         11   -1    0    0    0    0 -0.00000000000E+00 -0.00000000000E+00 -0.45593999997E+02  0.45594000000E+02  0.51100000000E-03 0. -1.
    9900012    2    1    2    0    0 -0.38839017339E+01  0.21267236494E+01  0.40417300691E+02  0.50528857839E+02  0.29999993886E+02 0.  0.
         12    1    1    2    0    0  0.38839017339E+01 -0.21267236494E+01 -0.40417300691E+02  0.40659142161E+02  0.00000000000E+00 0. -1.
         11    1    3    3    0    0 -0.92419945394E+01 -0.40538122275E+01  0.14434179796E+01  0.10194670783E+02  0.51100000000E-03 0. -1.
        -11    1    3    3    0    0 -0.80341554736E+00  0.22973562496E+01  0.17276373222E+02  0.17446959455E+02  0.51100000000E-03 0.  1.
         12    1    3    3    0    0  0.61615083528E+01  0.38831796273E+01  0.21697509490E+02  0.22887227601E+02  0.00000000000E+00 0. -1.
</event>
<event>
 7    1  0.6136531E-013  0.5052885E+02  0.7816164E-02  0.1300439E+00
        -11   -1    0    0    0    0  0.00000000000E+00  0.00000000000E+00  0.45593999997E+02  0.45594000000E+02  0.51100000000E-03 0.  1.
         11   -1    0    0    0    0 -0.00000000000E+00 -0.00000000000E+00 -0.45593999997E+02  0.45594000000E+02  0.51100000000E-03 0. -1.
    9900012    2    1    2    0    0 -0.52959383041E+01  0.35506278256E+02 -0.19089886781E+02  0.50528849302E+02  0.29999967940E+02 0.  0.
         12    1    1    2    0    0  0.52959383041E+01 -0.35506278256E+02  0.19089886781E+02  0.40659150698E+02  0.00000000000E+00 0. -1.
         11    1    3    3    0    0  0.60092353804E+00  0.99299533597E+00  0.18830270394E+01  0.22119990796E+01  0.51100000000E-03 0. -1.
        -11    1    3    3    0    0 -0.93639565611E+01  0.34231227386E+02 -0.10095674502E+02  0.36896927443E+02  0.51100000000E-03 0.  1.
        -12    1    3    3    0    0  0.34670947189E+01  0.28205553477E+00 -0.10877239318E+02  0.11419922780E+02  0.00000000000E+00 0.  1.
</event>
<event>
 7    1  0.6136531E-013  0.5052891E+02  0.7816164E-02  0.1300439E+00
        -11   -1    0    0    0    0  0.00000000000E+00  0.00000000000E+00  0.45593999997E+02  0.45594000000E+02  0.51100000000E-03 0. -1.
         11   -1    0    0    0    0 -0.00000000000E+00 -0.00000000000E+00 -0.45593999997E+02  0.45594000000E+02  0.51100000000E-03 0.  1.
    9900012    2    1    2    0    0  0.15827731392E+01  0.15540921353E+02 -0.37538466437E+02  0.50528906678E+02  0.30000142340E+02 0.  0.
         12    1    1    2    0    0 -0.15827731392E+01 -0.15540921353E+02  0.37538466437E+02  0.40659093322E+02  0.00000000000E+00 0. -1.
         11    1    3    3    0    0  0.13517319470E+02  0.60673292276E+01 -0.82281049223E+01  0.16947923781E+02  0.51100000000E-03 0. -1.
        -11    1    3    3    0    0 -0.98203212979E+01  0.83769551937E+01 -0.18803359126E+02  0.22807419920E+02  0.51100000000E-03 0.  1.
         12    1    3    3    0    0 -0.21142250327E+01  0.10966369312E+01 -0.10507002388E+02  0.10773562978E+02  0.00000000000E+00 0. -1.
</event>
<event>
 7    1  0.6136531E-013  0.5052886E+02  0.7816164E-02  0.1300439E+00
        -11   -1    0    0    0    0  0.00000000000E+00  0.00000000000E+00  0.45593999997E+02  0.45594000000E+02  0.51100000000E-03 0. -1.
         11   -1    0    0    0    0 -0.00000000000E+00 -0.00000000000E+00 -0.45593999997E+02  0.45594000000E+02  0.51100000000E-03 0.  1.
    9900012    2    1    2    0    0  0.13268403281E+02  0.20692308331E+02 -0.32387396916E+02  0.50528860453E+02  0.30000001833E+02 0.  0.
         12    1    1    2    0    0 -0.13268403281E+02 -0.20692308331E+02  0.32387396916E+02  0.40659139547E+02  0.00000000000E+00 0. -1.
         11    1    3    3    0    0 -0.79586015217E+01  0.64695097445E+01 -0.10213395099E+02  0.14474368181E+02  0.51100000000E-03 0. -1.
        -11    1    3    3    0    0  0.14558574555E+02  0.23480616128E+01 -0.10319266386E+02  0.17998687325E+02  0.51100000000E-03 0.  1.
         12    1    3    3    0    0  0.66684302480E+01  0.11874736974E+02 -0.11854735431E+02  0.18055804948E+02  0.00000000000E+00 0. -1.
</event>
<event>
 7    1  0.6136531E-013  0.5052889E+02  0.7816164E-02  0.1300439E+00
        -11   -1    0    0    0    0  0.00000000000E+00  0.00000000000E+00  0.45593999997E+02  0.45594000000E+02  0.51100000000E-03 0. -1.
         11   -1    0    0    0    0 -0.00000000000E+00 -0.00000000000E+00 -0.45593999997E+02  0.45594000000E+02  0.51100000000E-03 0.  1.
    9900012    2    1    2    0    0  0.17705544830E+02  0.13101866214E+01 -0.36578141550E+02  0.50528888524E+02  0.30000087158E+02 0.  0.
         12    1    1    2    0    0 -0.17705544830E+02 -0.13101866214E+01  0.36578141550E+02  0.40659111476E+02  0.00000000000E+00 0. -1.
         11    1    3    3    0    0 -0.16683690070E+01 -0.47232147727E+01 -0.42828640625E+01  0.65905339519E+01  0.51100000000E-03 0. -1.
        -11    1    3    3    0    0  0.20252685258E+02 -0.19741264197E+01 -0.16462505360E+02  0.26174081039E+02  0.51100000000E-03 0.  1.
        -12    1    3    3    0    0 -0.87877142066E+00  0.80075278137E+01 -0.15832772128E+02  0.17764273533E+02  0.00000000000E+00 0.  1.
</event>
<event>
 7    1  0.6136531E-013  0.5052886E+02  0.7816164E-02  0.1300439E+00
        -11   -1    0    0    0    0  0.00000000000E+00  0.00000000000E+00  0.45593999997E+02  0.45594000000E+02  0.51100000000E-03 0. -1.
         11   -1    0    0    0    0 -0.00000000000E+00 -0.00000000000E+00 -0.45593999997E+02  0.45594000000E+02  0.51100000000E-03 0.  1.
    9900012    2    1    2    0    0  0.18590425261E+02  0.26751715024E+02 -0.24329141519E+02  0.50528864554E+02  0.30000014300E+02 0.  0.
         12    1    1    2    0    0 -0.18590425261E+02 -0.26751715024E+02  0.24329141519E+02  0.40659135446E+02  0.00000000000E+00 0. -1.
         11    1    3    3    0    0  0.43743026531E+01 -0.17595724941E+01  0.41794621855E+01  0.63006764307E+01  0.51100000000E-03 0. -1.
        -11    1    3    3    0    0  0.13315807485E+02  0.17194343442E+02 -0.22844759230E+02  0.31541071636E+02  0.51100000000E-03 0.  1.
         12    1    3    3    0    0  0.90031512258E+00  0.11316944077E+02 -0.56638444743E+01  0.12687116488E+02  0.00000000000E+00 0. -1.
</event>
<event>
 7    1  0.6136531E-013  0.5052888E+02  0.7816164E-02  0.1300439E+00
        -11   -1    0    0    0    0  0.00000000000E+00  0.00000000000E+00  0.45593999997E+02  0.45594000000E+02  0.51100000000E-03 0.  1.
         11   -1    0    0    0    0 -0.00000000000E+00 -0.00000000000E+00 -0.45593999997E+02  0.45594000000E+02  0.51100000000E-03 0. -1.
    9900012    2    1    2    0    0  0.14206241626E+02  0.91091260869E+01  0.36991497155E+02  0.50528876289E+02  0.30000049969E+02 0.  0.
         12    1    1    2    0    0 -0.14206241626E+02 -0.91091260869E+01 -0.36991497155E+02  0.40659123711E+02  0.00000000000E+00 0. -1.
         11    1    3    3    0    0  0.34709959592E+01 -0.77796838447E+01  0.61501459144E+01  0.10506930508E+02  0.51100000000E-03 0. -1.
        -11    1    3    3    0    0 -0.21983565010E+01  0.99540818627E+01  0.84043017334E+01  0.13211691978E+02  0.51100000000E-03 0.  1.
         12    1    3    3    0    0  0.12933602168E+02  0.69347280690E+01  0.22437049507E+02  0.26810253803E+02  0.00000000000E+00 0. -1.
</event>
<event>
 7    1  0.6136531E-013  0.5052885E+02  0.7816164E-02  0.1300439E+00
        -11   -1    0    0    0    0  0.00000000000E+00  0.00000000000E+00  0.45593999997E+02  0.45594000000E+02  0.51100000000E-03 0. -1.
         11   -1    0    0    0    0 -0.00000000000E+00 -0.00000000000E+00 -0.45593999997E+02  0.45594000000E+02  0.51100000000E-03 0.  1.
    9900012    2    1    2    0    0  0.60620749971E+01 -0.23623888346E+02 -0.32531978803E+02  0.50528849754E+02  0.29999969312E+02 0.  0.
         12    1    1    2    0    0 -0.60620749971E+01  0.23623888346E+02  0.32531978803E+02  0.40659150246E+02  0.00000000000E+00 0. -1.
         11    1    3    3    0    0  0.16365434329E+01 -0.67557826536E+01 -0.19612374660E+02  0.20807789737E+02  0.51100000000E-03 0. -1.
        -11    1    3    3    0    0 -0.63592157040E+01 -0.67383447347E+01  0.11094307702E+01  0.93314388509E+01  0.51100000000E-03 0.  1.
        -12    1    3    3    0    0  0.10784747268E+02 -0.10129760958E+02 -0.14029034914E+02  0.20389621167E+02  0.00000000000E+00 0.  1.
</event>
<event>
 7    1  0.6136531E-013  0.5052886E+02  0.7816164E-02  0.1300439E+00
        -11   -1    0    0    0    0  0.00000000000E+00  0.00000000000E+00  0.45593999997E+02  0.45594000000E+02  0.51100000000E-03 0. -1.
         11   -1    0    0    0    0 -0.00000000000E+00 -0.00000000000E+00 -0.45593999997E+02  0.45594000000E+02  0.51100000000E-03 0.  1.
    9900012    2    1    2    0    0  0.38995117184E+02 -0.10435108821E+02 -0.48636577446E+01  0.50528858015E+02  0.29999994422E+02 0.  0.
         12    1    1    2    0    0 -0.38995117184E+02  0.10435108821E+02  0.48636577446E+01  0.40659141985E+02  0.00000000000E+00 0. -1.
         11    1    3    3    0    0 -0.33479471712E+01 -0.40003673108E+01 -0.13389142706E+01  0.53855715173E+01  0.51100000000E-03 0. -1.
        -11    1    3    3    0    0  0.35466311226E+02 -0.90283809754E+01 -0.65794641917E+01  0.37184139688E+02  0.51100000000E-03 0.  1.
         12    1    3    3    0    0  0.68767531290E+01  0.25936394649E+01  0.30547207177E+01  0.79591468095E+01  0.00000000000E+00 0. -1.
</event>
<event>
 7    1  0.6136531E-013  0.5052885E+02  0.7816164E-02  0.1300439E+00
        -11   -1    0    0    0    0  0.00000000000E+00  0.00000000000E+00  0.45593999997E+02  0.45594000000E+02  0.51100000000E-03 0.  1.
         11   -1    0    0    0    0 -0.00000000000E+00 -0.00000000000E+00 -0.45593999997E+02  0.45594000000E+02  0.51100000000E-03 0. -1.
    9900012    2    1    2    0    0 -0.27224713683E+02 -0.30194570116E+02 -0.51864912032E+00  0.50528854700E+02  0.29999984346E+02 0.  0.
         12    1    1    2    0    0  0.27224713683E+02  0.30194570116E+02  0.51864912032E+00  0.40659145300E+02  0.00000000000E+00 0. -1.
         11    1    3    3    0    0 -0.12368337520E+02 -0.17835492913E+02  0.85177530837E+01  0.23315932285E+02  0.51100000000E-03 0. -1.
        -11    1    3    3    0    0 -0.16483179583E+02 -0.12077585443E+02 -0.12088960655E+02  0.23742498800E+02  0.51100000000E-03 0.  1.
         12    1    3    3    0    0  0.16268034199E+01 -0.28149176050E+00  0.30525584505E+01  0.34704236157E+01  0.00000000000E+00 0. -1.
</event>
<event>
 7    1  0.6136531E-013  0.5052885E+02  0.7816164E-02  0.1300439E+00
        -11   -1    0    0    0    0  0.00000000000E+00  0.00000000000E+00  0.45593999997E+02  0.45594000000E+02  0.51100000000E-03 0.  1.
         11   -1    0    0    0    0 -0.00000000000E+00 -0.00000000000E+00 -0.45593999997E+02  0.45594000000E+02  0.51100000000E-03 0. -1.
    9900012    2    1    2    0    0  0.13227874963E+02  0.20543307549E+02  0.32498645200E+02  0.50528854646E+02  0.29999984183E+02 0.  0.
         12    1    1    2    0    0 -0.13227874963E+02 -0.20543307549E+02 -0.32498645200E+02  0.40659145354E+02  0.00000000000E+00 0. -1.
         11    1    3    3    0    0 -0.85100091452E+01  0.30716389806E+00  0.68574543061E+01  0.10933402267E+02  0.51100000000E-03 0. -1.
        -11    1    3    3    0    0  0.15184963279E+02  0.11069504492E+02  0.17657775965E+02  0.25785928174E+02  0.51100000000E-03 0.  1.
         12    1    3    3    0    0  0.65529208287E+01  0.91666391590E+01  0.79834149289E+01  0.13809524206E+02  0.00000000000E+00 0. -1.
</event>
<event>
 7    1  0.6136531E-013  0.5052887E+02  0.7816164E-02  0.1300439E+00
        -11   -1    0    0    0    0  0.00000000000E+00  0.00000000000E+00  0.45593999997E+02  0.45594000000E+02  0.51100000000E-03 0. -1.
         11   -1    0    0    0    0 -0.00000000000E+00 -0.00000000000E+00 -0.45593999997E+02  0.45594000000E+02  0.51100000000E-03 0.  1.
    9900012    2    1    2    0    0 -0.21250336153E+02  0.22925295010E+02 -0.26000361244E+02  0.50528871594E+02  0.30000035698E+02 0.  0.
         12    1    1    2    0    0  0.21250336153E+02 -0.22925295010E+02  0.26000361244E+02  0.40659128406E+02  0.00000000000E+00 0. -1.
         11    1    3    3    0    0  0.61208030030E+00  0.43298122246E+01  0.29157466810E+01  0.52558058529E+01  0.51100000000E-03 0. -1.
        -11    1    3    3    0    0 -0.21160718318E+02  0.12964660765E+02 -0.30558313569E+02  0.39365834894E+02  0.51100000000E-03 0.  1.
        -12    1    3    3    0    0 -0.70169813462E+00  0.56308220209E+01  0.16422056438E+01  0.59072308470E+01  0.00000000000E+00 0.  1.
</event>
<event>
 7    1  0.6136531E-013  0.5052887E+02  0.7816164E-02  0.1300439E+00
        -11   -1    0    0    0    0  0.00000000000E+00  0.00000000000E+00  0.45593999997E+02  0.45594000000E+02  0.51100000000E-03 0. -1.
         11   -1    0    0    0    0 -0.00000000000E+00 -0.00000000000E+00 -0.45593999997E+02  0.45594000000E+02  0.51100000000E-03 0.  1.
    9900012    2    1    2    0    0  0.51601156576E+01  0.38874891951E+02  0.10736908142E+02  0.50528865550E+02  0.30000017325E+02 0.  0.
         12    1    1    2    0    0 -0.51601156576E+01 -0.38874891951E+02 -0.10736908142E+02  0.40659134450E+02  0.00000000000E+00 0. -1.
         11    1    3    3    0    0 -0.10822655753E+02  0.92092359802E+01  0.13389893622E+01  0.14273499839E+02  0.51100000000E-03 0. -1.
        -11    1    3    3    0    0  0.14758717610E+02  0.18258373598E+02  0.52619074406E+01  0.24059834208E+02  0.51100000000E-03 0.  1.
         12    1    3    3    0    0  0.12240538009E+01  0.11407282373E+02  0.41360113388E+01  0.12195531503E+02  0.00000000000E+00 0. -1.
</event>
<event>
 7    1  0.6136531E-013  0.5052886E+02  0.7816164E-02  0.1300439E+00
        -11   -1    0    0    0    0  0.00000000000E+00  0.00000000000E+00  0.45593999997E+02  0.45594000000E+02  0.51100000000E-03 0. -1.
         11   -1    0    0    0    0 -0.00000000000E+00 -0.00000000000E+00 -0.45593999997E+02  0.45594000000E+02  0.51100000000E-03 0.  1.
    9900012    2    1    2    0    0  0.19188697958E+02 -0.35423337299E+02 -0.54905913365E+01  0.50528861446E+02  0.30000004851E+02 0.  0.
         12    1    1    2    0    0 -0.19188697958E+02  0.35423337299E+02  0.54905913365E+01  0.40659138554E+02  0.00000000000E+00 0. -1.
         11    1    3    3    0    0  0.16487149382E+02 -0.84528536468E+01  0.45025102820E+01  0.19066972193E+02  0.51100000000E-03 0. -1.
        -11    1    3    3    0    0 -0.34757054706E+01 -0.18680655577E+02 -0.36977391747E+01  0.19357703804E+02  0.51100000000E-03 0.  1.
         12    1    3    3    0    0  0.61772540466E+01 -0.82898280757E+01 -0.62953624438E+01  0.12104185449E+02  0.00000000000E+00 0. -1.
</event>
<event>
 7    1  0.6136531E-013  0.5052886E+02  0.7816164E-02  0.1300439E+00
        -11   -1    0    0    0    0  0.00000000000E+00  0.00000000000E+00  0.45593999997E+02  0.45594000000E+02  0.51100000000E-03 0. -1.
         11   -1    0    0    0    0 -0.00000000000E+00 -0.00000000000E+00 -0.45593999997E+02  0.45594000000E+02  0.51100000000E-03 0.  1.
    9900012    2    1    2    0    0  0.40293089608E+02 -0.52302507398E+01 -0.15090105191E+01  0.50528859506E+02  0.29999998954E+02 0.  0.
         12    1    1    2    0    0 -0.40293089608E+02  0.52302507398E+01  0.15090105191E+01  0.40659140494E+02  0.00000000000E+00 0. -1.
         11    1    3    3    0    0  0.19697656622E+02 -0.49364635690E+00 -0.15506805956E+02  0.25073938549E+02  0.51100000000E-03 0. -1.
        -11    1    3    3    0    0  0.18504670441E+02 -0.35063438943E+01  0.12471737098E+02  0.22588968594E+02  0.51100000000E-03 0.  1.
         12    1    3    3    0    0  0.20907625455E+01 -0.12302604886E+01  0.15260583390E+01  0.28659523628E+01  0.00000000000E+00 0. -1.
</event>
<event>
 7    1  0.6136531E-013  0.5052899E+02  0.7816164E-02  0.1300438E+00
        -11   -1    0    0    0    0  0.00000000000E+00  0.00000000000E+00  0.45593999997E+02  0.45594000000E+02  0.51100000000E-03 0.  1.
         11   -1    0    0    0    0 -0.00000000000E+00 -0.00000000000E+00 -0.45593999997E+02  0.45594000000E+02  0.51100000000E-03 0. -1.
    9900012    2    1    2    0    0 -0.12692979044E+02 -0.36748730152E+02  0.11898503606E+02  0.50528987803E+02  0.30000388923E+02 0.  0.
         12    1    1    2    0    0  0.12692979044E+02  0.36748730152E+02 -0.11898503606E+02  0.40659012197E+02  0.00000000000E+00 0. -1.
         11    1    3    3    0    0 -0.53520662334E+01 -0.14476651977E+00 -0.39420898467E+01  0.66487324305E+01  0.51100000000E-03 0. -1.
        -11    1    3    3    0    0 -0.12439598448E+02 -0.22262283615E+02  0.11988275343E+02  0.28179276557E+02  0.51100000000E-03 0.  1.
        -12    1    3    3    0    0  0.50986856374E+01 -0.14341680017E+02  0.38523181096E+01  0.15700978816E+02  0.00000000000E+00 0.  1.
</event>
<event>
 7    1  0.6136531E-013  0.5052886E+02  0.7816164E-02  0.1300439E+00
        -11   -1    0    0    0    0  0.00000000000E+00  0.00000000000E+00  0.45593999997E+02  0.45594000000E+02  0.51100000000E-03 0. -1.
         11   -1    0    0    0    0 -0.00000000000E+00 -0.00000000000E+00 -0.45593999997E+02  0.45594000000E+02  0.51100000000E-03 0.  1.
    9900012    2    1    2    0    0  0.35138739677E+02 -0.19857844103E+02 -0.49092600511E+01  0.50528857944E+02  0.29999994205E+02 0.  0.
         12    1    1    2    0    0 -0.35138739677E+02  0.19857844103E+02  0.49092600511E+01  0.40659142056E+02  0.00000000000E+00 0. -1.
         11    1    3    3    0    0  0.44436628723E+01 -0.68984435741E+01 -0.12736753268E+02  0.15151222641E+02  0.51100000000E-03 0. -1.
        -11    1    3    3    0    0  0.68555330141E+01  0.85194433965E+00  0.22673539422E+01  0.72708346306E+01  0.51100000000E-03 0.  1.
         12    1    3    3    0    0  0.23839543791E+02 -0.13811344869E+02  0.55601392745E+01  0.28106800671E+02  0.00000000000E+00 0. -1.
</event>
<event>
 7    1  0.6136531E-013  0.5052886E+02  0.7816164E-02  0.1300439E+00
        -11   -1    0    0    0    0  0.00000000000E+00  0.00000000000E+00  0.45593999997E+02  0.45594000000E+02  0.51100000000E-03 0.  1.
         11   -1    0    0    0    0 -0.00000000000E+00 -0.00000000000E+00 -0.45593999997E+02  0.45594000000E+02  0.51100000000E-03 0. -1.
    9900012    2    1    2    0    0  0.23375799564E+02 -0.22311366915E+02  0.24676713769E+02  0.50528864479E+02  0.30000014070E+02 0.  0.
         12    1    1    2    0    0 -0.23375799564E+02  0.22311366915E+02 -0.24676713769E+02  0.40659135521E+02  0.00000000000E+00 0. -1.
         11    1    3    3    0    0  0.45722781781E+00  0.21312047547E+01  0.54583696134E+01  0.58774901175E+01  0.51100000000E-03 0. -1.
        -11    1    3    3    0    0  0.12992944193E+02 -0.26941114347E+02  0.12557885159E+02  0.32439801494E+02  0.51100000000E-03 0.  1.
        -12    1    3    3    0    0  0.99256275535E+01  0.24985426771E+01  0.66604589965E+01  0.12211572867E+02  0.00000000000E+00 0.  1.
</event>
<event>
 7    1  0.6136531E-013  0.5052886E+02  0.7816164E-02  0.1300439E+00
        -11   -1    0    0    0    0  0.00000000000E+00  0.00000000000E+00  0.45593999997E+02  0.45594000000E+02  0.51100000000E-03 0. -1.
         11   -1    0    0    0    0 -0.00000000000E+00 -0.00000000000E+00 -0.45593999997E+02  0.45594000000E+02  0.51100000000E-03 0.  1.
    9900012    2    1    2    0    0 -0.28049957572E+02 -0.29419191618E+02  0.93630305208E+00  0.50528860577E+02  0.30000002209E+02 0.  0.
         12    1    1    2    0    0  0.28049957572E+02  0.29419191618E+02 -0.93630305208E+00  0.40659139423E+02  0.00000000000E+00 0. -1.
         11    1    3    3    0    0 -0.32068809025E+02 -0.27350396812E+02 -0.23779612667E+01  0.42215014131E+02  0.51100000000E-03 0.  1.
        -11    1    3    3    0    0  0.14998500984E+01  0.11651283931E+01  0.37379634436E+01  0.41927849285E+01  0.51100000000E-03 0. -1.
        -12    1    3    3    0    0  0.25190013541E+01 -0.32339231993E+01 -0.42369912482E+00  0.41210615173E+01  0.00000000000E+00 0.  1.
</event>
<event>
 7    1  0.6136531E-013  0.5052886E+02  0.7816164E-02  0.1300439E+00
        -11   -1    0    0    0    0  0.00000000000E+00  0.00000000000E+00  0.45593999997E+02  0.45594000000E+02  0.51100000000E-03 0. -1.
         11   -1    0    0    0    0 -0.00000000000E+00 -0.00000000000E+00 -0.45593999997E+02  0.45594000000E+02  0.51100000000E-03 0.  1.
    9900012    2    1    2    0    0 -0.55442283883E+01 -0.34173212606E+02 -0.21321786703E+02  0.50528861833E+02  0.30000006029E+02 0.  0.
         12    1    1    2    0    0  0.55442283883E+01  0.34173212606E+02  0.21321786703E+02  0.40659138167E+02  0.00000000000E+00 0. -1.
         11    1    3    3    0    0  0.12264170133E+02 -0.14447501848E+02 -0.10228482853E+02  0.21535135023E+02  0.51100000000E-03 0. -1.
        -11    1    3    3    0    0 -0.13052061406E+02 -0.13999097187E+02 -0.95547249404E+01  0.21392143370E+02  0.51100000000E-03 0.  1.
         12    1    3    3    0    0 -0.47563371154E+01 -0.57266135710E+01 -0.15385789098E+01  0.76015834409E+01  0.00000000000E+00 0. -1.
</event>
<event>
 7    1  0.6136531E-013  0.5052886E+02  0.7816164E-02  0.1300439E+00
        -11   -1    0    0    0    0  0.00000000000E+00  0.00000000000E+00  0.45593999997E+02  0.45594000000E+02  0.51100000000E-03 0.  1.
         11   -1    0    0    0    0 -0.00000000000E+00 -0.00000000000E+00 -0.45593999997E+02  0.45594000000E+02  0.51100000000E-03 0. -1.
    9900012    2    1    2    0    0  0.31003515822E+02 -0.19028523589E+02  0.18162126108E+02  0.50528861690E+02  0.30000005594E+02 0.  0.
         12    1    1    2    0    0 -0.31003515822E+02  0.19028523589E+02 -0.18162126108E+02  0.40659138310E+02  0.00000000000E+00 0. -1.
         11    1    3    3    0    0  0.11724679632E+02  0.27106361129E+01  0.33320022671E+01  0.12486708933E+02  0.51100000000E-03 0. -1.
        -11    1    3    3    0    0  0.18627206457E+02 -0.25292355957E+02  0.13554066181E+02  0.34210945625E+02  0.51100000000E-03 0.  1.
        -12    1    3    3    0    0  0.65162973378E+00  0.35531962554E+01  0.12760576601E+01  0.38312071324E+01  0.00000000000E+00 0.  1.
</event>
<event>
 7    1  0.6136531E-013  0.5052882E+02  0.7816164E-02  0.1300439E+00
        -11   -1    0    0    0    0  0.00000000000E+00  0.00000000000E+00  0.45593999997E+02  0.45594000000E+02  0.51100000000E-03 0.  1.
         11   -1    0    0    0    0 -0.00000000000E+00 -0.00000000000E+00 -0.45593999997E+02  0.45594000000E+02  0.51100000000E-03 0. -1.
    9900012    2    1    2    0    0  0.10352152705E+02 -0.18950584161E+02  0.34451079029E+02  0.50528824505E+02  0.29999892565E+02 0.  0.
         12    1    1    2    0    0 -0.10352152705E+02  0.18950584161E+02 -0.34451079029E+02  0.40659175495E+02  0.00000000000E+00 0. -1.
         11    1    3    3    0    0 -0.70479267214E+01  0.15355495880E+01  0.16177041320E+02  0.17712364318E+02  0.51100000000E-03 0.  1.
        -11    1    3    3    0    0  0.89978649183E+01 -0.13949866384E+02  0.10648227483E+02  0.19721690952E+02  0.51100000000E-03 0. -1.
        -12    1    3    3    0    0  0.84022145076E+01 -0.65362673649E+01  0.76258102264E+01  0.13094769235E+02  0.00000000000E+00 0.  1.
</event>
<event>
 7    1  0.6136531E-013  0.5052887E+02  0.7816164E-02  0.1300439E+00
        -11   -1    0    0    0    0  0.00000000000E+00  0.00000000000E+00  0.45593999997E+02  0.45594000000E+02  0.51100000000E-03 0.  1.
         11   -1    0    0    0    0 -0.00000000000E+00 -0.00000000000E+00 -0.45593999997E+02  0.45594000000E+02  0.51100000000E-03 0. -1.
    9900012    2    1    2    0    0  0.39131778823E+02  0.57288964287E+01  0.94365701831E+01  0.50528865418E+02  0.30000016925E+02 0.  0.
         12    1    1    2    0    0 -0.39131778823E+02 -0.57288964287E+01 -0.94365701831E+01  0.40659134582E+02  0.00000000000E+00 0. -1.
         11    1    3    3    0    0  0.19161628986E+01 -0.63354946094E+01 -0.51127158268E+01  0.83636137875E+01  0.51100000000E-03 0. -1.
        -11    1    3    3    0    0  0.78267177994E+01  0.40043545427E+01  0.11175466221E+01  0.88623516929E+01  0.51100000000E-03 0.  1.
         12    1    3    3    0    0  0.29388898125E+02  0.80600364955E+01  0.13431739388E+02  0.33302899938E+02  0.00000000000E+00 0. -1.
</event>
<event>
 7    1  0.6136531E-013  0.5052886E+02  0.7816164E-02  0.1300439E+00
        -11   -1    0    0    0    0  0.00000000000E+00  0.00000000000E+00  0.45593999997E+02  0.45594000000E+02  0.51100000000E-03 0.  1.
         11   -1    0    0    0    0 -0.00000000000E+00 -0.00000000000E+00 -0.45593999997E+02  0.45594000000E+02  0.51100000000E-03 0. -1.
    9900012    2    1    2    0    0  0.17703823130E+02 -0.28665734941E+02  0.22759970740E+02  0.50528856118E+02  0.29999988655E+02 0.  0.
         12    1    1    2    0    0 -0.17703823130E+02  0.28665734941E+02 -0.22759970740E+02  0.40659143882E+02  0.00000000000E+00 0. -1.
         11    1    3    3    0    0  0.43275364687E+01 -0.17279968548E+01 -0.50455934655E+01  0.68681554073E+01  0.51100000000E-03 0. -1.
        -11    1    3    3    0    0  0.12522078621E+02 -0.28327850221E+02  0.28301642038E+02  0.41955363107E+02  0.51100000000E-03 0.  1.
        -12    1    3    3    0    0  0.85420804077E+00  0.13901121347E+01 -0.49607783248E+00  0.17053376029E+01  0.00000000000E+00 0.  1.
</event>
<event>
 7    1  0.6136531E-013  0.5052885E+02  0.7816164E-02  0.1300439E+00
        -11   -1    0    0    0    0  0.00000000000E+00  0.00000000000E+00  0.45593999997E+02  0.45594000000E+02  0.51100000000E-03 0.  1.
         11   -1    0    0    0    0 -0.00000000000E+00 -0.00000000000E+00 -0.45593999997E+02  0.45594000000E+02  0.51100000000E-03 0. -1.
    9900012    2    1    2    0    0  0.37927779840E+02 -0.84426593366E+01  0.11973771567E+02  0.50528853602E+02  0.29999981009E+02 0.  0.
         12    1    1    2    0    0 -0.37927779840E+02  0.84426593366E+01 -0.11973771567E+02  0.40659146398E+02  0.00000000000E+00 0. -1.
         11    1    3    3    0    0  0.25921972343E+02  0.16313505772E+01 -0.18172402294E+01  0.26036749359E+02  0.51100000000E-03 0. -1.
        -11    1    3    3    0    0  0.14176855681E+02 -0.10566495224E+02  0.10646539596E+02  0.20639352314E+02  0.51100000000E-03 0.  1.
        -12    1    3    3    0    0 -0.21710481848E+01  0.49248531022E+00  0.31444722011E+01  0.38527519288E+01  0.00000000000E+00 0.  1.
</event>
<event>
 7    1  0.6136531E-013  0.5052886E+02  0.7816164E-02  0.1300439E+00
        -11   -1    0    0    0    0  0.00000000000E+00  0.00000000000E+00  0.45593999997E+02  0.45594000000E+02  0.51100000000E-03 0. -1.
         11   -1    0    0    0    0 -0.00000000000E+00 -0.00000000000E+00 -0.45593999997E+02  0.45594000000E+02  0.51100000000E-03 0.  1.
    9900012    2    1    2    0    0 -0.30234305353E+02  0.27041351326E+02  0.27959977058E+01  0.50528861976E+02  0.30000006462E+02 0.  0.
         12    1    1    2    0    0  0.30234305353E+02 -0.27041351326E+02 -0.27959977058E+01  0.40659138024E+02  0.00000000000E+00 0. -1.
         11    1    3    3    0    0 -0.24081461835E+01  0.19368147130E+01  0.67909076057E+01  0.74610217560E+01  0.51100000000E-03 0. -1.
        -11    1    3    3    0    0 -0.83044389172E+01 -0.43383161072E+00 -0.68809234460E+01  0.10793471329E+02  0.51100000000E-03 0.  1.
        -12    1    3    3    0    0 -0.19521720252E+02  0.25538368223E+02  0.28860135461E+01  0.32274368891E+02  0.00000000000E+00 0.  1.
</event>
<event>
 7    1  0.6136531E-013  0.5052887E+02  0.7816164E-02  0.1300439E+00
        -11   -1    0    0    0    0  0.00000000000E+00  0.00000000000E+00  0.45593999997E+02  0.45594000000E+02  0.51100000000E-03 0.  1.
         11   -1    0    0    0    0 -0.00000000000E+00 -0.00000000000E+00 -0.45593999997E+02  0.45594000000E+02  0.51100000000E-03 0. -1.
    9900012    2    1    2    0    0 -0.25275038975E+02  0.10305392272E+01  0.31831988232E+02  0.50528867187E+02  0.30000022302E+02 0.  0.
         12    1    1    2    0    0  0.25275038975E+02 -0.10305392272E+01 -0.31831988232E+02  0.40659132813E+02  0.00000000000E+00 0. -1.
         11    1    3    3    0    0 -0.11903647876E+02 -0.11120834102E+02  0.16652455106E+02  0.23295365316E+02  0.51100000000E-03 0. -1.
        -11    1    3    3    0    0 -0.87688653101E+01  0.81596694268E+01  0.17071179754E+02  0.20854217377E+02  0.51100000000E-03 0.  1.
         12    1    3    3    0    0 -0.46025257891E+01  0.39917039026E+01 -0.18916466283E+01  0.63792844937E+01  0.00000000000E+00 0. -1.
</event>
<event>
 7    1  0.6136531E-013  0.5052886E+02  0.7816164E-02  0.1300439E+00
        -11   -1    0    0    0    0  0.00000000000E+00  0.00000000000E+00  0.45593999997E+02  0.45594000000E+02  0.51100000000E-03 0.  1.
         11   -1    0    0    0    0 -0.00000000000E+00 -0.00000000000E+00 -0.45593999997E+02  0.45594000000E+02  0.51100000000E-03 0. -1.
    9900012    2    1    2    0    0 -0.15045415238E+02 -0.37748309602E+02 -0.13661344984E+01  0.50528859318E+02  0.29999998383E+02 0.  0.
         12    1    1    2    0    0  0.15045415238E+02  0.37748309602E+02  0.13661344984E+01  0.40659140682E+02  0.00000000000E+00 0. -1.
         11    1    3    3    0    0 -0.48161971753E+01 -0.26699278510E+02 -0.86011000729E+01  0.28460958363E+02  0.51100000000E-03 0. -1.
        -11    1    3    3    0    0 -0.12401807613E+02 -0.58856915826E+01  0.11173078135E+01  0.13772965348E+02  0.51100000000E-03 0.  1.
         12    1    3    3    0    0  0.21725895500E+01 -0.51633395092E+01  0.61176577610E+01  0.82949356068E+01  0.00000000000E+00 0. -1.
</event>
<event>
 7    1  0.6136531E-013  0.5052887E+02  0.7816164E-02  0.1300439E+00
        -11   -1    0    0    0    0  0.00000000000E+00  0.00000000000E+00  0.45593999997E+02  0.45594000000E+02  0.51100000000E-03 0.  1.
         11   -1    0    0    0    0 -0.00000000000E+00 -0.00000000000E+00 -0.45593999997E+02  0.45594000000E+02  0.51100000000E-03 0. -1.
    9900012    2    1    2    0    0  0.14496362637E+02 -0.16383293312E+02  0.34272549731E+02  0.50528874401E+02  0.30000044230E+02 0.  0.
         12    1    1    2    0    0 -0.14496362637E+02  0.16383293312E+02 -0.34272549731E+02  0.40659125599E+02  0.00000000000E+00 0. -1.
         11    1    3    3    0    0 -0.20183217297E+01 -0.12526669807E+02  0.10585167692E+02  0.16523826868E+02  0.51100000000E-03 0. -1.
        -11    1    3    3    0    0  0.16809359287E+02 -0.57633997548E+01  0.10423298290E+02  0.20601370922E+02  0.51100000000E-03 0.  1.
         12    1    3    3    0    0 -0.29467492068E+00  0.19067762500E+01  0.13264083749E+02  0.13403676611E+02  0.00000000000E+00 0. -1.
</event>
<event>
 7    1  0.6136531E-013  0.5052886E+02  0.7816164E-02  0.1300439E+00
        -11   -1    0    0    0    0  0.00000000000E+00  0.00000000000E+00  0.45593999997E+02  0.45594000000E+02  0.51100000000E-03 0. -1.
         11   -1    0    0    0    0 -0.00000000000E+00 -0.00000000000E+00 -0.45593999997E+02  0.45594000000E+02  0.51100000000E-03 0.  1.
    9900012    2    1    2    0    0  0.17011239902E+02  0.35373710572E+02 -0.10605836070E+02  0.50528862756E+02  0.30000008834E+02 0.  0.
         12    1    1    2    0    0 -0.17011239902E+02 -0.35373710572E+02  0.10605836070E+02  0.40659137244E+02  0.00000000000E+00 0. -1.
         11    1    3    3    0    0 -0.26396269795E+01  0.72084649586E+01 -0.38704129695E+01  0.85970747622E+01  0.51100000000E-03 0. -1.
        -11    1    3    3    0    0  0.11604936712E+02  0.24243657614E+02  0.48287080811E+01  0.27308348770E+02  0.51100000000E-03 0.  1.
        -12    1    3    3    0    0  0.80459301696E+01  0.39215880002E+01 -0.11564131182E+02  0.14623439224E+02  0.00000000000E+00 0.  1.
</event>
<event>
 7    1  0.6136531E-013  0.5052885E+02  0.7816164E-02  0.1300439E+00
        -11   -1    0    0    0    0  0.00000000000E+00  0.00000000000E+00  0.45593999997E+02  0.45594000000E+02  0.51100000000E-03 0. -1.
         11   -1    0    0    0    0 -0.00000000000E+00 -0.00000000000E+00 -0.45593999997E+02  0.45594000000E+02  0.51100000000E-03 0.  1.
    9900012    2    1    2    0    0 -0.21258444575E+02 -0.25502519988E+02 -0.23470544029E+02  0.50528850617E+02  0.29999971936E+02 0.  0.
         12    1    1    2    0    0  0.21258444575E+02  0.25502519988E+02  0.23470544029E+02  0.40659149383E+02  0.00000000000E+00 0. -1.
         11    1    3    3    0    0 -0.13047808965E+01 -0.18595225125E+02 -0.17345555778E+02  0.25462779820E+02  0.51100000000E-03 0. -1.
        -11    1    3    3    0    0 -0.95869862261E+01  0.22959916315E+01 -0.52673816117E+01  0.11177083330E+02  0.51100000000E-03 0.  1.
         12    1    3    3    0    0 -0.10366677453E+02 -0.92032864945E+01 -0.85760663934E+00  0.13888987467E+02  0.00000000000E+00 0. -1.
</event>
<event>
 7    1  0.6136531E-013  0.5052885E+02  0.7816164E-02  0.1300439E+00
        -11   -1    0    0    0    0  0.00000000000E+00  0.00000000000E+00  0.45593999997E+02  0.45594000000E+02  0.51100000000E-03 0. -1.
         11   -1    0    0    0    0 -0.00000000000E+00 -0.00000000000E+00 -0.45593999997E+02  0.45594000000E+02  0.51100000000E-03 0.  1.
    9900012    2    1    2    0    0  0.35861224331E+02  0.19051900407E+02  0.20406311191E+01  0.50528849800E+02  0.29999969451E+02 0.  0.
         12    1    1    2    0    0 -0.35861224331E+02 -0.19051900407E+02 -0.20406311191E+01  0.40659150200E+02  0.00000000000E+00 0. -1.
         11    1    3    3    0    0 -0.47631537100E-01 -0.25630103202E+01 -0.37915115798E+01  0.45767729882E+01  0.51100000000E-03 0. -1.
        -11    1    3    3    0    0  0.20810243455E+02  0.70332762553E+01  0.10655703860E+02  0.24414692965E+02  0.51100000000E-03 0.  1.
        -12    1    3    3    0    0  0.15098612413E+02  0.14581634472E+02 -0.48235611615E+01  0.21537383846E+02  0.00000000000E+00 0.  1.
</event>
<event>
 7    1  0.6136531E-013  0.5052884E+02  0.7816164E-02  0.1300439E+00
        -11   -1    0    0    0    0  0.00000000000E+00  0.00000000000E+00  0.45593999997E+02  0.45594000000E+02  0.51100000000E-03 0.  1.
         11   -1    0    0    0    0 -0.00000000000E+00 -0.00000000000E+00 -0.45593999997E+02  0.45594000000E+02  0.51100000000E-03 0. -1.
    9900012    2    1    2    0    0 -0.31314423963E+02  0.57530303225E+00  0.25927648195E+02  0.50528842820E+02  0.29999948234E+02 0.  0.
         12    1    1    2    0    0  0.31314423963E+02 -0.57530303225E+00 -0.25927648195E+02  0.40659157180E+02  0.00000000000E+00 0. -1.
         11    1    3    3    0    0 -0.68689742181E+01  0.74900933348E+01 -0.41138284353E+01  0.10963935864E+02  0.51100000000E-03 0. -1.
        -11    1    3    3    0    0 -0.11685054151E+02 -0.11461866981E+01  0.13466845839E+02  0.17866453805E+02  0.51100000000E-03 0.  1.
         12    1    3    3    0    0 -0.12760395594E+02 -0.57686036044E+01  0.16574630791E+02  0.21698453150E+02  0.00000000000E+00 0. -1.
</event>
<event>
 7    1  0.6136531E-013  0.5052886E+02  0.7816164E-02  0.1300439E+00
        -11   -1    0    0    0    0  0.00000000000E+00  0.00000000000E+00  0.45593999997E+02  0.45594000000E+02  0.51100000000E-03 0.  1.
         11   -1    0    0    0    0 -0.00000000000E+00 -0.00000000000E+00 -0.45593999997E+02  0.45594000000E+02  0.51100000000E-03 0. -1.
    9900012    2    1    2    0    0 -0.58227906967E+01  0.38745130915E+02  0.10866273795E+02  0.50528856289E+02  0.29999989175E+02 0.  0.
         12    1    1    2    0    0  0.58227906967E+01 -0.38745130915E+02 -0.10866273795E+02  0.40659143711E+02  0.00000000000E+00 0. -1.
         11    1    3    3    0    0 -0.13402066400E+02  0.25340428956E+02  0.54358361556E+01  0.29177063568E+02  0.51100000000E-03 0. -1.
        -11    1    3    3    0    0  0.10349492153E+01  0.74243735628E+01 -0.39263446141E+01  0.84621879540E+01  0.51100000000E-03 0.  1.
         12    1    3    3    0    0  0.65443264880E+01  0.59803283962E+01  0.93567822536E+01  0.12889604767E+02  0.00000000000E+00 0. -1.
</event>
<event>
 7    1  0.6136531E-013  0.5052900E+02  0.7816164E-02  0.1300438E+00
        -11   -1    0    0    0    0  0.00000000000E+00  0.00000000000E+00  0.45593999997E+02  0.45594000000E+02  0.51100000000E-03 0.  1.
         11   -1    0    0    0    0 -0.00000000000E+00 -0.00000000000E+00 -0.45593999997E+02  0.45594000000E+02  0.51100000000E-03 0. -1.
    9900012    2    1    2    0    0 -0.17793387101E+02 -0.35346817659E+02  0.93355433705E+01  0.50528997145E+02  0.30000417318E+02 0.  0.
         12    1    1    2    0    0  0.17793387101E+02  0.35346817659E+02 -0.93355433705E+01  0.40659002855E+02  0.00000000000E+00 0. -1.
         11    1    3    3    0    0 -0.28695695012E+01  0.19340079610E+01  0.85639515271E+01  0.92366705005E+01  0.51100000000E-03 0. -1.
        -11    1    3    3    0    0 -0.10052706140E+02 -0.16624599766E+02 -0.32334977306E+01  0.19694916246E+02  0.51100000000E-03 0.  1.
         12    1    3    3    0    0 -0.48711114604E+01 -0.20656225854E+02  0.40050895740E+01  0.21597410398E+02  0.00000000000E+00 0. -1.
</event>
<event>
 7    1  0.6136531E-013  0.5052885E+02  0.7816164E-02  0.1300439E+00
        -11   -1    0    0    0    0  0.00000000000E+00  0.00000000000E+00  0.45593999997E+02  0.45594000000E+02  0.51100000000E-03 0.  1.
         11   -1    0    0    0    0 -0.00000000000E+00 -0.00000000000E+00 -0.45593999997E+02  0.45594000000E+02  0.51100000000E-03 0. -1.
    9900012    2    1    2    0    0  0.25029694686E+02  0.31370097427E+02 -0.65267169931E+01  0.50528847729E+02  0.29999963158E+02 0.  0.
         12    1    1    2    0    0 -0.25029694686E+02 -0.31370097427E+02  0.65267169931E+01  0.40659152271E+02  0.00000000000E+00 0. -1.
         11    1    3    3    0    0  0.20216056782E+02  0.29151050050E+02 -0.13050228446E+02  0.37799221336E+02  0.51100000000E-03 0. -1.
        -11    1    3    3    0    0  0.17997386238E+01  0.56761500862E+01  0.53271255168E+01  0.79897437661E+01  0.51100000000E-03 0.  1.
         12    1    3    3    0    0  0.30138992794E+01 -0.34571027093E+01  0.11963859361E+01  0.47398826269E+01  0.00000000000E+00 0. -1.
</event>
<event>
 7    1  0.6136531E-013  0.5052885E+02  0.7816164E-02  0.1300439E+00
        -11   -1    0    0    0    0  0.00000000000E+00  0.00000000000E+00  0.45593999997E+02  0.45594000000E+02  0.51100000000E-03 0. -1.
         11   -1    0    0    0    0 -0.00000000000E+00 -0.00000000000E+00 -0.45593999997E+02  0.45594000000E+02  0.51100000000E-03 0.  1.
    9900012    2    1    2    0    0  0.36216396375E+02  0.14135177212E+02 -0.11905272407E+02  0.50528854506E+02  0.29999983757E+02 0.  0.
         12    1    1    2    0    0 -0.36216396375E+02 -0.14135177212E+02  0.11905272407E+02  0.40659145494E+02  0.00000000000E+00 0. -1.
         11    1    3    3    0    0  0.62295756198E+01 -0.56956251648E+01 -0.10771477843E+02  0.13684754057E+02  0.51100000000E-03 0. -1.
        -11    1    3    3    0    0  0.26223605298E+02  0.15873544248E+02  0.16823789730E+01  0.30699792851E+02  0.51100000000E-03 0.  1.
        -12    1    3    3    0    0  0.37632154572E+01  0.39572581281E+01 -0.28161735366E+01  0.61443075980E+01  0.00000000000E+00 0.  1.
</event>
<event>
 7    1  0.6136531E-013  0.5052886E+02  0.7816164E-02  0.1300439E+00
        -11   -1    0    0    0    0  0.00000000000E+00  0.00000000000E+00  0.45593999997E+02  0.45594000000E+02  0.51100000000E-03 0. -1.
         11   -1    0    0    0    0 -0.00000000000E+00 -0.00000000000E+00 -0.45593999997E+02  0.45594000000E+02  0.51100000000E-03 0.  1.
    9900012    2    1    2    0    0  0.27572173729E+02  0.28864369632E+02  0.77323393447E+01  0.50528859944E+02  0.30000000286E+02 0.  0.
         12    1    1    2    0    0 -0.27572173729E+02 -0.28864369632E+02 -0.77323393447E+01  0.40659140056E+02  0.00000000000E+00 0. -1.
         11    1    3    3    0    0 -0.43981124706E+01 -0.10380609620E+01  0.67435548732E+00  0.45689954530E+01  0.51100000000E-03 0. -1.
        -11    1    3    3    0    0  0.26280057058E+02  0.17372301420E+02  0.66212580366E+01  0.32191292516E+02  0.51100000000E-03 0.  1.
         12    1    3    3    0    0  0.56902291410E+01  0.12530129173E+02  0.43672582077E+00  0.13768571975E+02  0.00000000000E+00 0. -1.
</event>
<event>
 7    1  0.6136531E-013  0.5052886E+02  0.7816164E-02  0.1300439E+00
        -11   -1    0    0    0    0  0.00000000000E+00  0.00000000000E+00  0.45593999997E+02  0.45594000000E+02  0.51100000000E-03 0.  1.
         11   -1    0    0    0    0 -0.00000000000E+00 -0.00000000000E+00 -0.45593999997E+02  0.45594000000E+02  0.51100000000E-03 0. -1.
    9900012    2    1    2    0    0  0.43095228071E+01 -0.13216741581E+02  0.38208783868E+02  0.50528863149E+02  0.30000010027E+02 0.  0.
         12    1    1    2    0    0 -0.43095228071E+01  0.13216741581E+02 -0.38208783868E+02  0.40659136851E+02  0.00000000000E+00 0. -1.
         11    1    3    3    0    0 -0.15369882712E+00 -0.54541960290E+01 -0.70413357194E+00  0.55016072198E+01  0.51100000000E-03 0. -1.
        -11    1    3    3    0    0  0.53309700348E+01 -0.14042738636E+02  0.33414084188E+02  0.36634939229E+02  0.51100000000E-03 0.  1.
        -12    1    3    3    0    0 -0.86774840062E+00  0.62801930844E+01  0.54988332512E+01  0.83923166997E+01  0.00000000000E+00 0.  1.
</event>
<event>
 7    1  0.6136531E-013  0.5052885E+02  0.7816164E-02  0.1300439E+00
        -11   -1    0    0    0    0  0.00000000000E+00  0.00000000000E+00  0.45593999997E+02  0.45594000000E+02  0.51100000000E-03 0. -1.
         11   -1    0    0    0    0 -0.00000000000E+00 -0.00000000000E+00 -0.45593999997E+02  0.45594000000E+02  0.51100000000E-03 0.  1.
    9900012    2    1    2    0    0  0.40593340891E+01 -0.83734050295E+01 -0.39579969417E+02  0.50528854853E+02  0.29999984810E+02 0.  0.
         12    1    1    2    0    0 -0.40593340891E+01  0.83734050295E+01  0.39579969417E+02  0.40659145147E+02  0.00000000000E+00 0. -1.
         11    1    3    3    0    0 -0.10235115371E+02 -0.19560234008E+01 -0.86787879273E+01  0.13561156822E+02  0.51100000000E-03 0. -1.
        -11    1    3    3    0    0  0.62755310279E+01  0.35213975482E+01 -0.14440636111E+02  0.16134264840E+02  0.51100000000E-03 0.  1.
         12    1    3    3    0    0  0.80189184321E+01 -0.99387791769E+01 -0.16460545379E+02  0.20833433191E+02  0.00000000000E+00 0. -1.
</event>
<event>
 7    1  0.6196135E-013  0.5052886E+02  0.7816164E-02  0.1300439E+00
        -11   -1    0    0    0    0  0.00000000000E+00  0.00000000000E+00  0.45593999997E+02  0.45594000000E+02  0.51100000000E-03 0. -1.
         11   -1    0    0    0    0 -0.00000000000E+00 -0.00000000000E+00 -0.45593999997E+02  0.45594000000E+02  0.51100000000E-03 0.  1.
    9900012    2    1    2    0    0 -0.30341832331E+02 -0.94562196708E+01 -0.25359790646E+02  0.50528857593E+02  0.29999993139E+02 0.  0.
         12    1    1    2    0    0  0.30341832331E+02  0.94562196708E+01  0.25359790646E+02  0.40659142407E+02  0.00000000000E+00 0. -1.
         11    1    3    3    0    0  0.29940983000E+01  0.21837072814E+01 -0.29259862362E+01  0.47217155608E+01  0.51100000000E-03 0. -1.
        -11    1    3    3    0    0 -0.22209551713E+02 -0.12973865681E+02 -0.23113323830E+02  0.34580501973E+02  0.51100000000E-03 0.  1.
        -12    1    3    3    0    0 -0.11126378919E+02  0.13339387286E+01  0.67951942002E+00  0.11226640059E+02  0.00000000000E+00 0.  1.
</event>
<event>
 7    1  0.6136531E-013  0.5052886E+02  0.7816164E-02  0.1300439E+00
        -11   -1    0    0    0    0  0.00000000000E+00  0.00000000000E+00  0.45593999997E+02  0.45594000000E+02  0.51100000000E-03 0. -1.
         11   -1    0    0    0    0 -0.00000000000E+00 -0.00000000000E+00 -0.45593999997E+02  0.45594000000E+02  0.51100000000E-03 0.  1.
    9900012    2    1    2    0    0  0.27537054302E+02 -0.80330882550E+01 -0.28815717929E+02  0.50528862450E+02  0.30000007903E+02 0.  0.
         12    1    1    2    0    0 -0.27537054302E+02  0.80330882550E+01  0.28815717929E+02  0.40659137550E+02  0.00000000000E+00 0. -1.
         11    1    3    3    0    0  0.12671738050E+02 -0.16284977181E+02 -0.12159709104E+02  0.23950614872E+02  0.51100000000E-03 0. -1.
        -11    1    3    3    0    0  0.76266456182E+01  0.30689232498E+01 -0.15573002924E+02  0.17609725541E+02  0.51100000000E-03 0.  1.
        -12    1    3    3    0    0  0.72386706344E+01  0.51829656759E+01 -0.10830059008E+01  0.89685220372E+01  0.00000000000E+00 0.  1.
</event>
<event>
 7    1  0.6136531E-013  0.5052886E+02  0.7816164E-02  0.1300439E+00
        -11   -1    0    0    0    0  0.00000000000E+00  0.00000000000E+00  0.45593999997E+02  0.45594000000E+02  0.51100000000E-03 0. -1.
         11   -1    0    0    0    0 -0.00000000000E+00 -0.00000000000E+00 -0.45593999997E+02  0.45594000000E+02  0.51100000000E-03 0.  1.
    9900012    2    1    2    0    0  0.86114698769E+01 -0.69056295419E+01 -0.39132088179E+02  0.50528862551E+02  0.30000008211E+02 0.  0.
         12    1    1    2    0    0 -0.86114698769E+01  0.69056295419E+01  0.39132088179E+02  0.40659137449E+02  0.00000000000E+00 0. -1.
         11    1    3    3    0    0  0.13923691902E+02 -0.27635179516E+01 -0.28385008709E+02  0.31736649907E+02  0.51100000000E-03 0. -1.
        -11    1    3    3    0    0 -0.88009234105E+01 -0.54163038994E+01 -0.39821082525E+01  0.11074736439E+02  0.51100000000E-03 0.  1.
        -12    1    3    3    0    0  0.34887013853E+01  0.12741923091E+01 -0.67649712173E+01  0.77174762045E+01  0.00000000000E+00 0.  1.
</event>
<event>
 7    1  0.6136531E-013  0.5052885E+02  0.7816164E-02  0.1300439E+00
        -11   -1    0    0    0    0  0.00000000000E+00  0.00000000000E+00  0.45593999997E+02  0.45594000000E+02  0.51100000000E-03 0. -1.
         11   -1    0    0    0    0 -0.00000000000E+00 -0.00000000000E+00 -0.45593999997E+02  0.45594000000E+02  0.51100000000E-03 0.  1.
    9900012    2    1    2    0    0  0.71790451884E+00 -0.24116051937E+02 -0.32727156955E+02  0.50528854039E+02  0.29999982336E+02 0.  0.
         12    1    1    2    0    0 -0.71790451884E+00  0.24116051937E+02  0.32727156955E+02  0.40659145961E+02  0.00000000000E+00 0. -1.
         11    1    3    3    0    0  0.35965074079E-04 -0.17400228593E+02 -0.37728217281E+01  0.17804553888E+02  0.51100000000E-03 0. -1.
        -11    1    3    3    0    0 -0.38791614194E+01  0.18160897796E+01 -0.36498809416E+01  0.56274067344E+01  0.51100000000E-03 0.  1.
         12    1    3    3    0    0  0.45970299731E+01 -0.85319131232E+01 -0.25304454286E+02  0.27096893416E+02  0.00000000000E+00 0. -1.
</event>
<event>
 7    1  0.6136531E-013  0.5052886E+02  0.7816164E-02  0.1300439E+00
        -11   -1    0    0    0    0  0.00000000000E+00  0.00000000000E+00  0.45593999997E+02  0.45594000000E+02  0.51100000000E-03 0.  1.
         11   -1    0    0    0    0 -0.00000000000E+00 -0.00000000000E+00 -0.45593999997E+02  0.45594000000E+02  0.51100000000E-03 0. -1.
    9900012    2    1    2    0    0  0.18903312906E+02 -0.22806612834E+02  0.27851195086E+02  0.50528857172E+02  0.29999991859E+02 0.  0.
         12    1    1    2    0    0 -0.18903312906E+02  0.22806612834E+02 -0.27851195086E+02  0.40659142828E+02  0.00000000000E+00 0. -1.
         11    1    3    3    0    0  0.12589577220E+02 -0.12539290488E+01 -0.47327190913E+00  0.12660717958E+02  0.51100000000E-03 0. -1.
        -11    1    3    3    0    0  0.56431246949E+01 -0.10843423845E+02  0.22630140994E+02  0.25720575006E+02  0.51100000000E-03 0.  1.
         12    1    3    3    0    0  0.67061099129E+00 -0.10709259940E+02  0.56943260014E+01  0.12147564208E+02  0.00000000000E+00 0. -1.
</event>
<event>
 7    1  0.6136531E-013  0.5052886E+02  0.7816164E-02  0.1300439E+00
        -11   -1    0    0    0    0  0.00000000000E+00  0.00000000000E+00  0.45593999997E+02  0.45594000000E+02  0.51100000000E-03 0. -1.
         11   -1    0    0    0    0 -0.00000000000E+00 -0.00000000000E+00 -0.45593999997E+02  0.45594000000E+02  0.51100000000E-03 0.  1.
    9900012    2    1    2    0    0 -0.39558663903E+01  0.40351695762E+02 -0.30426596450E+01  0.50528855795E+02  0.29999987674E+02 0.  0.
         12    1    1    2    0    0  0.39558663903E+01 -0.40351695762E+02  0.30426596450E+01  0.40659144205E+02  0.00000000000E+00 0. -1.
         11    1    3    3    0    0  0.68780195201E+01  0.25742128739E+02 -0.77513027797E+01  0.27749721433E+02  0.51100000000E-03 0.  1.
        -11    1    3    3    0    0 -0.77805444048E+01  0.10510986413E+02  0.91885799326E+01  0.15982731558E+02  0.51100000000E-03 0. -1.
        -12    1    3    3    0    0 -0.30533415056E+01  0.40985806102E+01 -0.44799367980E+01  0.67964028046E+01  0.00000000000E+00 0.  1.
</event>
<event>
 7    1  0.6136531E-013  0.5052886E+02  0.7816164E-02  0.1300439E+00
        -11   -1    0    0    0    0  0.00000000000E+00  0.00000000000E+00  0.45593999997E+02  0.45594000000E+02  0.51100000000E-03 0.  1.
         11   -1    0    0    0    0 -0.00000000000E+00 -0.00000000000E+00 -0.45593999997E+02  0.45594000000E+02  0.51100000000E-03 0. -1.
    9900012    2    1    2    0    0 -0.78925295518E+01  0.31519186405E+02  0.24442057957E+02  0.50528864108E+02  0.30000012942E+02 0.  0.
         12    1    1    2    0    0  0.78925295518E+01 -0.31519186405E+02 -0.24442057957E+02  0.40659135892E+02  0.00000000000E+00 0. -1.
         11    1    3    3    0    0 -0.10060826380E+02  0.22497180753E+02  0.41747485584E+01  0.24995437485E+02  0.51100000000E-03 0. -1.
        -11    1    3    3    0    0 -0.12834931536E+01  0.86539251986E+01  0.20253290526E+02  0.22062038741E+02  0.51100000000E-03 0.  1.
         12    1    3    3    0    0  0.34517899815E+01  0.36808045303E+00  0.14018872427E-01  0.34713878816E+01  0.00000000000E+00 0. -1.
</event>
<event>
 7    1  0.6136531E-013  0.5052884E+02  0.7816164E-02  0.1300439E+00
        -11   -1    0    0    0    0  0.00000000000E+00  0.00000000000E+00  0.45593999997E+02  0.45594000000E+02  0.51100000000E-03 0.  1.
         11   -1    0    0    0    0 -0.00000000000E+00 -0.00000000000E+00 -0.45593999997E+02  0.45594000000E+02  0.51100000000E-03 0. -1.
    9900012    2    1    2    0    0  0.86069976070E+01  0.19853789141E+02  0.34422574283E+02  0.50528843942E+02  0.29999951645E+02 0.  0.
         12    1    1    2    0    0 -0.86069976070E+01 -0.19853789141E+02 -0.34422574283E+02  0.40659156058E+02  0.00000000000E+00 0. -1.
         11    1    3    3    0    0  0.12672772517E+02  0.23015395048E+02  0.20394380292E+02  0.33260161158E+02  0.51100000000E-03 0.  1.
        -11    1    3    3    0    0  0.55068596435E-01  0.17018070056E+01  0.89726994710E+01  0.91328262708E+01  0.51100000000E-03 0. -1.
         12    1    3    3    0    0 -0.41208435064E+01 -0.48634129122E+01  0.50554945205E+01  0.81358565134E+01  0.00000000000E+00 0. -1.
</event>
<event>
 7    1  0.6136531E-013  0.5052887E+02  0.7816164E-02  0.1300439E+00
        -11   -1    0    0    0    0  0.00000000000E+00  0.00000000000E+00  0.45593999997E+02  0.45594000000E+02  0.51100000000E-03 0. -1.
         11   -1    0    0    0    0 -0.00000000000E+00 -0.00000000000E+00 -0.45593999997E+02  0.45594000000E+02  0.51100000000E-03 0.  1.
    9900012    2    1    2    0    0  0.18536894687E+02 -0.32344365347E+02  0.16229319586E+02  0.50528865127E+02  0.30000016041E+02 0.  0.
         12    1    1    2    0    0 -0.18536894687E+02  0.32344365347E+02 -0.16229319586E+02  0.40659134873E+02  0.00000000000E+00 0. -1.
         11    1    3    3    0    0  0.10194140585E+01  0.56901720155E+00  0.63717140714E+01  0.64777871273E+01  0.51100000000E-03 0. -1.
        -11    1    3    3    0    0  0.18291489629E+02 -0.34814031807E+02  0.11967864357E+02  0.41107483273E+02  0.51100000000E-03 0.  1.
        -12    1    3    3    0    0 -0.77400899970E+00  0.19006492587E+01 -0.21102588423E+01  0.29435947271E+01  0.00000000000E+00 0.  1.
</event>
<event>
 7    1  0.6136531E-013  0.5052886E+02  0.7816164E-02  0.1300439E+00
        -11   -1    0    0    0    0  0.00000000000E+00  0.00000000000E+00  0.45593999997E+02  0.45594000000E+02  0.51100000000E-03 0.  1.
         11   -1    0    0    0    0 -0.00000000000E+00 -0.00000000000E+00 -0.45593999997E+02  0.45594000000E+02  0.51100000000E-03 0. -1.
    9900012    2    1    2    0    0  0.36138563963E+02 -0.14761905873E+02  0.11369068434E+02  0.50528863420E+02  0.30000010852E+02 0.  0.
         12    1    1    2    0    0 -0.36138563963E+02  0.14761905873E+02 -0.11369068434E+02  0.40659136580E+02  0.00000000000E+00 0. -1.
         11    1    3    3    0    0  0.15053371723E+02  0.61786626575E+00 -0.58951851579E+01  0.16178348719E+02  0.51100000000E-03 0. -1.
        -11    1    3    3    0    0  0.22565041080E+02 -0.14133798521E+02  0.18149118089E+02  0.32223218760E+02  0.51100000000E-03 0.  1.
        -12    1    3    3    0    0 -0.14798488397E+01 -0.12459736183E+01 -0.88486449689E+00  0.21272959417E+01  0.00000000000E+00 0.  1.
</event>
<event>
 7    1  0.6136531E-013  0.5052886E+02  0.7816164E-02  0.1300439E+00
        -11   -1    0    0    0    0  0.00000000000E+00  0.00000000000E+00  0.45593999997E+02  0.45594000000E+02  0.51100000000E-03 0.  1.
         11   -1    0    0    0    0 -0.00000000000E+00 -0.00000000000E+00 -0.45593999997E+02  0.45594000000E+02  0.51100000000E-03 0. -1.
    9900012    2    1    2    0    0 -0.32751611264E+02 -0.33884978808E+01  0.23854054223E+02  0.50528857595E+02  0.29999993145E+02 0.  0.
         12    1    1    2    0    0  0.32751611264E+02  0.33884978808E+01 -0.23854054223E+02  0.40659142405E+02  0.00000000000E+00 0. -1.
         11    1    3    3    0    0 -0.15625008252E+02 -0.41177294447E+01 -0.49582108788E+01  0.16902083718E+02  0.51100000000E-03 0. -1.
        -11    1    3    3    0    0 -0.13850505708E+02  0.69495074728E+00  0.21122432460E+02  0.25268094867E+02  0.51100000000E-03 0.  1.
         12    1    3    3    0    0 -0.32760973039E+01  0.34280816671E-01  0.76898326419E+01  0.83586790092E+01  0.00000000000E+00 0. -1.
</event>
<event>
 7    1  0.6136531E-013  0.5052886E+02  0.7816164E-02  0.1300439E+00
        -11   -1    0    0    0    0  0.00000000000E+00  0.00000000000E+00  0.45593999997E+02  0.45594000000E+02  0.51100000000E-03 0.  1.
         11   -1    0    0    0    0 -0.00000000000E+00 -0.00000000000E+00 -0.45593999997E+02  0.45594000000E+02  0.51100000000E-03 0. -1.
    9900012    2    1    2    0    0 -0.27116135671E+02  0.21323559746E+02  0.21521773389E+02  0.50528859037E+02  0.29999997530E+02 0.  0.
         12    1    1    2    0    0  0.27116135671E+02 -0.21323559746E+02 -0.21521773389E+02  0.40659140963E+02  0.00000000000E+00 0. -1.
         11    1    3    3    0    0 -0.57207672927E+01 -0.27594881670E+01 -0.21978976151E+01  0.67210644654E+01  0.51100000000E-03 0. -1.
        -11    1    3    3    0    0 -0.13023198084E+02  0.12573331652E+02  0.23382995748E+02  0.29571216539E+02  0.51100000000E-03 0.  1.
         12    1    3    3    0    0 -0.83721702947E+01  0.11509716262E+02  0.33667525576E+00  0.14236578033E+02  0.00000000000E+00 0. -1.
</event>
<event>
 7    1  0.6136531E-013  0.5052887E+02  0.7816164E-02  0.1300439E+00
        -11   -1    0    0    0    0  0.00000000000E+00  0.00000000000E+00  0.45593999997E+02  0.45594000000E+02  0.51100000000E-03 0.  1.
         11   -1    0    0    0    0 -0.00000000000E+00 -0.00000000000E+00 -0.45593999997E+02  0.45594000000E+02  0.51100000000E-03 0. -1.
    9900012    2    1    2    0    0 -0.18601293075E+02  0.19139646658E+02  0.30672961796E+02  0.50528871091E+02  0.30000034170E+02 0.  0.
         12    1    1    2    0    0  0.18601293075E+02 -0.19139646658E+02 -0.30672961796E+02  0.40659128909E+02  0.00000000000E+00 0. -1.
         11    1    3    3    0    0 -0.73656163591E+01  0.30573414028E+01  0.71594802233E+01  0.10717173048E+02  0.51100000000E-03 0. -1.
        -11    1    3    3    0    0 -0.17075106823E+01  0.17000978542E+02  0.32386248481E+01  0.17390731879E+02  0.51100000000E-03 0.  1.
        -12    1    3    3    0    0 -0.95281660338E+01 -0.91867328663E+00  0.20274856724E+02  0.22420966165E+02  0.00000000000E+00 0.  1.
</event>
<event>
 7    1  0.6136531E-013  0.5052887E+02  0.7816164E-02  0.1300439E+00
        -11   -1    0    0    0    0  0.00000000000E+00  0.00000000000E+00  0.45593999997E+02  0.45594000000E+02  0.51100000000E-03 0.  1.
         11   -1    0    0    0    0 -0.00000000000E+00 -0.00000000000E+00 -0.45593999997E+02  0.45594000000E+02  0.51100000000E-03 0. -1.
    9900012    2    1    2    0    0 -0.82402007527E+01  0.29677060587E+02  0.26543101015E+02  0.50528867631E+02  0.30000023650E+02 0.  0.
         12    1    1    2    0    0  0.82402007527E+01 -0.29677060587E+02 -0.26543101015E+02  0.40659132369E+02  0.00000000000E+00 0. -1.
         11    1    3    3    0    0 -0.73679795960E+01  0.44191045692E+01 -0.28973876268E+01  0.90669986126E+01  0.51100000000E-03 0. -1.
        -11    1    3    3    0    0 -0.43807759736E+01  0.25271616165E+02  0.25180961245E+02  0.35943380353E+02  0.51100000000E-03 0.  1.
        -12    1    3    3    0    0  0.35085548170E+01 -0.13660146424E-01  0.42595273967E+01  0.55184886650E+01  0.00000000000E+00 0.  1.
</event>
<event>
 7    1  0.6136531E-013  0.5052891E+02  0.7816164E-02  0.1300439E+00
        -11   -1    0    0    0    0  0.00000000000E+00  0.00000000000E+00  0.45593999997E+02  0.45594000000E+02  0.51100000000E-03 0.  1.
         11   -1    0    0    0    0 -0.00000000000E+00 -0.00000000000E+00 -0.45593999997E+02  0.45594000000E+02  0.51100000000E-03 0. -1.
    9900012    2    1    2    0    0 -0.56414013842E+01  0.15611481485E+02  0.37116276838E+02  0.50528907904E+02  0.30000146064E+02 0.  0.
         12    1    1    2    0    0  0.56414013842E+01 -0.15611481485E+02 -0.37116276838E+02  0.40659092096E+02  0.00000000000E+00 0. -1.
         11    1    3    3    0    0 -0.34839406423E+01 -0.13821600054E+01  0.59099351200E+00  0.37944014379E+01  0.51100000000E-03 0. -1.
        -11    1    3    3    0    0  0.74815297828E+01  0.41751476899E+01  0.26428956333E+02  0.27782996225E+02  0.51100000000E-03 0.  1.
        -12    1    3    3    0    0 -0.96389905248E+01  0.12818493801E+02  0.10096326994E+02  0.18951510241E+02  0.00000000000E+00 0.  1.
</event>
<event>
 7    1  0.6136531E-013  0.5052886E+02  0.7816164E-02  0.1300439E+00
        -11   -1    0    0    0    0  0.00000000000E+00  0.00000000000E+00  0.45593999997E+02  0.45594000000E+02  0.51100000000E-03 0.  1.
         11   -1    0    0    0    0 -0.00000000000E+00 -0.00000000000E+00 -0.45593999997E+02  0.45594000000E+02  0.51100000000E-03 0. -1.
    9900012    2    1    2    0    0 -0.16200848161E+02 -0.24449507121E+02  0.28158834609E+02  0.50528857779E+02  0.29999993706E+02 0.  0.
         12    1    1    2    0    0  0.16200848161E+02  0.24449507121E+02 -0.28158834609E+02  0.40659142221E+02  0.00000000000E+00 0. -1.
         11    1    3    3    0    0 -0.49638705901E+01 -0.12521754898E+02  0.12025008796E+01  0.13523326720E+02  0.51100000000E-03 0. -1.
        -11    1    3    3    0    0 -0.12151910494E+02 -0.16248660977E+02  0.24937942659E+02  0.32149477391E+02  0.51100000000E-03 0.  1.
        -12    1    3    3    0    0  0.91493292356E+00  0.43209087538E+01  0.20183910702E+01  0.48560536679E+01  0.00000000000E+00 0.  1.
</event>
<event>
 7    1  0.6136531E-013  0.5052886E+02  0.7816164E-02  0.1300439E+00
        -11   -1    0    0    0    0  0.00000000000E+00  0.00000000000E+00  0.45593999997E+02  0.45594000000E+02  0.51100000000E-03 0. -1.
         11   -1    0    0    0    0 -0.00000000000E+00 -0.00000000000E+00 -0.45593999997E+02  0.45594000000E+02  0.51100000000E-03 0.  1.
    9900012    2    1    2    0    0  0.17208103798E+02  0.98688701889E+01 -0.35491585388E+02  0.50528855045E+02  0.29999985394E+02 0.  0.
         12    1    1    2    0    0 -0.17208103798E+02 -0.98688701889E+01  0.35491585388E+02  0.40659144955E+02  0.00000000000E+00 0. -1.
         11    1    3    3    0    0 -0.25855900131E+01 -0.11816216413E+00  0.28235949588E+01  0.38303951187E+01  0.51100000000E-03 0. -1.
        -11    1    3    3    0    0  0.30171594884E+01  0.92927448275E+01 -0.16408824699E+02  0.19097326673E+02  0.51100000000E-03 0.  1.
         12    1    3    3    0    0  0.16776534323E+02  0.69428752551E+00 -0.21906355648E+02  0.27601133253E+02  0.00000000000E+00 0. -1.
</event>
<event>
 7    1  0.6136531E-013  0.5052886E+02  0.7816164E-02  0.1300439E+00
        -11   -1    0    0    0    0  0.00000000000E+00  0.00000000000E+00  0.45593999997E+02  0.45594000000E+02  0.51100000000E-03 0.  1.
         11   -1    0    0    0    0 -0.00000000000E+00 -0.00000000000E+00 -0.45593999997E+02  0.45594000000E+02  0.51100000000E-03 0. -1.
    9900012    2    1    2    0    0  0.11668779830E+01 -0.10676928618E+01  0.40628362629E+02  0.50528862993E+02  0.30000009554E+02 0.  0.
         12    1    1    2    0    0 -0.11668779830E+01  0.10676928618E+01 -0.40628362629E+02  0.40659137007E+02  0.00000000000E+00 0. -1.
         11    1    3    3    0    0 -0.39232181156E+01  0.11151207493E+02  0.61957177483E+01  0.13346459741E+02  0.51100000000E-03 0. -1.
        -11    1    3    3    0    0  0.35802503307E+00 -0.68748550377E+01  0.17633367413E+02  0.18929539358E+02  0.51100000000E-03 0.  1.
         12    1    3    3    0    0  0.47320710655E+01 -0.53440453173E+01  0.16799277467E+02  0.18252863894E+02  0.00000000000E+00 0. -1.
</event>
<event>
 7    1  0.6136531E-013  0.5052886E+02  0.7816164E-02  0.1300439E+00
        -11   -1    0    0    0    0  0.00000000000E+00  0.00000000000E+00  0.45593999997E+02  0.45594000000E+02  0.51100000000E-03 0.  1.
         11   -1    0    0    0    0 -0.00000000000E+00 -0.00000000000E+00 -0.45593999997E+02  0.45594000000E+02  0.51100000000E-03 0. -1.
    9900012    2    1    2    0    0  0.39425603183E+02 -0.20614828840E+01  0.97230568625E+01  0.50528859173E+02  0.29999997943E+02 0.  0.
         12    1    1    2    0    0 -0.39425603183E+02  0.20614828840E+01 -0.97230568625E+01  0.40659140827E+02  0.00000000000E+00 0. -1.
         11    1    3    3    0    0  0.33144010485E+02 -0.13939088919E+02  0.61799942631E+01  0.36483091430E+02  0.51100000000E-03 0.  1.
        -11    1    3    3    0    0  0.22862637554E+01  0.64390204872E+01  0.20558101680E+01  0.71354286838E+01  0.51100000000E-03 0. -1.
        -12    1    3    3    0    0  0.39953289424E+01  0.54385855480E+01  0.14872524314E+01  0.69103390594E+01  0.00000000000E+00 0.  1.
</event>
<event>
 7    1  0.6136531E-013  0.5052886E+02  0.7816164E-02  0.1300439E+00
        -11   -1    0    0    0    0  0.00000000000E+00  0.00000000000E+00  0.45593999997E+02  0.45594000000E+02  0.51100000000E-03 0.  1.
         11   -1    0    0    0    0 -0.00000000000E+00 -0.00000000000E+00 -0.45593999997E+02  0.45594000000E+02  0.51100000000E-03 0. -1.
    9900012    2    1    2    0    0  0.13537724825E+02 -0.12107199333E+02  0.36377342997E+02  0.50528863848E+02  0.30000012152E+02 0.  0.
         12    1    1    2    0    0 -0.13537724825E+02  0.12107199333E+02 -0.36377342997E+02  0.40659136152E+02  0.00000000000E+00 0. -1.
         11    1    3    3    0    0  0.30316529843E+01 -0.11154319769E+02  0.34338249342E+00  0.11564068537E+02  0.51100000000E-03 0. -1.
        -11    1    3    3    0    0  0.65342275884E+01 -0.49102410176E+01  0.13837851233E+02  0.16071487922E+02  0.51100000000E-03 0.  1.
         12    1    3    3    0    0  0.39718442524E+01  0.39573614535E+01  0.22196109271E+02  0.22893307389E+02  0.00000000000E+00 0. -1.
</event>
<event>
 7    1  0.6136531E-013  0.5052899E+02  0.7816164E-02  0.1300438E+00
        -11   -1    0    0    0    0  0.00000000000E+00  0.00000000000E+00  0.45593999997E+02  0.45594000000E+02  0.51100000000E-03 0. -1.
         11   -1    0    0    0    0 -0.00000000000E+00 -0.00000000000E+00 -0.45593999997E+02  0.45594000000E+02  0.51100000000E-03 0.  1.
    9900012    2    1    2    0    0  0.20301740606E+02 -0.63698542341E+01 -0.34647070947E+02  0.50528988209E+02  0.30000390157E+02 0.  0.
         12    1    1    2    0    0 -0.20301740606E+02  0.63698542341E+01  0.34647070947E+02  0.40659011791E+02  0.00000000000E+00 0. -1.
         11    1    3    3    0    0  0.10611989176E+02 -0.29869938182E+00  0.16858613846E+01  0.10749216924E+02  0.51100000000E-03 0. -1.
        -11    1    3    3    0    0  0.28217117566E+01 -0.84179082689E+01 -0.21693099821E+02  0.23439578003E+02  0.51100000000E-03 0.  1.
        -12    1    3    3    0    0  0.68680396728E+01  0.23467534165E+01 -0.14639832511E+02  0.16340193282E+02  0.00000000000E+00 0.  1.
</event>
<event>
 7    1  0.6136531E-013  0.5052886E+02  0.7816164E-02  0.1300439E+00
        -11   -1    0    0    0    0  0.00000000000E+00  0.00000000000E+00  0.45593999997E+02  0.45594000000E+02  0.51100000000E-03 0. -1.
         11   -1    0    0    0    0 -0.00000000000E+00 -0.00000000000E+00 -0.45593999997E+02  0.45594000000E+02  0.51100000000E-03 0.  1.
    9900012    2    1    2    0    0  0.66526493682E+01  0.68151990088E+01 -0.39527975249E+02  0.50528861932E+02  0.30000006328E+02 0.  0.
         12    1    1    2    0    0 -0.66526493682E+01 -0.68151990088E+01  0.39527975249E+02  0.40659138068E+02  0.00000000000E+00 0. -1.
         11    1    3    3    0    0  0.16475704608E+01 -0.50196942374E-01  0.28336280899E+01  0.32781788495E+01  0.51100000000E-03 0. -1.
        -11    1    3    3    0    0 -0.33037766677E+01  0.23242411311E+01 -0.35064268716E+02  0.35296175118E+02  0.51100000000E-03 0.  1.
        -12    1    3    3    0    0  0.83088555751E+01  0.45411548201E+01 -0.72973346229E+01  0.11954507964E+02  0.00000000000E+00 0.  1.
</event>
<event>
 7    1  0.6136531E-013  0.5052886E+02  0.7816164E-02  0.1300439E+00
        -11   -1    0    0    0    0  0.00000000000E+00  0.00000000000E+00  0.45593999997E+02  0.45594000000E+02  0.51100000000E-03 0.  1.
         11   -1    0    0    0    0 -0.00000000000E+00 -0.00000000000E+00 -0.45593999997E+02  0.45594000000E+02  0.51100000000E-03 0. -1.
    9900012    2    1    2    0    0  0.26782975858E+02 -0.29229651546E+02  0.90258243787E+01  0.50528857965E+02  0.29999994269E+02 0.  0.
         12    1    1    2    0    0 -0.26782975858E+02  0.29229651546E+02 -0.90258243787E+01  0.40659142035E+02  0.00000000000E+00 0. -1.
         11    1    3    3    0    0  0.70791239373E+01 -0.99015422812E+01 -0.67462378956E+01  0.13916402598E+02  0.51100000000E-03 0. -1.
        -11    1    3    3    0    0  0.13365387230E+02 -0.16768802468E+02  0.19362043378E+02  0.28891435340E+02  0.51100000000E-03 0.  1.
        -12    1    3    3    0    0  0.63384646911E+01 -0.25593067969E+01 -0.35899811032E+01  0.77210200260E+01  0.00000000000E+00 0.  1.
</event>
<event>
 7    1  0.6136531E-013  0.5052885E+02  0.7816164E-02  0.1300439E+00
        -11   -1    0    0    0    0  0.00000000000E+00  0.00000000000E+00  0.45593999997E+02  0.45594000000E+02  0.51100000000E-03 0.  1.
         11   -1    0    0    0    0 -0.00000000000E+00 -0.00000000000E+00 -0.45593999997E+02  0.45594000000E+02  0.51100000000E-03 0. -1.
    9900012    2    1    2    0    0  0.46418892316E+01  0.40385002984E+02  0.81890588044E+00  0.50528853323E+02  0.29999980160E+02 0.  0.
         12    1    1    2    0    0 -0.46418892316E+01 -0.40385002984E+02 -0.81890588044E+00  0.40659146677E+02  0.00000000000E+00 0. -1.
         11    1    3    3    0    0  0.11753601196E+02  0.14812261347E+02 -0.70802445741E+01  0.20191089391E+02  0.51100000000E-03 0. -1.
        -11    1    3    3    0    0 -0.37166478724E+01  0.25594484921E+02  0.74394961170E+01  0.26911656072E+02  0.51100000000E-03 0.  1.
        -12    1    3    3    0    0 -0.33950640923E+01 -0.21743283523E-01  0.45965433753E+00  0.34261078604E+01  0.00000000000E+00 0.  1.
</event>
<event>
 7    1  0.6136531E-013  0.5052886E+02  0.7816164E-02  0.1300439E+00
        -11   -1    0    0    0    0  0.00000000000E+00  0.00000000000E+00  0.45593999997E+02  0.45594000000E+02  0.51100000000E-03 0. -1.
         11   -1    0    0    0    0 -0.00000000000E+00 -0.00000000000E+00 -0.45593999997E+02  0.45594000000E+02  0.51100000000E-03 0.  1.
    9900012    2    1    2    0    0  0.39087798638E+01  0.18984562508E+02 -0.35741765252E+02  0.50528856416E+02  0.29999989562E+02 0.  0.
         12    1    1    2    0    0 -0.39087798638E+01 -0.18984562508E+02  0.35741765252E+02  0.40659143584E+02  0.00000000000E+00 0. -1.
         11    1    3    3    0    0  0.64933945146E+00 -0.58578032592E+01 -0.47434812528E+01  0.75654553996E+01  0.51100000000E-03 0. -1.
        -11    1    3    3    0    0  0.63962143961E+01  0.21360565806E+02 -0.16534186251E+02  0.27759046190E+02  0.51100000000E-03 0.  1.
         12    1    3    3    0    0 -0.31367739838E+01  0.34817999615E+01 -0.14464097749E+02  0.15204354826E+02  0.00000000000E+00 0. -1.
</event>
<event>
 7    1  0.6136531E-013  0.5052892E+02  0.7816164E-02  0.1300439E+00
        -11   -1    0    0    0    0  0.00000000000E+00  0.00000000000E+00  0.45593999997E+02  0.45594000000E+02  0.51100000000E-03 0. -1.
         11   -1    0    0    0    0 -0.00000000000E+00 -0.00000000000E+00 -0.45593999997E+02  0.45594000000E+02  0.51100000000E-03 0.  1.
    9900012    2    1    2    0    0  0.30994318877E+02  0.23332127805E+02  0.12170669649E+02  0.50528915034E+02  0.30000167738E+02 0.  0.
         12    1    1    2    0    0 -0.30994318877E+02 -0.23332127805E+02 -0.12170669649E+02  0.40659084966E+02  0.00000000000E+00 0. -1.
         11    1    3    3    0    0  0.29231352200E+02  0.21879042882E+02  0.19054695124E+02  0.41185505647E+02  0.51100000000E-03 0. -1.
        -11    1    3    3    0    0  0.17737910781E+01 -0.20690939273E+01 -0.23253496191E+01  0.35825599200E+01  0.51100000000E-03 0.  1.
         12    1    3    3    0    0 -0.10824401178E-01  0.35221788508E+01 -0.45586758562E+01  0.57608494675E+01  0.00000000000E+00 0. -1.
</event>
<event>
 7    1  0.6136531E-013  0.5052886E+02  0.7816164E-02  0.1300439E+00
        -11   -1    0    0    0    0  0.00000000000E+00  0.00000000000E+00  0.45593999997E+02  0.45594000000E+02  0.51100000000E-03 0.  1.
         11   -1    0    0    0    0 -0.00000000000E+00 -0.00000000000E+00 -0.45593999997E+02  0.45594000000E+02  0.51100000000E-03 0. -1.
    9900012    2    1    2    0    0 -0.15575484063E+02  0.31498849901E+02  0.20454636143E+02  0.50528863406E+02  0.30000010808E+02 0.  0.
         12    1    1    2    0    0  0.15575484063E+02 -0.31498849901E+02 -0.20454636143E+02  0.40659136594E+02  0.00000000000E+00 0. -1.
         11    1    3    3    0    0 -0.79952865867E-01  0.14798615754E+02 -0.11270897029E+01  0.14841689666E+02  0.51100000000E-03 0. -1.
        -11    1    3    3    0    0 -0.17968690064E+02  0.88632237600E+01  0.13488413936E+02  0.24153009519E+02  0.51100000000E-03 0.  1.
        -12    1    3    3    0    0  0.24731588677E+01  0.78370103870E+01  0.80933119105E+01  0.11534164221E+02  0.00000000000E+00 0.  1.
</event>
<event>
 7    1  0.6136531E-013  0.5052878E+02  0.7816164E-02  0.1300439E+00
        -11   -1    0    0    0    0  0.00000000000E+00  0.00000000000E+00  0.45593999997E+02  0.45594000000E+02  0.51100000000E-03 0.  1.
         11   -1    0    0    0    0 -0.00000000000E+00 -0.00000000000E+00 -0.45593999997E+02  0.45594000000E+02  0.51100000000E-03 0. -1.
    9900012    2    1    2    0    0  0.24810856247E+02 -0.15117803481E+02  0.28443732895E+02  0.50528775821E+02  0.29999744585E+02 0.  0.
         12    1    1    2    0    0 -0.24810856247E+02  0.15117803481E+02 -0.28443732895E+02  0.40659224179E+02  0.00000000000E+00 0. -1.
         11    1    3    3    0    0  0.15878440394E+02 -0.81827272338E+01  0.90024589650E+01  0.20003153801E+02  0.51100000000E-03 0.  1.
        -11    1    3    3    0    0  0.53088231417E+01  0.60587736384E+01  0.13640618559E+02  0.15841679712E+02  0.51100000000E-03 0. -1.
        -12    1    3    3    0    0  0.36235927118E+01 -0.12993849885E+02  0.58006553711E+01  0.14683942308E+02  0.00000000000E+00 0.  1.
</event>
<event>
 7    1  0.6136531E-013  0.5052887E+02  0.7816164E-02  0.1300439E+00
        -11   -1    0    0    0    0  0.00000000000E+00  0.00000000000E+00  0.45593999997E+02  0.45594000000E+02  0.51100000000E-03 0.  1.
         11   -1    0    0    0    0 -0.00000000000E+00 -0.00000000000E+00 -0.45593999997E+02  0.45594000000E+02  0.51100000000E-03 0. -1.
    9900012    2    1    2    0    0  0.34904636288E+02 -0.16127817102E+02  0.13218348471E+02  0.50528869965E+02  0.30000030746E+02 0.  0.
         12    1    1    2    0    0 -0.34904636288E+02  0.16127817102E+02 -0.13218348471E+02  0.40659130035E+02  0.00000000000E+00 0. -1.
         11    1    3    3    0    0  0.23859252734E+01 -0.43290558730E+01 -0.59573501973E+01  0.77410196871E+01  0.51100000000E-03 0. -1.
        -11    1    3    3    0    0  0.18405691231E+02 -0.72034539719E+01  0.19740652675E+02  0.27934791696E+02  0.51100000000E-03 0.  1.
         12    1    3    3    0    0  0.14113019783E+02 -0.45953072575E+01 -0.56495400689E+00  0.14853058582E+02  0.00000000000E+00 0. -1.
</event>
<event>
 7    1  0.6136531E-013  0.5052886E+02  0.7816164E-02  0.1300439E+00
        -11   -1    0    0    0    0  0.00000000000E+00  0.00000000000E+00  0.45593999997E+02  0.45594000000E+02  0.51100000000E-03 0.  1.
         11   -1    0    0    0    0 -0.00000000000E+00 -0.00000000000E+00 -0.45593999997E+02  0.45594000000E+02  0.51100000000E-03 0. -1.
    9900012    2    1    2    0    0  0.10403477326E+02  0.12134409694E+02  0.37385683321E+02  0.50528861341E+02  0.30000004532E+02 0.  0.
         12    1    1    2    0    0 -0.10403477326E+02 -0.12134409694E+02 -0.37385683321E+02  0.40659138659E+02  0.00000000000E+00 0. -1.
         11    1    3    3    0    0  0.12777000356E+02  0.27863610688E+01  0.35337369977E+01  0.13546322140E+02  0.51100000000E-03 0. -1.
        -11    1    3    3    0    0  0.17140497472E+01  0.99916061613E+01  0.28280265698E+02  0.30042363230E+02  0.51100000000E-03 0.  1.
        -12    1    3    3    0    0 -0.40875727775E+01 -0.64355753618E+00  0.55716806258E+01  0.69401759711E+01  0.00000000000E+00 0.  1.
</event>
<event>
 7    1  0.6136531E-013  0.5052887E+02  0.7816164E-02  0.1300439E+00
        -11   -1    0    0    0    0  0.00000000000E+00  0.00000000000E+00  0.45593999997E+02  0.45594000000E+02  0.51100000000E-03 0. -1.
         11   -1    0    0    0    0 -0.00000000000E+00 -0.00000000000E+00 -0.45593999997E+02  0.45594000000E+02  0.51100000000E-03 0.  1.
    9900012    2    1    2    0    0 -0.38147612037E+02 -0.11837074210E+02  0.76031734769E+01  0.50528869698E+02  0.30000029934E+02 0.  0.
         12    1    1    2    0    0  0.38147612037E+02  0.11837074210E+02 -0.76031734769E+01  0.40659130302E+02  0.00000000000E+00 0. -1.
         11    1    3    3    0    0 -0.98684222617E+01  0.43783551594E+01 -0.78921481202E+01  0.13373172924E+02  0.51100000000E-03 0. -1.
        -11    1    3    3    0    0 -0.30812541269E+01 -0.21808656743E+01 -0.10317562987E+01  0.39134158232E+01  0.51100000000E-03 0.  1.
         12    1    3    3    0    0 -0.25197935649E+02 -0.14034563695E+02  0.16527077896E+02  0.33242280951E+02  0.00000000000E+00 0. -1.
</event>
<event>
 7    1  0.6136531E-013  0.5052887E+02  0.7816164E-02  0.1300439E+00
        -11   -1    0    0    0    0  0.00000000000E+00  0.00000000000E+00  0.45593999997E+02  0.45594000000E+02  0.51100000000E-03 0.  1.
         11   -1    0    0    0    0 -0.00000000000E+00 -0.00000000000E+00 -0.45593999997E+02  0.45594000000E+02  0.51100000000E-03 0. -1.
    9900012    2    1    2    0    0 -0.25442535867E+02 -0.10266227410E+02  0.30007446484E+02  0.50528869401E+02  0.30000029031E+02 0.  0.
         12    1    1    2    0    0  0.25442535867E+02  0.10266227410E+02 -0.30007446484E+02  0.40659130599E+02  0.00000000000E+00 0. -1.
         11    1    3    3    0    0 -0.24233249314E+01  0.45512988237E+00  0.16875012892E+02  0.17054199110E+02  0.51100000000E-03 0. -1.
        -11    1    3    3    0    0 -0.25099488222E+02 -0.69994775969E+01  0.90844251301E+01  0.27595357868E+02  0.51100000000E-03 0.  1.
        -12    1    3    3    0    0  0.20802772868E+01 -0.37218796954E+01  0.40480084623E+01  0.58793124231E+01  0.00000000000E+00 0.  1.
</event>
<event>
 7    1  0.6136531E-013  0.5052886E+02  0.7816164E-02  0.1300439E+00
        -11   -1    0    0    0    0  0.00000000000E+00  0.00000000000E+00  0.45593999997E+02  0.45594000000E+02  0.51100000000E-03 0. -1.
         11   -1    0    0    0    0 -0.00000000000E+00 -0.00000000000E+00 -0.45593999997E+02  0.45594000000E+02  0.51100000000E-03 0.  1.
    9900012    2    1    2    0    0  0.51481262188E+01  0.28925055054E+02 -0.28107003679E+02  0.50528859954E+02  0.30000000317E+02 0.  0.
         12    1    1    2    0    0 -0.51481262188E+01 -0.28925055054E+02  0.28107003679E+02  0.40659140046E+02  0.00000000000E+00 0. -1.
         11    1    3    3    0    0  0.91020334820E+01 -0.70638326143E+00 -0.15076222040E+00  0.91306473115E+01  0.51100000000E-03 0. -1.
        -11    1    3    3    0    0 -0.32808077119E+01  0.14090745869E+02 -0.17253690987E+02  0.22516719817E+02  0.51100000000E-03 0.  1.
         12    1    3    3    0    0 -0.67309955126E+00  0.15540692447E+02 -0.10702550472E+02  0.18881492826E+02  0.00000000000E+00 0. -1.
</event>
<event>
 7    1  0.6136531E-013  0.5052886E+02  0.7816164E-02  0.1300439E+00
        -11   -1    0    0    0    0  0.00000000000E+00  0.00000000000E+00  0.45593999997E+02  0.45594000000E+02  0.51100000000E-03 0. -1.
         11   -1    0    0    0    0 -0.00000000000E+00 -0.00000000000E+00 -0.45593999997E+02  0.45594000000E+02  0.51100000000E-03 0.  1.
    9900012    2    1    2    0    0  0.22027306502E+02  0.23695922650E+02 -0.24626542546E+02  0.50528861055E+02  0.30000003663E+02 0.  0.
         12    1    1    2    0    0 -0.22027306502E+02 -0.23695922650E+02  0.24626542546E+02  0.40659138945E+02  0.00000000000E+00 0. -1.
         11    1    3    3    0    0 -0.21732910236E+01  0.28198844170E+01  0.33551732258E+01  0.48920475912E+01  0.51100000000E-03 0. -1.
        -11    1    3    3    0    0  0.15315656899E+02  0.70550355354E+01 -0.22899605854E+02  0.28438263330E+02  0.51100000000E-03 0.  1.
         12    1    3    3    0    0  0.88849406263E+01  0.13821002698E+02 -0.50821099180E+01  0.17198550134E+02  0.00000000000E+00 0. -1.
</event>
<event>
 7    1  0.6136531E-013  0.5052886E+02  0.7816164E-02  0.1300439E+00
        -11   -1    0    0    0    0  0.00000000000E+00  0.00000000000E+00  0.45593999997E+02  0.45594000000E+02  0.51100000000E-03 0.  1.
         11   -1    0    0    0    0 -0.00000000000E+00 -0.00000000000E+00 -0.45593999997E+02  0.45594000000E+02  0.51100000000E-03 0. -1.
    9900012    2    1    2    0    0  0.84442663140E+01  0.90396619908E+00  0.39762329704E+02  0.50528860167E+02  0.30000000964E+02 0.  0.
         12    1    1    2    0    0 -0.84442663140E+01 -0.90396619908E+00 -0.39762329704E+02  0.40659139833E+02  0.00000000000E+00 0. -1.
         11    1    3    3    0    0  0.94648041868E+01 -0.84363246619E+01  0.64339117997E+01  0.14217922260E+02  0.51100000000E-03 0. -1.
        -11    1    3    3    0    0 -0.47619397850E+01  0.87845293529E+01  0.28344729277E+02  0.30054412397E+02  0.51100000000E-03 0.  1.
        -12    1    3    3    0    0  0.37414019122E+01  0.55576150807E+00  0.49836886268E+01  0.62565255095E+01  0.00000000000E+00 0.  1.
</event>
<event>
 7    1  0.6136531E-013  0.5052890E+02  0.7816164E-02  0.1300439E+00
        -11   -1    0    0    0    0  0.00000000000E+00  0.00000000000E+00  0.45593999997E+02  0.45594000000E+02  0.51100000000E-03 0.  1.
         11   -1    0    0    0    0 -0.00000000000E+00 -0.00000000000E+00 -0.45593999997E+02  0.45594000000E+02  0.51100000000E-03 0. -1.
    9900012    2    1    2    0    0  0.26456591866E+02 -0.73804499752E+01  0.29978992397E+02  0.50528901632E+02  0.30000126999E+02 0.  0.
         12    1    1    2    0    0 -0.26456591866E+02  0.73804499752E+01 -0.29978992397E+02  0.40659098368E+02  0.00000000000E+00 0. -1.
         11    1    3    3    0    0  0.11829541121E+02  0.44584414296E+01  0.27190396066E+01  0.12930928804E+02  0.51100000000E-03 0. -1.
        -11    1    3    3    0    0  0.16950863617E+02 -0.85519310893E+01  0.27663881299E+02  0.33552311865E+02  0.51100000000E-03 0.  1.
         12    1    3    3    0    0 -0.23238128709E+01 -0.32869603155E+01 -0.40392850939E+00  0.40456609615E+01  0.00000000000E+00 0. -1.
</event>
<event>
 7    1  0.6136531E-013  0.5052886E+02  0.7816164E-02  0.1300439E+00
        -11   -1    0    0    0    0  0.00000000000E+00  0.00000000000E+00  0.45593999997E+02  0.45594000000E+02  0.51100000000E-03 0. -1.
         11   -1    0    0    0    0 -0.00000000000E+00 -0.00000000000E+00 -0.45593999997E+02  0.45594000000E+02  0.51100000000E-03 0.  1.
    9900012    2    1    2    0    0 -0.19276152718E+01  0.37045662586E+01 -0.40444114834E+02  0.50528856668E+02  0.29999990329E+02 0.  0.
         12    1    1    2    0    0  0.19276152718E+01 -0.37045662586E+01  0.40444114834E+02  0.40659143332E+02  0.00000000000E+00 0. -1.
         11    1    3    3    0    0  0.44842579942E+01  0.60009844104E+01  0.12422236683E+01  0.75936488960E+01  0.51100000000E-03 0. -1.
        -11    1    3    3    0    0 -0.39448671209E+01  0.26327019672E+01 -0.17782332381E+02  0.18403924620E+02  0.51100000000E-03 0.  1.
         12    1    3    3    0    0 -0.24670061450E+01 -0.49291201190E+01 -0.23904006121E+02  0.24531283152E+02  0.00000000000E+00 0. -1.
</event>
<event>
 7    1  0.6136531E-013  0.5052885E+02  0.7816164E-02  0.1300439E+00
        -11   -1    0    0    0    0  0.00000000000E+00  0.00000000000E+00  0.45593999997E+02  0.45594000000E+02  0.51100000000E-03 0.  1.
         11   -1    0    0    0    0 -0.00000000000E+00 -0.00000000000E+00 -0.45593999997E+02  0.45594000000E+02  0.51100000000E-03 0. -1.
    9900012    2    1    2    0    0 -0.20355898500E+02  0.29394288642E+02  0.19359226318E+02  0.50528850326E+02  0.29999971052E+02 0.  0.
         12    1    1    2    0    0  0.20355898500E+02 -0.29394288642E+02 -0.19359226318E+02  0.40659149674E+02  0.00000000000E+00 0. -1.
         11    1    3    3    0    0 -0.21512374197E+02  0.84227680040E+01  0.66868000525E+01  0.24050749669E+02  0.51100000000E-03 0. -1.
        -11    1    3    3    0    0 -0.40312122900E+01  0.50559806184E+01  0.42603238699E+01  0.77436407638E+01  0.51100000000E-03 0.  1.
         12    1    3    3    0    0  0.51876879871E+01  0.15915540020E+02  0.84121023959E+01  0.18734459893E+02  0.00000000000E+00 0. -1.
</event>
<event>
 7    1  0.6136531E-013  0.5052886E+02  0.7816164E-02  0.1300439E+00
        -11   -1    0    0    0    0  0.00000000000E+00  0.00000000000E+00  0.45593999997E+02  0.45594000000E+02  0.51100000000E-03 0.  1.
         11   -1    0    0    0    0 -0.00000000000E+00 -0.00000000000E+00 -0.45593999997E+02  0.45594000000E+02  0.51100000000E-03 0. -1.
    9900012    2    1    2    0    0 -0.32083864205E+02 -0.23313000958E+02  0.89607544842E+01  0.50528862320E+02  0.30000007507E+02 0.  0.
         12    1    1    2    0    0  0.32083864205E+02  0.23313000958E+02 -0.89607544842E+01  0.40659137680E+02  0.00000000000E+00 0. -1.
         11    1    3    3    0    0 -0.87355044681E+01  0.19662485026E+01 -0.11210378692E+01  0.90239624141E+01  0.51100000000E-03 0. -1.
        -11    1    3    3    0    0 -0.17528086006E+02 -0.15163746618E+02  0.16248634011E+02  0.28305319606E+02  0.51100000000E-03 0.  1.
        -12    1    3    3    0    0 -0.58202737308E+01 -0.10115502842E+02 -0.61668416573E+01  0.13199580300E+02  0.00000000000E+00 0.  1.
</event>
<event>
 7    1  0.6136531E-013  0.5052886E+02  0.7816164E-02  0.1300439E+00
        -11   -1    0    0    0    0  0.00000000000E+00  0.00000000000E+00  0.45593999997E+02  0.45594000000E+02  0.51100000000E-03 0.  1.
         11   -1    0    0    0    0 -0.00000000000E+00 -0.00000000000E+00 -0.45593999997E+02  0.45594000000E+02  0.51100000000E-03 0. -1.
    9900012    2    1    2    0    0 -0.18739974656E+02 -0.32956128334E+02  0.14692598290E+02  0.50528862167E+02  0.30000007042E+02 0.  0.
         12    1    1    2    0    0  0.18739974656E+02  0.32956128334E+02 -0.14692598290E+02  0.40659137833E+02  0.00000000000E+00 0. -1.
         11    1    3    3    0    0 -0.18437165539E+02 -0.79506062034E+01  0.32167119601E+01  0.20334415364E+02  0.51100000000E-03 0. -1.
        -11    1    3    3    0    0  0.42627537052E+00 -0.14094965067E+02  0.12968602733E+02  0.19158142082E+02  0.51100000000E-03 0.  1.
        -12    1    3    3    0    0 -0.72908448728E+00 -0.10910557064E+02 -0.14927164035E+01  0.11036304721E+02  0.00000000000E+00 0.  1.
</event>
<event>
 7    1  0.6136531E-013  0.5052885E+02  0.7816164E-02  0.1300439E+00
        -11   -1    0    0    0    0  0.00000000000E+00  0.00000000000E+00  0.45593999997E+02  0.45594000000E+02  0.51100000000E-03 0.  1.
         11   -1    0    0    0    0 -0.00000000000E+00 -0.00000000000E+00 -0.45593999997E+02  0.45594000000E+02  0.51100000000E-03 0. -1.
    9900012    2    1    2    0    0  0.20509163207E+02 -0.10064549324E+02  0.33633998422E+02  0.50528846315E+02  0.29999958858E+02 0.  0.
         12    1    1    2    0    0 -0.20509163207E+02  0.10064549324E+02 -0.33633998422E+02  0.40659153685E+02  0.00000000000E+00 0. -1.
         11    1    3    3    0    0  0.10130124422E+02 -0.88443033648E+01  0.15509482009E+01  0.13536859436E+02  0.51100000000E-03 0. -1.
        -11    1    3    3    0    0  0.11710955157E+01 -0.60806092333E+01  0.20510688622E+02  0.21425069926E+02  0.51100000000E-03 0.  1.
         12    1    3    3    0    0  0.92079432687E+01  0.48603632738E+01  0.11572361600E+02  0.15566916952E+02  0.00000000000E+00 0. -1.
</event>
<event>
 7    1  0.6136531E-013  0.5052885E+02  0.7816164E-02  0.1300439E+00
        -11   -1    0    0    0    0  0.00000000000E+00  0.00000000000E+00  0.45593999997E+02  0.45594000000E+02  0.51100000000E-03 0.  1.
         11   -1    0    0    0    0 -0.00000000000E+00 -0.00000000000E+00 -0.45593999997E+02  0.45594000000E+02  0.51100000000E-03 0. -1.
    9900012    2    1    2    0    0  0.31936738975E+02  0.91942941578E+01  0.23423833520E+02  0.50528851975E+02  0.29999976062E+02 0.  0.
         12    1    1    2    0    0 -0.31936738975E+02 -0.91942941578E+01 -0.23423833520E+02  0.40659148025E+02  0.00000000000E+00 0. -1.
         11    1    3    3    0    0  0.24274535781E+02  0.88377453960E+01  0.38794263691E+01  0.26122955045E+02  0.51100000000E-03 0. -1.
        -11    1    3    3    0    0  0.20755851915E+01 -0.40545815199E+01  0.15634651236E+02  0.16284655499E+02  0.51100000000E-03 0.  1.
        -12    1    3    3    0    0  0.55866180019E+01  0.44111302817E+01  0.39097559149E+01  0.81212414307E+01  0.00000000000E+00 0.  1.
</event>
<event>
 7    1  0.6136531E-013  0.5052884E+02  0.7816164E-02  0.1300439E+00
        -11   -1    0    0    0    0  0.00000000000E+00  0.00000000000E+00  0.45593999997E+02  0.45594000000E+02  0.51100000000E-03 0.  1.
         11   -1    0    0    0    0 -0.00000000000E+00 -0.00000000000E+00 -0.45593999997E+02  0.45594000000E+02  0.51100000000E-03 0. -1.
    9900012    2    1    2    0    0  0.34411190413E+02  0.21654694391E+02  0.33352290377E+00  0.50528842946E+02  0.29999948619E+02 0.  0.
         12    1    1    2    0    0 -0.34411190413E+02 -0.21654694391E+02 -0.33352290377E+00  0.40659157054E+02  0.00000000000E+00 0. -1.
         11    1    3    3    0    0  0.64188180414E+01 -0.22975871306E+01  0.20652391763E+01  0.71235766850E+01  0.51100000000E-03 0. -1.
        -11    1    3    3    0    0  0.67714250018E+00  0.12943879253E+02  0.36540047346E+01  0.13466784432E+02  0.51100000000E-03 0.  1.
        -12    1    3    3    0    0  0.27315229872E+02  0.11008402269E+02 -0.53857210071E+01  0.29938481829E+02  0.00000000000E+00 0.  1.
</event>
<event>
 7    1  0.6136531E-013  0.5052886E+02  0.7816164E-02  0.1300439E+00
        -11   -1    0    0    0    0  0.00000000000E+00  0.00000000000E+00  0.45593999997E+02  0.45594000000E+02  0.51100000000E-03 0.  1.
         11   -1    0    0    0    0 -0.00000000000E+00 -0.00000000000E+00 -0.45593999997E+02  0.45594000000E+02  0.51100000000E-03 0. -1.
    9900012    2    1    2    0    0  0.10038535263E+02  0.12746571843E+02  0.37281607121E+02  0.50528861870E+02  0.30000006139E+02 0.  0.
         12    1    1    2    0    0 -0.10038535263E+02 -0.12746571843E+02 -0.37281607121E+02  0.40659138130E+02  0.00000000000E+00 0. -1.
         11    1    3    3    0    0  0.76999906693E+01 -0.39422951233E+01  0.18007923776E+01  0.88359719667E+01  0.51100000000E-03 0. -1.
        -11    1    3    3    0    0  0.22551741674E+01  0.15823559882E+02  0.17536823441E+02  0.23727853560E+02  0.51100000000E-03 0.  1.
         12    1    3    3    0    0  0.83370426539E-01  0.86530708394E+00  0.17943991302E+02  0.17965036343E+02  0.00000000000E+00 0. -1.
</event>
<event>
 7    1  0.6136531E-013  0.5052888E+02  0.7816164E-02  0.1300439E+00
        -11   -1    0    0    0    0  0.00000000000E+00  0.00000000000E+00  0.45593999997E+02  0.45594000000E+02  0.51100000000E-03 0.  1.
         11   -1    0    0    0    0 -0.00000000000E+00 -0.00000000000E+00 -0.45593999997E+02  0.45594000000E+02  0.51100000000E-03 0. -1.
    9900012    2    1    2    0    0 -0.24643229665E+02 -0.31733857510E+02  0.62319994931E+01  0.50528876811E+02  0.30000051556E+02 0.  0.
         12    1    1    2    0    0  0.24643229665E+02  0.31733857510E+02 -0.62319994931E+01  0.40659123189E+02  0.00000000000E+00 0. -1.
         11    1    3    3    0    0 -0.19524687525E+02 -0.36932955729E+01  0.87280850293E+01  0.21703302138E+02  0.51100000000E-03 0. -1.
        -11    1    3    3    0    0 -0.46573069110E+01 -0.24995203694E+02 -0.11144739849E+01  0.25449808799E+02  0.51100000000E-03 0.  1.
         12    1    3    3    0    0 -0.46123522890E+00 -0.30453582426E+01 -0.13816115513E+01  0.33757658747E+01  0.00000000000E+00 0. -1.
</event>
<event>
 7    1  0.6136531E-013  0.5052886E+02  0.7816164E-02  0.1300439E+00
        -11   -1    0    0    0    0  0.00000000000E+00  0.00000000000E+00  0.45593999997E+02  0.45594000000E+02  0.51100000000E-03 0.  1.
         11   -1    0    0    0    0 -0.00000000000E+00 -0.00000000000E+00 -0.45593999997E+02  0.45594000000E+02  0.51100000000E-03 0. -1.
    9900012    2    1    2    0    0  0.18262615683E+02  0.28054657043E+01  0.36218386513E+02  0.50528864606E+02  0.30000014456E+02 0.  0.
         12    1    1    2    0    0 -0.18262615683E+02 -0.28054657043E+01 -0.36218386513E+02  0.40659135394E+02  0.00000000000E+00 0. -1.
         11    1    3    3    0    0 -0.21234844551E+01 -0.60327353641E+01  0.12273930879E+01  0.65122635280E+01  0.51100000000E-03 0. -1.
        -11    1    3    3    0    0  0.14296348285E+02 -0.13236045171E+01  0.23327527398E+02  0.27391806037E+02  0.51100000000E-03 0.  1.
        -12    1    3    3    0    0  0.60897518535E+01  0.10161805585E+02  0.11663466027E+02  0.16624795041E+02  0.00000000000E+00 0.  1.
</event>
<event>
 7    1  0.6136531E-013  0.5052886E+02  0.7816164E-02  0.1300439E+00
        -11   -1    0    0    0    0  0.00000000000E+00  0.00000000000E+00  0.45593999997E+02  0.45594000000E+02  0.51100000000E-03 0.  1.
         11   -1    0    0    0    0 -0.00000000000E+00 -0.00000000000E+00 -0.45593999997E+02  0.45594000000E+02  0.51100000000E-03 0. -1.
    9900012    2    1    2    0    0  0.34474279924E+02 -0.15229927789E+02 -0.15255793878E+02  0.50528856827E+02  0.29999990811E+02 0.  0.
         12    1    1    2    0    0 -0.34474279924E+02  0.15229927789E+02  0.15255793878E+02  0.40659143173E+02  0.00000000000E+00 0. -1.
         11    1    3    3    0    0 -0.10547350065E+01 -0.23291840789E+01  0.32037714471E+01  0.40989896504E+01  0.51100000000E-03 0. -1.
        -11    1    3    3    0    0  0.31417194090E+02 -0.16360816353E+02 -0.10721930597E+02  0.37009136604E+02  0.51100000000E-03 0.  1.
        -12    1    3    3    0    0  0.41118208404E+01  0.34600726434E+01 -0.77376347286E+01  0.94207305723E+01  0.00000000000E+00 0.  1.
</event>
<event>
 7    1  0.6136531E-013  0.5052885E+02  0.7816164E-02  0.1300439E+00
        -11   -1    0    0    0    0  0.00000000000E+00  0.00000000000E+00  0.45593999997E+02  0.45594000000E+02  0.51100000000E-03 0.  1.
         11   -1    0    0    0    0 -0.00000000000E+00 -0.00000000000E+00 -0.45593999997E+02  0.45594000000E+02  0.51100000000E-03 0. -1.
    9900012    2    1    2    0    0 -0.51066963613E+01 -0.29611105705E+02  0.27391060056E+02  0.50528854660E+02  0.29999984224E+02 0.  0.
         12    1    1    2    0    0  0.51066963613E+01  0.29611105705E+02 -0.27391060056E+02  0.40659145340E+02  0.00000000000E+00 0. -1.
         11    1    3    3    0    0 -0.51721330806E+01 -0.11211160633E+02 -0.17981821176E+01  0.12476960469E+02  0.51100000000E-03 0. -1.
        -11    1    3    3    0    0 -0.11592163243E+01 -0.11722895774E+01  0.16594563477E+02  0.16676258051E+02  0.51100000000E-03 0.  1.
         12    1    3    3    0    0  0.12246530436E+01 -0.17227655495E+02  0.12594678696E+02  0.21375636140E+02  0.00000000000E+00 0. -1.
</event>
<event>
 7    1  0.6136531E-013  0.5052886E+02  0.7816164E-02  0.1300439E+00
        -11   -1    0    0    0    0  0.00000000000E+00  0.00000000000E+00  0.45593999997E+02  0.45594000000E+02  0.51100000000E-03 0.  1.
         11   -1    0    0    0    0 -0.00000000000E+00 -0.00000000000E+00 -0.45593999997E+02  0.45594000000E+02  0.51100000000E-03 0. -1.
    9900012    2    1    2    0    0 -0.68021627396E+01  0.17670921540E+02  0.35981028294E+02  0.50528864703E+02  0.30000014750E+02 0.  0.
         12    1    1    2    0    0  0.68021627396E+01 -0.17670921540E+02 -0.35981028294E+02  0.40659135297E+02  0.00000000000E+00 0. -1.
         11    1    3    3    0    0 -0.15924555324E+02  0.84532975278E+01  0.13006327746E+02  0.22230930324E+02  0.51100000000E-03 0. -1.
        -11    1    3    3    0    0  0.53092711059E+01 -0.10816519082E-01  0.33466546245E+01  0.62760317167E+01  0.51100000000E-03 0.  1.
         12    1    3    3    0    0  0.38131214788E+01  0.92284405317E+01  0.19628045924E+02  0.22021902662E+02  0.00000000000E+00 0. -1.
</event>
<event>
 7    1  0.6136531E-013  0.5052886E+02  0.7816164E-02  0.1300439E+00
        -11   -1    0    0    0    0  0.00000000000E+00  0.00000000000E+00  0.45593999997E+02  0.45594000000E+02  0.51100000000E-03 0.  1.
         11   -1    0    0    0    0 -0.00000000000E+00 -0.00000000000E+00 -0.45593999997E+02  0.45594000000E+02  0.51100000000E-03 0. -1.
    9900012    2    1    2    0    0  0.18531669731E+02  0.11467686159E+02  0.34325431280E+02  0.50528857838E+02  0.29999993883E+02 0.  0.
         12    1    1    2    0    0 -0.18531669731E+02 -0.11467686159E+02 -0.34325431280E+02  0.40659142162E+02  0.00000000000E+00 0. -1.
         11    1    3    3    0    0 -0.73108688466E+01  0.49716641876E+01  0.42637254523E+01  0.98155796100E+01  0.51100000000E-03 0. -1.
        -11    1    3    3    0    0  0.71319468819E+00  0.46853365861E+00  0.37025062477E+01  0.37995688213E+01  0.51100000000E-03 0.  1.
         12    1    3    3    0    0  0.25129343889E+02  0.60274883125E+01  0.26359199580E+02  0.36913709406E+02  0.00000000000E+00 0. -1.
</event>
<event>
 7    1  0.6136531E-013  0.5052886E+02  0.7816164E-02  0.1300439E+00
        -11   -1    0    0    0    0  0.00000000000E+00  0.00000000000E+00  0.45593999997E+02  0.45594000000E+02  0.51100000000E-03 0.  1.
         11   -1    0    0    0    0 -0.00000000000E+00 -0.00000000000E+00 -0.45593999997E+02  0.45594000000E+02  0.51100000000E-03 0. -1.
    9900012    2    1    2    0    0  0.26281859730E+02 -0.29234358029E+02  0.10381788029E+02  0.50528863722E+02  0.30000011769E+02 0.  0.
         12    1    1    2    0    0 -0.26281859730E+02  0.29234358029E+02 -0.10381788029E+02  0.40659136278E+02  0.00000000000E+00 0. -1.
         11    1    3    3    0    0  0.18103688705E+01 -0.81109814365E+01 -0.68564975721E+01  0.10773904331E+02  0.51100000000E-03 0. -1.
        -11    1    3    3    0    0  0.18782254292E+02 -0.18940108496E+02  0.19723349627E+02  0.33173955250E+02  0.51100000000E-03 0.  1.
        -12    1    3    3    0    0  0.56892365671E+01 -0.21832680965E+01 -0.24850640258E+01  0.65810041415E+01  0.00000000000E+00 0.  1.
</event>
<event>
 7    1  0.6136531E-013  0.5052886E+02  0.7816164E-02  0.1300439E+00
        -11   -1    0    0    0    0  0.00000000000E+00  0.00000000000E+00  0.45593999997E+02  0.45594000000E+02  0.51100000000E-03 0.  1.
         11   -1    0    0    0    0 -0.00000000000E+00 -0.00000000000E+00 -0.45593999997E+02  0.45594000000E+02  0.51100000000E-03 0. -1.
    9900012    2    1    2    0    0  0.34672290644E+00  0.40612125711E+02 -0.19238165941E+01  0.50528855373E+02  0.29999986391E+02 0.  0.
         12    1    1    2    0    0 -0.34672290644E+00 -0.40612125711E+02  0.19238165941E+01  0.40659144627E+02  0.00000000000E+00 0. -1.
         11    1    3    3    0    0 -0.19761830547E+01  0.19223020751E+02 -0.85370761272E+01  0.21126085660E+02  0.51100000000E-03 0. -1.
        -11    1    3    3    0    0 -0.44471133984E+01 -0.98191656597E+00  0.36626104662E+01  0.58442872456E+01  0.51100000000E-03 0.  1.
        -12    1    3    3    0    0  0.67700193595E+01  0.22371021526E+02  0.29506490668E+01  0.23558482467E+02  0.00000000000E+00 0.  1.
</event>
<event>
 7    1  0.6136531E-013  0.5052887E+02  0.7816164E-02  0.1300439E+00
        -11   -1    0    0    0    0  0.00000000000E+00  0.00000000000E+00  0.45593999997E+02  0.45594000000E+02  0.51100000000E-03 0. -1.
         11   -1    0    0    0    0 -0.00000000000E+00 -0.00000000000E+00 -0.45593999997E+02  0.45594000000E+02  0.51100000000E-03 0.  1.
    9900012    2    1    2    0    0  0.13064460421E+01 -0.12231974539E+02 -0.38753541006E+02  0.50528868887E+02  0.30000027468E+02 0.  0.
         12    1    1    2    0    0 -0.13064460421E+01  0.12231974539E+02  0.38753541006E+02  0.40659131113E+02  0.00000000000E+00 0. -1.
         11    1    3    3    0    0  0.26277418952E+01  0.77939455622E+00  0.20434015075E+01  0.34187678079E+01  0.51100000000E-03 0. -1.
        -11    1    3    3    0    0  0.11392148946E+01 -0.11730796203E+02 -0.42330461722E+02  0.43940611966E+02  0.51100000000E-03 0.  1.
        -12    1    3    3    0    0 -0.24605107478E+01 -0.12805728925E+01  0.15335192084E+01  0.31694891127E+01  0.00000000000E+00 0.  1.
</event>
<event>
 7    1  0.6136531E-013  0.5052894E+02  0.7816164E-02  0.1300439E+00
        -11   -1    0    0    0    0  0.00000000000E+00  0.00000000000E+00  0.45593999997E+02  0.45594000000E+02  0.51100000000E-03 0.  1.
         11   -1    0    0    0    0 -0.00000000000E+00 -0.00000000000E+00 -0.45593999997E+02  0.45594000000E+02  0.51100000000E-03 0. -1.
    9900012    2    1    2    0    0  0.36907581247E+02  0.14009590523E+02  0.97324651931E+01  0.50528941245E+02  0.30000247407E+02 0.  0.
         12    1    1    2    0    0 -0.36907581247E+02 -0.14009590523E+02 -0.97324651931E+01  0.40659058755E+02  0.00000000000E+00 0. -1.
         11    1    3    3    0    0  0.16167525981E+02  0.16761397547E+02  0.10526210128E+02  0.25556495143E+02  0.51100000000E-03 0. -1.
        -11    1    3    3    0    0  0.18303005744E+02  0.17257996335E+01 -0.41787129777E+01  0.18853117675E+02  0.51100000000E-03 0.  1.
        -12    1    3    3    0    0  0.24370495213E+01 -0.44776066572E+01  0.33849680426E+01  0.61193284268E+01  0.00000000000E+00 0.  1.
</event>
<event>
 7    1  0.6136531E-013  0.5052886E+02  0.7816164E-02  0.1300439E+00
        -11   -1    0    0    0    0  0.00000000000E+00  0.00000000000E+00  0.45593999997E+02  0.45594000000E+02  0.51100000000E-03 0. -1.
         11   -1    0    0    0    0 -0.00000000000E+00 -0.00000000000E+00 -0.45593999997E+02  0.45594000000E+02  0.51100000000E-03 0.  1.
    9900012    2    1    2    0    0  0.12301208017E+02  0.31200750393E+02  0.22986067500E+02  0.50528857819E+02  0.29999993826E+02 0.  0.
         12    1    1    2    0    0 -0.12301208017E+02 -0.31200750393E+02 -0.22986067500E+02  0.40659142181E+02  0.00000000000E+00 0. -1.
         11    1    3    3    0    0 -0.28257796019E+01  0.13281186026E+02 -0.19299629613E+01  0.13714944036E+02  0.51100000000E-03 0. -1.
        -11    1    3    3    0    0  0.13543070339E+02  0.13949608725E+02  0.11178690872E+02  0.22426980797E+02  0.51100000000E-03 0.  1.
         12    1    3    3    0    0  0.15839172801E+01  0.39699556424E+01  0.13737339589E+02  0.14386932986E+02  0.00000000000E+00 0. -1.
</event>
<event>
 7    1  0.6136531E-013  0.5052886E+02  0.7816164E-02  0.1300439E+00
        -11   -1    0    0    0    0  0.00000000000E+00  0.00000000000E+00  0.45593999997E+02  0.45594000000E+02  0.51100000000E-03 0. -1.
         11   -1    0    0    0    0 -0.00000000000E+00 -0.00000000000E+00 -0.45593999997E+02  0.45594000000E+02  0.51100000000E-03 0.  1.
    9900012    2    1    2    0    0  0.32642892704E+02  0.23650604537E+02  0.53156825534E+01  0.50528855640E+02  0.29999987205E+02 0.  0.
         12    1    1    2    0    0 -0.32642892704E+02 -0.23650604537E+02 -0.53156825534E+01  0.40659144360E+02  0.00000000000E+00 0. -1.
         11    1    3    3    0    0  0.16518239699E+02  0.23486023360E+02  0.39158561680E+01  0.28978948667E+02  0.51100000000E-03 0. -1.
        -11    1    3    3    0    0  0.19157141143E+01 -0.42667500971E+01 -0.35421194000E+01  0.58670032439E+01  0.51100000000E-03 0.  1.
        -12    1    3    3    0    0  0.14208938891E+02  0.44313312739E+01  0.49419457854E+01  0.15682903730E+02  0.00000000000E+00 0.  1.
</event>
<event>
 7    1  0.6136531E-013  0.5052887E+02  0.7816164E-02  0.1300439E+00
        -11   -1    0    0    0    0  0.00000000000E+00  0.00000000000E+00  0.45593999997E+02  0.45594000000E+02  0.51100000000E-03 0. -1.
         11   -1    0    0    0    0 -0.00000000000E+00 -0.00000000000E+00 -0.45593999997E+02  0.45594000000E+02  0.51100000000E-03 0.  1.
    9900012    2    1    2    0    0  0.11954106855E+02  0.12010518731E+02 -0.36959590419E+02  0.50528873658E+02  0.30000041972E+02 0.  0.
         12    1    1    2    0    0 -0.11954106855E+02 -0.12010518731E+02  0.36959590419E+02  0.40659126342E+02  0.00000000000E+00 0. -1.
         11    1    3    3    0    0  0.43398648085E-01 -0.49657835390E+01 -0.37032870191E+01  0.61947739754E+01  0.51100000000E-03 0. -1.
        -11    1    3    3    0    0  0.15733206607E+02  0.17062342411E+02 -0.20329230534E+02  0.30853442807E+02  0.51100000000E-03 0.  1.
        -12    1    3    3    0    0 -0.38224983997E+01 -0.86040140698E-01 -0.12927072866E+02  0.13480656876E+02  0.00000000000E+00 0.  1.
</event>
<event>
 7    1  0.6136531E-013  0.5052888E+02  0.7816164E-02  0.1300439E+00
        -11   -1    0    0    0    0  0.00000000000E+00  0.00000000000E+00  0.45593999997E+02  0.45594000000E+02  0.51100000000E-03 0. -1.
         11   -1    0    0    0    0 -0.00000000000E+00 -0.00000000000E+00 -0.45593999997E+02  0.45594000000E+02  0.51100000000E-03 0.  1.
    9900012    2    1    2    0    0  0.39342741935E+02 -0.68749531172E+01  0.76189098115E+01  0.50528879128E+02  0.30000058599E+02 0.  0.
         12    1    1    2    0    0 -0.39342741935E+02  0.68749531172E+01 -0.76189098115E+01  0.40659120872E+02  0.00000000000E+00 0. -1.
         11    1    3    3    0    0  0.31912670282E+00 -0.20907611816E+01 -0.22213368451E+01  0.30671585893E+01  0.51100000000E-03 0. -1.
        -11    1    3    3    0    0  0.37241051603E+02  0.18299819582E+01  0.24221993510E+01  0.37364579596E+02  0.51100000000E-03 0.  1.
        -12    1    3    3    0    0  0.17825636293E+01 -0.66141738938E+01  0.74180473057E+01  0.10097140943E+02  0.00000000000E+00 0.  1.
</event>
<event>
 7    1  0.6136531E-013  0.5052886E+02  0.7816164E-02  0.1300439E+00
        -11   -1    0    0    0    0  0.00000000000E+00  0.00000000000E+00  0.45593999997E+02  0.45594000000E+02  0.51100000000E-03 0.  1.
         11   -1    0    0    0    0 -0.00000000000E+00 -0.00000000000E+00 -0.45593999997E+02  0.45594000000E+02  0.51100000000E-03 0. -1.
    9900012    2    1    2    0    0 -0.31878828003E+01 -0.33404342145E+02  0.22959815247E+02  0.50528858505E+02  0.29999995912E+02 0.  0.
         12    1    1    2    0    0  0.31878828003E+01  0.33404342145E+02 -0.22959815247E+02  0.40659141495E+02  0.00000000000E+00 0. -1.
         11    1    3    3    0    0 -0.11495451398E+02 -0.10342355457E+02  0.17610663893E+02  0.23435980932E+02  0.51100000000E-03 0.  1.
        -11    1    3    3    0    0  0.48510106274E+01 -0.74561497437E+01 -0.25637747053E+01  0.92573978043E+01  0.51100000000E-03 0. -1.
         12    1    3    3    0    0  0.34565579703E+01 -0.15605836945E+02  0.79129260596E+01  0.17835479768E+02  0.00000000000E+00 0. -1.
</event>
<event>
 7    1  0.6136531E-013  0.5052885E+02  0.7816164E-02  0.1300439E+00
        -11   -1    0    0    0    0  0.00000000000E+00  0.00000000000E+00  0.45593999997E+02  0.45594000000E+02  0.51100000000E-03 0.  1.
         11   -1    0    0    0    0 -0.00000000000E+00 -0.00000000000E+00 -0.45593999997E+02  0.45594000000E+02  0.51100000000E-03 0. -1.
    9900012    2    1    2    0    0  0.66486659725E-01 -0.96736001004E+01  0.39491562831E+02  0.50528849809E+02  0.29999969481E+02 0.  0.
         12    1    1    2    0    0 -0.66486659725E-01  0.96736001004E+01 -0.39491562831E+02  0.40659150191E+02  0.00000000000E+00 0. -1.
         11    1    3    3    0    0  0.17336155962E+01  0.77890738282E+00 -0.23443273472E+01  0.30179447839E+01  0.51100000000E-03 0. -1.
        -11    1    3    3    0    0 -0.10191372123E+02 -0.61881635185E+01  0.30207525072E+02  0.32475406151E+02  0.51100000000E-03 0.  1.
        -12    1    3    3    0    0  0.85242431861E+01 -0.42643439647E+01  0.11628365107E+02  0.15035498874E+02  0.00000000000E+00 0.  1.
</event>
<event>
 7    1  0.6136531E-013  0.5052885E+02  0.7816164E-02  0.1300439E+00
        -11   -1    0    0    0    0  0.00000000000E+00  0.00000000000E+00  0.45593999997E+02  0.45594000000E+02  0.51100000000E-03 0.  1.
         11   -1    0    0    0    0 -0.00000000000E+00 -0.00000000000E+00 -0.45593999997E+02  0.45594000000E+02  0.51100000000E-03 0. -1.
    9900012    2    1    2    0    0 -0.32976578491E+02  0.18970676742E+02  0.14346598610E+02  0.50528853468E+02  0.29999980602E+02 0.  0.
         12    1    1    2    0    0  0.32976578491E+02 -0.18970676742E+02 -0.14346598610E+02  0.40659146532E+02  0.00000000000E+00 0. -1.
         11    1    3    3    0    0 -0.19260778606E+01 -0.47530024401E+01  0.36290579321E+01  0.62825846477E+01  0.51100000000E-03 0. -1.
        -11    1    3    3    0    0 -0.26667798343E+02  0.26614676023E+02  0.92707632423E+01  0.38800251283E+02  0.51100000000E-03 0.  1.
        -12    1    3    3    0    0 -0.43827022871E+01 -0.28909968405E+01  0.14467774352E+01  0.54460175373E+01  0.00000000000E+00 0.  1.
</event>
<event>
 7    1  0.6136531E-013  0.5052886E+02  0.7816164E-02  0.1300439E+00
        -11   -1    0    0    0    0  0.00000000000E+00  0.00000000000E+00  0.45593999997E+02  0.45594000000E+02  0.51100000000E-03 0. -1.
         11   -1    0    0    0    0 -0.00000000000E+00 -0.00000000000E+00 -0.45593999997E+02  0.45594000000E+02  0.51100000000E-03 0.  1.
    9900012    2    1    2    0    0  0.35363672733E+02 -0.50060771298E+01  0.19429749584E+02  0.50528864172E+02  0.30000013138E+02 0.  0.
         12    1    1    2    0    0 -0.35363672733E+02  0.50060771298E+01 -0.19429749584E+02  0.40659135828E+02  0.00000000000E+00 0. -1.
         11    1    3    3    0    0  0.12811167449E+02  0.84200208731E+01  0.78248504529E+01  0.17211944916E+02  0.51100000000E-03 0. -1.
        -11    1    3    3    0    0  0.19673607866E+00 -0.73949507201E+01  0.59187528599E+01  0.94739451611E+01  0.51100000000E-03 0.  1.
        -12    1    3    3    0    0  0.22355769205E+02 -0.60311472827E+01  0.56861462708E+01  0.23842974095E+02  0.00000000000E+00 0.  1.
</event>
<event>
 7    1  0.6136531E-013  0.5052886E+02  0.7816164E-02  0.1300439E+00
        -11   -1    0    0    0    0  0.00000000000E+00  0.00000000000E+00  0.45593999997E+02  0.45594000000E+02  0.51100000000E-03 0.  1.
         11   -1    0    0    0    0 -0.00000000000E+00 -0.00000000000E+00 -0.45593999997E+02  0.45594000000E+02  0.51100000000E-03 0. -1.
    9900012    2    1    2    0    0 -0.32241350222E+02  0.17975136992E+02  0.17045685959E+02  0.50528860513E+02  0.30000002015E+02 0.  0.
         12    1    1    2    0    0  0.32241350222E+02 -0.17975136992E+02 -0.17045685959E+02  0.40659139487E+02  0.00000000000E+00 0. -1.
         11    1    3    3    0    0  0.28482526694E+01  0.76537778804E+01  0.16227278372E+00  0.81681816722E+01  0.51100000000E-03 0. -1.
        -11    1    3    3    0    0 -0.27858482926E+02  0.13457343326E+02  0.12774662982E+02  0.33472185093E+02  0.51100000000E-03 0.  1.
         12    1    3    3    0    0 -0.72311199657E+01 -0.31359842150E+01  0.41087501934E+01  0.88884937479E+01  0.00000000000E+00 0. -1.
</event>
<event>
 7    1  0.6136531E-013  0.5052884E+02  0.7816164E-02  0.1300439E+00
        -11   -1    0    0    0    0  0.00000000000E+00  0.00000000000E+00  0.45593999997E+02  0.45594000000E+02  0.51100000000E-03 0.  1.
         11   -1    0    0    0    0 -0.00000000000E+00 -0.00000000000E+00 -0.45593999997E+02  0.45594000000E+02  0.51100000000E-03 0. -1.
    9900012    2    1    2    0    0  0.14359580199E+02  0.65331424793E+01  0.37473825241E+02  0.50528842700E+02  0.29999947871E+02 0.  0.
         12    1    1    2    0    0 -0.14359580199E+02 -0.65331424793E+01 -0.37473825241E+02  0.40659157300E+02  0.00000000000E+00 0. -1.
         11    1    3    3    0    0 -0.16007186479E+01 -0.89756597798E+01  0.65662640375E+01  0.11235683884E+02  0.51100000000E-03 0. -1.
        -11    1    3    3    0    0  0.26677528729E+00  0.51993963240E+01  0.93747359164E+01  0.10723365374E+02  0.51100000000E-03 0.  1.
         12    1    3    3    0    0  0.15693523559E+02  0.10309405935E+02  0.21532825287E+02  0.28569793442E+02  0.00000000000E+00 0. -1.
</event>
<event>
 7    1  0.6136531E-013  0.5052886E+02  0.7816164E-02  0.1300439E+00
        -11   -1    0    0    0    0  0.00000000000E+00  0.00000000000E+00  0.45593999997E+02  0.45594000000E+02  0.51100000000E-03 0. -1.
         11   -1    0    0    0    0 -0.00000000000E+00 -0.00000000000E+00 -0.45593999997E+02  0.45594000000E+02  0.51100000000E-03 0.  1.
    9900012    2    1    2    0    0  0.39983223662E+02  0.26878160365E+01 -0.68762722883E+01  0.50528860191E+02  0.30000001037E+02 0.  0.
         12    1    1    2    0    0 -0.39983223662E+02 -0.26878160365E+01  0.68762722883E+01  0.40659139809E+02  0.00000000000E+00 0. -1.
         11    1    3    3    0    0  0.89048631781E+01  0.10527511826E+02  0.19497207186E+01  0.13925749697E+02  0.51100000000E-03 0. -1.
        -11    1    3    3    0    0  0.17518003238E+02  0.15316070120E+01 -0.97256053266E+01  0.20095115245E+02  0.51100000000E-03 0.  1.
         12    1    3    3    0    0  0.13560357246E+02 -0.93713028018E+01  0.89961231969E+00  0.16507995250E+02  0.00000000000E+00 0. -1.
</event>
<event>
 7    1  0.6136531E-013  0.5052886E+02  0.7816164E-02  0.1300439E+00
        -11   -1    0    0    0    0  0.00000000000E+00  0.00000000000E+00  0.45593999997E+02  0.45594000000E+02  0.51100000000E-03 0. -1.
         11   -1    0    0    0    0 -0.00000000000E+00 -0.00000000000E+00 -0.45593999997E+02  0.45594000000E+02  0.51100000000E-03 0.  1.
    9900012    2    1    2    0    0 -0.10257730313E+02  0.35842079780E+02 -0.16226219953E+02  0.50528856772E+02  0.29999990643E+02 0.  0.
         12    1    1    2    0    0  0.10257730313E+02 -0.35842079780E+02  0.16226219953E+02  0.40659143228E+02  0.00000000000E+00 0. -1.
         11    1    3    3    0    0 -0.76101095908E+01  0.21462291743E+02 -0.91543915540E+01  0.24542750861E+02  0.51100000000E-03 0. -1.
        -11    1    3    3    0    0  0.44179931509E+01 -0.91636703531E+00 -0.79205371401E+01  0.91155526916E+01  0.51100000000E-03 0.  1.
        -12    1    3    3    0    0 -0.70656138733E+01  0.15296155072E+02  0.84870874116E+00  0.16870553219E+02  0.00000000000E+00 0.  1.
</event>
<event>
 7    1  0.6136531E-013  0.5052885E+02  0.7816164E-02  0.1300439E+00
        -11   -1    0    0    0    0  0.00000000000E+00  0.00000000000E+00  0.45593999997E+02  0.45594000000E+02  0.51100000000E-03 0.  1.
         11   -1    0    0    0    0 -0.00000000000E+00 -0.00000000000E+00 -0.45593999997E+02  0.45594000000E+02  0.51100000000E-03 0. -1.
    9900012    2    1    2    0    0  0.22914751783E+02  0.18618840194E+02  0.27953886773E+02  0.50528845494E+02  0.29999956362E+02 0.  0.
         12    1    1    2    0    0 -0.22914751783E+02 -0.18618840194E+02 -0.27953886773E+02  0.40659154506E+02  0.00000000000E+00 0. -1.
         11    1    3    3    0    0  0.87489388275E+01 -0.18779897705E+01  0.18257222749E+02  0.20332165624E+02  0.51100000000E-03 0. -1.
        -11    1    3    3    0    0  0.88212715570E+01  0.99995357793E+01 -0.21312971291E+01  0.13503628231E+02  0.51100000000E-03 0.  1.
         12    1    3    3    0    0  0.53445413984E+01  0.10497294185E+02  0.11827961153E+02  0.16693051639E+02  0.00000000000E+00 0. -1.
</event>
<event>
 7    1  0.6136531E-013  0.5052886E+02  0.7816164E-02  0.1300439E+00
        -11   -1    0    0    0    0  0.00000000000E+00  0.00000000000E+00  0.45593999997E+02  0.45594000000E+02  0.51100000000E-03 0. -1.
         11   -1    0    0    0    0 -0.00000000000E+00 -0.00000000000E+00 -0.45593999997E+02  0.45594000000E+02  0.51100000000E-03 0.  1.
    9900012    2    1    2    0    0 -0.23564672622E+02  0.17180570630E+02 -0.28331954590E+02  0.50528862603E+02  0.30000008369E+02 0.  0.
         12    1    1    2    0    0  0.23564672622E+02 -0.17180570630E+02  0.28331954590E+02  0.40659137397E+02  0.00000000000E+00 0. -1.
         11    1    3    3    0    0 -0.14615075726E+02  0.15565054677E+02 -0.29579567698E+02  0.36480435730E+02  0.51100000000E-03 0. -1.
        -11    1    3    3    0    0  0.11673995749E+01  0.18191581900E+01 -0.24570921079E+01  0.32725311573E+01  0.51100000000E-03 0.  1.
         12    1    3    3    0    0 -0.10116996471E+02 -0.20364223734E+00  0.37047052158E+01  0.10775895716E+02  0.00000000000E+00 0. -1.
</event>
<event>
 7    1  0.6136531E-013  0.5052886E+02  0.7816164E-02  0.1300439E+00
        -11   -1    0    0    0    0  0.00000000000E+00  0.00000000000E+00  0.45593999997E+02  0.45594000000E+02  0.51100000000E-03 0.  1.
         11   -1    0    0    0    0 -0.00000000000E+00 -0.00000000000E+00 -0.45593999997E+02  0.45594000000E+02  0.51100000000E-03 0. -1.
    9900012    2    1    2    0    0  0.35831456352E+02 -0.15555104543E+02 -0.11283213275E+02  0.50528862731E+02  0.30000008757E+02 0.  0.
         12    1    1    2    0    0 -0.35831456352E+02  0.15555104543E+02  0.11283213275E+02  0.40659137269E+02  0.00000000000E+00 0. -1.
         11    1    3    3    0    0 -0.23034346817E+01  0.24846081721E+01  0.26420131296E+01  0.42964313959E+01  0.51100000000E-03 0. -1.
        -11    1    3    3    0    0  0.30089227101E+02 -0.86852922581E+01 -0.70262314688E+01  0.32096165161E+02  0.51100000000E-03 0.  1.
         12    1    3    3    0    0  0.80456639326E+01 -0.93544204569E+01 -0.68989949362E+01  0.14136266174E+02  0.00000000000E+00 0. -1.
</event>
<event>
 7    1  0.6136531E-013  0.5052887E+02  0.7816164E-02  0.1300439E+00
        -11   -1    0    0    0    0  0.00000000000E+00  0.00000000000E+00  0.45593999997E+02  0.45594000000E+02  0.51100000000E-03 0. -1.
         11   -1    0    0    0    0 -0.00000000000E+00 -0.00000000000E+00 -0.45593999997E+02  0.45594000000E+02  0.51100000000E-03 0.  1.
    9900012    2    1    2    0    0 -0.13636331785E+02 -0.30694383792E+02  0.22914409622E+02  0.50528869301E+02  0.30000028726E+02 0.  0.
         12    1    1    2    0    0  0.13636331785E+02  0.30694383792E+02 -0.22914409622E+02  0.40659130699E+02  0.00000000000E+00 0. -1.
         11    1    3    3    0    0  0.14415854574E+01 -0.20604088046E+02  0.63044843197E+01  0.21595210943E+02  0.51100000000E-03 0.  1.
        -11    1    3    3    0    0 -0.15404817642E+02 -0.66093375368E+01  0.60683527540E+01  0.17827413011E+02  0.51100000000E-03 0. -1.
        -12    1    3    3    0    0  0.32690039940E+00 -0.34809582085E+01  0.10541572548E+02  0.11106245347E+02  0.00000000000E+00 0.  1.
</event>
<event>
 7    1  0.6136531E-013  0.5052886E+02  0.7816164E-02  0.1300439E+00
        -11   -1    0    0    0    0  0.00000000000E+00  0.00000000000E+00  0.45593999997E+02  0.45594000000E+02  0.51100000000E-03 0.  1.
         11   -1    0    0    0    0 -0.00000000000E+00 -0.00000000000E+00 -0.45593999997E+02  0.45594000000E+02  0.51100000000E-03 0. -1.
    9900012    2    1    2    0    0  0.91605792589E+01 -0.32903006644E+02  0.22059952995E+02  0.50528860994E+02  0.30000003477E+02 0.  0.
         12    1    1    2    0    0 -0.91605792589E+01  0.32903006644E+02 -0.22059952995E+02  0.40659139006E+02  0.00000000000E+00 0. -1.
         11    1    3    3    0    0 -0.59948588471E+01 -0.11199647210E+02 -0.24726348653E+01  0.12941574620E+02  0.51100000000E-03 0. -1.
        -11    1    3    3    0    0  0.15110412936E+02 -0.16164228092E+02  0.15588278944E+02  0.27066608387E+02  0.51100000000E-03 0.  1.
         12    1    3    3    0    0  0.45025170479E-01 -0.55391313429E+01  0.89443089165E+01  0.10520677986E+02  0.00000000000E+00 0. -1.
</event>
<event>
 7    1  0.6136531E-013  0.5052886E+02  0.7816164E-02  0.1300439E+00
        -11   -1    0    0    0    0  0.00000000000E+00  0.00000000000E+00  0.45593999997E+02  0.45594000000E+02  0.51100000000E-03 0.  1.
         11   -1    0    0    0    0 -0.00000000000E+00 -0.00000000000E+00 -0.45593999997E+02  0.45594000000E+02  0.51100000000E-03 0. -1.
    9900012    2    1    2    0    0  0.32707571888E+02 -0.20913565058E+02  0.12083191760E+02  0.50528856067E+02  0.29999988500E+02 0.  0.
         12    1    1    2    0    0 -0.32707571888E+02  0.20913565058E+02 -0.12083191760E+02  0.40659143933E+02  0.00000000000E+00 0. -1.
         11    1    3    3    0    0  0.94300897671E+00  0.13398192946E+01 -0.47548083361E+01  0.50291733165E+01  0.51100000000E-03 0. -1.
        -11    1    3    3    0    0  0.29312868634E+02 -0.13687334092E+02  0.17086936564E+02  0.36586210292E+02  0.51100000000E-03 0.  1.
        -12    1    3    3    0    0  0.24516942773E+01 -0.85660502606E+01 -0.24893646778E+00  0.89134724581E+01  0.00000000000E+00 0.  1.
</event>
<event>
 7    1  0.6136531E-013  0.5052885E+02  0.7816164E-02  0.1300439E+00
        -11   -1    0    0    0    0  0.00000000000E+00  0.00000000000E+00  0.45593999997E+02  0.45594000000E+02  0.51100000000E-03 0.  1.
         11   -1    0    0    0    0 -0.00000000000E+00 -0.00000000000E+00 -0.45593999997E+02  0.45594000000E+02  0.51100000000E-03 0. -1.
    9900012    2    1    2    0    0 -0.74467937819E+01  0.39524306353E+02  0.59615890391E+01  0.50528854975E+02  0.29999985181E+02 0.  0.
         12    1    1    2    0    0  0.74467937819E+01 -0.39524306353E+02 -0.59615890391E+01  0.40659145025E+02  0.00000000000E+00 0. -1.
         11    1    3    3    0    0 -0.11094471985E+02  0.17983152002E+01  0.63613686714E+00  0.11257260616E+02  0.51100000000E-03 0. -1.
        -11    1    3    3    0    0 -0.26755770321E+01  0.16052623759E+02  0.11760708211E+01  0.16316512644E+02  0.51100000000E-03 0.  1.
         12    1    3    3    0    0  0.63232552357E+01  0.21673367394E+02  0.41493813509E+01  0.22955081715E+02  0.00000000000E+00 0. -1.
</event>
<event>
 7    1  0.6136531E-013  0.5052886E+02  0.7816164E-02  0.1300439E+00
        -11   -1    0    0    0    0  0.00000000000E+00  0.00000000000E+00  0.45593999997E+02  0.45594000000E+02  0.51100000000E-03 0.  1.
         11   -1    0    0    0    0 -0.00000000000E+00 -0.00000000000E+00 -0.45593999997E+02  0.45594000000E+02  0.51100000000E-03 0. -1.
    9900012    2    1    2    0    0  0.20181806460E+02  0.25639235095E+02  0.24258811228E+02  0.50528860677E+02  0.30000002514E+02 0.  0.
         12    1    1    2    0    0 -0.20181806460E+02 -0.25639235095E+02 -0.24258811228E+02  0.40659139323E+02  0.00000000000E+00 0. -1.
         11    1    3    3    0    0 -0.10282828368E+01  0.10334469578E+01 -0.22013730895E+01  0.26403450432E+01  0.51100000000E-03 0. -1.
        -11    1    3    3    0    0  0.16384143707E+02  0.24469944998E+02  0.10581258006E+02  0.31291874257E+02  0.51100000000E-03 0.  1.
        -12    1    3    3    0    0  0.48259455897E+01  0.13584313926E+00  0.15878926312E+02  0.16596641377E+02  0.00000000000E+00 0.  1.
</event>
<event>
 7    1  0.6136531E-013  0.5052886E+02  0.7816164E-02  0.1300439E+00
        -11   -1    0    0    0    0  0.00000000000E+00  0.00000000000E+00  0.45593999997E+02  0.45594000000E+02  0.51100000000E-03 0. -1.
         11   -1    0    0    0    0 -0.00000000000E+00 -0.00000000000E+00 -0.45593999997E+02  0.45594000000E+02  0.51100000000E-03 0.  1.
    9900012    2    1    2    0    0  0.31984677880E+02  0.12165916294E+01 -0.25073209063E+02  0.50528861703E+02  0.30000005634E+02 0.  0.
         12    1    1    2    0    0 -0.31984677880E+02 -0.12165916294E+01  0.25073209063E+02  0.40659138297E+02  0.00000000000E+00 0. -1.
         11    1    3    3    0    0 -0.40170624537E+01 -0.50851813700E+01 -0.13824541907E+01  0.66262387652E+01  0.51100000000E-03 0. -1.
        -11    1    3    3    0    0  0.28962720640E+02  0.40798214570E+01 -0.16423862535E+02  0.33544409233E+02  0.51100000000E-03 0.  1.
         12    1    3    3    0    0  0.70390196942E+01  0.22219515424E+01 -0.72668923380E+01  0.10358213705E+02  0.00000000000E+00 0. -1.
</event>
<event>
 7    1  0.6136531E-013  0.5052892E+02  0.7816164E-02  0.1300439E+00
        -11   -1    0    0    0    0  0.00000000000E+00  0.00000000000E+00  0.45593999997E+02  0.45594000000E+02  0.51100000000E-03 0.  1.
         11   -1    0    0    0    0 -0.00000000000E+00 -0.00000000000E+00 -0.45593999997E+02  0.45594000000E+02  0.51100000000E-03 0. -1.
    9900012    2    1    2    0    0  0.39844217427E+02  0.61659457317E+01 -0.52516830555E+01  0.50528920768E+02  0.30000185165E+02 0.  0.
         12    1    1    2    0    0 -0.39844217427E+02 -0.61659457317E+01  0.52516830555E+01  0.40659079232E+02  0.00000000000E+00 0. -1.
         11    1    3    3    0    0  0.44027297066E+01  0.70883431225E+01 -0.92905869984E+01  0.12487739753E+02  0.51100000000E-03 0. -1.
        -11    1    3    3    0    0  0.14086267738E+02  0.56278776883E+01 -0.78424210861E+00  0.15189173184E+02  0.51100000000E-03 0.  1.
         12    1    3    3    0    0  0.21355219982E+02 -0.65502750790E+01  0.48231460515E+01  0.22852007832E+02  0.00000000000E+00 0. -1.
</event>
<event>
 7    1  0.6136531E-013  0.5052886E+02  0.7816164E-02  0.1300439E+00
        -11   -1    0    0    0    0  0.00000000000E+00  0.00000000000E+00  0.45593999997E+02  0.45594000000E+02  0.51100000000E-03 0.  1.
         11   -1    0    0    0    0 -0.00000000000E+00 -0.00000000000E+00 -0.45593999997E+02  0.45594000000E+02  0.51100000000E-03 0. -1.
    9900012    2    1    2    0    0 -0.92039983910E+01  0.29249895481E+02  0.26700112754E+02  0.50528855972E+02  0.29999988211E+02 0.  0.
         12    1    1    2    0    0  0.92039983910E+01 -0.29249895481E+02 -0.26700112754E+02  0.40659144028E+02  0.00000000000E+00 0. -1.
         11    1    3    3    0    0  0.31855332442E+01  0.51888749722E+01  0.50834358378E+01  0.79317946081E+01  0.51100000000E-03 0. -1.
        -11    1    3    3    0    0 -0.12589250206E+02  0.19000751255E+02  0.26271243969E+01  0.22943834725E+02  0.51100000000E-03 0.  1.
        -12    1    3    3    0    0  0.19971857096E+00  0.50602692536E+01  0.18989552519E+02  0.19653226639E+02  0.00000000000E+00 0.  1.
</event>
<event>
 7    1  0.6136531E-013  0.5052886E+02  0.7816164E-02  0.1300439E+00
        -11   -1    0    0    0    0  0.00000000000E+00  0.00000000000E+00  0.45593999997E+02  0.45594000000E+02  0.51100000000E-03 0. -1.
         11   -1    0    0    0    0 -0.00000000000E+00 -0.00000000000E+00 -0.45593999997E+02  0.45594000000E+02  0.51100000000E-03 0.  1.
    9900012    2    1    2    0    0 -0.13546910248E+02  0.35226873589E+02  0.15123292565E+02  0.50528863535E+02  0.30000011200E+02 0.  0.
         12    1    1    2    0    0  0.13546910248E+02 -0.35226873589E+02 -0.15123292565E+02  0.40659136465E+02  0.00000000000E+00 0. -1.
         11    1    3    3    0    0  0.45523939225E+00  0.10286620001E+02 -0.69141744526E+01  0.12402725611E+02  0.51100000000E-03 0. -1.
        -11    1    3    3    0    0 -0.61770046673E+01  0.19809812747E+02  0.19394465012E+02  0.28402981201E+02  0.51100000000E-03 0.  1.
         12    1    3    3    0    0 -0.78251449728E+01  0.51304408404E+01  0.26430020060E+01  0.97231567233E+01  0.00000000000E+00 0. -1.
</event>
<event>
 7    1  0.6136531E-013  0.5052886E+02  0.7816164E-02  0.1300439E+00
        -11   -1    0    0    0    0  0.00000000000E+00  0.00000000000E+00  0.45593999997E+02  0.45594000000E+02  0.51100000000E-03 0.  1.
         11   -1    0    0    0    0 -0.00000000000E+00 -0.00000000000E+00 -0.45593999997E+02  0.45594000000E+02  0.51100000000E-03 0. -1.
    9900012    2    1    2    0    0  0.14840520067E+02 -0.36944471679E+02  0.82480762824E+01  0.50528858520E+02  0.29999995958E+02 0.  0.
         12    1    1    2    0    0 -0.14840520067E+02  0.36944471679E+02 -0.82480762824E+01  0.40659141480E+02  0.00000000000E+00 0. -1.
         11    1    3    3    0    0  0.10321986653E+02 -0.25950608356E+02  0.13443880334E+02  0.30995409357E+02  0.51100000000E-03 0.  1.
        -11    1    3    3    0    0  0.76502974947E+01 -0.66412083308E+01 -0.85090868398E+01  0.13230164737E+02  0.51100000000E-03 0. -1.
        -12    1    3    3    0    0 -0.31317640798E+01 -0.43526549923E+01  0.33132827881E+01  0.63032844270E+01  0.00000000000E+00 0.  1.
</event>
<event>
 7    1  0.6136531E-013  0.5052887E+02  0.7816164E-02  0.1300439E+00
        -11   -1    0    0    0    0  0.00000000000E+00  0.00000000000E+00  0.45593999997E+02  0.45594000000E+02  0.51100000000E-03 0. -1.
         11   -1    0    0    0    0 -0.00000000000E+00 -0.00000000000E+00 -0.45593999997E+02  0.45594000000E+02  0.51100000000E-03 0.  1.
    9900012    2    1    2    0    0 -0.25188487908E+01  0.36310817440E+02 -0.18120288791E+02  0.50528869067E+02  0.30000028016E+02 0.  0.
         12    1    1    2    0    0  0.25188487908E+01 -0.36310817440E+02  0.18120288791E+02  0.40659130933E+02  0.00000000000E+00 0. -1.
         11    1    3    3    0    0 -0.16377784618E+01  0.13949069261E+02  0.74211561758E+01  0.15884974371E+02  0.51100000000E-03 0. -1.
        -11    1    3    3    0    0 -0.10519097753E+01  0.10164359555E+02 -0.16699355867E+02  0.19577773264E+02  0.51100000000E-03 0.  1.
         12    1    3    3    0    0  0.17083944625E+00  0.12197388624E+02 -0.88420890990E+01  0.15066121431E+02  0.00000000000E+00 0. -1.
</event>
<event>
 7    1  0.6136531E-013  0.5052887E+02  0.7816164E-02  0.1300439E+00
        -11   -1    0    0    0    0  0.00000000000E+00  0.00000000000E+00  0.45593999997E+02  0.45594000000E+02  0.51100000000E-03 0.  1.
         11   -1    0    0    0    0 -0.00000000000E+00 -0.00000000000E+00 -0.45593999997E+02  0.45594000000E+02  0.51100000000E-03 0. -1.
    9900012    2    1    2    0    0 -0.35363201754E+02  0.14817801768E+02  0.13529300216E+02  0.50528865087E+02  0.30000015918E+02 0.  0.
         12    1    1    2    0    0  0.35363201754E+02 -0.14817801768E+02 -0.13529300216E+02  0.40659134913E+02  0.00000000000E+00 0. -1.
         11    1    3    3    0    0 -0.88369768942E+01  0.21091228679E+01 -0.57414367310E+01  0.10747309240E+02  0.51100000000E-03 0. -1.
        -11    1    3    3    0    0 -0.85160220859E+01 -0.23613712710E+01  0.12561036280E+02  0.15358331261E+02  0.51100000000E-03 0.  1.
        -12    1    3    3    0    0 -0.18010202774E+02  0.15070050171E+02  0.67097006665E+01  0.24423224586E+02  0.00000000000E+00 0.  1.
</event>
<event>
 7    1  0.6136531E-013  0.5052883E+02  0.7816164E-02  0.1300439E+00
        -11   -1    0    0    0    0  0.00000000000E+00  0.00000000000E+00  0.45593999997E+02  0.45594000000E+02  0.51100000000E-03 0. -1.
         11   -1    0    0    0    0 -0.00000000000E+00 -0.00000000000E+00 -0.45593999997E+02  0.45594000000E+02  0.51100000000E-03 0.  1.
    9900012    2    1    2    0    0 -0.30919375331E+02 -0.19944884109E+02 -0.17302078859E+02  0.50528829991E+02  0.29999909240E+02 0.  0.
         12    1    1    2    0    0  0.30919375331E+02  0.19944884109E+02  0.17302078859E+02  0.40659170009E+02  0.00000000000E+00 0. -1.
         11    1    3    3    0    0 -0.16079239848E+02 -0.19946220541E+02 -0.44911036994E+00  0.25624116928E+02  0.51100000000E-03 0. -1.
        -11    1    3    3    0    0 -0.89292012553E+01  0.39685932337E+01 -0.47533254198E+01  0.10866207716E+02  0.51100000000E-03 0.  1.
        -12    1    3    3    0    0 -0.59109342279E+01 -0.39672568018E+01 -0.12099643069E+02  0.14038505347E+02  0.00000000000E+00 0.  1.
</event>
<event>
 7    1  0.6136531E-013  0.5052885E+02  0.7816164E-02  0.1300439E+00
        -11   -1    0    0    0    0  0.00000000000E+00  0.00000000000E+00  0.45593999997E+02  0.45594000000E+02  0.51100000000E-03 0.  1.
         11   -1    0    0    0    0 -0.00000000000E+00 -0.00000000000E+00 -0.45593999997E+02  0.45594000000E+02  0.51100000000E-03 0. -1.
    9900012    2    1    2    0    0 -0.22456148181E+02  0.73396550836E+01  0.33091040885E+02  0.50528854477E+02  0.29999983667E+02 0.  0.
         12    1    1    2    0    0  0.22456148181E+02 -0.73396550836E+01 -0.33091040885E+02  0.40659145523E+02  0.00000000000E+00 0. -1.
         11    1    3    3    0    0 -0.26496066826E+02  0.23101428334E+01  0.21836796773E+02  0.34412556004E+02  0.51100000000E-03 0. -1.
        -11    1    3    3    0    0 -0.43305381479E+00  0.31071160054E+01  0.10777067382E+02  0.11224388050E+02  0.51100000000E-03 0.  1.
         12    1    3    3    0    0  0.44729724603E+01  0.19223962448E+01  0.47717672991E+00  0.48919104228E+01  0.00000000000E+00 0. -1.
</event>
<event>
 7    1  0.6136531E-013  0.5052887E+02  0.7816164E-02  0.1300439E+00
        -11   -1    0    0    0    0  0.00000000000E+00  0.00000000000E+00  0.45593999997E+02  0.45594000000E+02  0.51100000000E-03 0.  1.
         11   -1    0    0    0    0 -0.00000000000E+00 -0.00000000000E+00 -0.45593999997E+02  0.45594000000E+02  0.51100000000E-03 0. -1.
    9900012    2    1    2    0    0 -0.26572459469E+02  0.83632721057E+01  0.29616300177E+02  0.50528866233E+02  0.30000019400E+02 0.  0.
         12    1    1    2    0    0  0.26572459469E+02 -0.83632721057E+01 -0.29616300177E+02  0.40659133767E+02  0.00000000000E+00 0. -1.
         11    1    3    3    0    0 -0.21254593716E+02  0.10120789966E+02  0.13702478526E+02  0.27238686855E+02  0.51100000000E-03 0. -1.
        -11    1    3    3    0    0  0.20839092762E+01  0.13141972981E+01  0.15026762699E+02  0.15227389464E+02  0.51100000000E-03 0.  1.
         12    1    3    3    0    0 -0.74017750294E+01 -0.30717151588E+01  0.88705895163E+00  0.80627899133E+01  0.00000000000E+00 0. -1.
</event>
<event>
 7    1  0.6136531E-013  0.5052887E+02  0.7816164E-02  0.1300439E+00
        -11   -1    0    0    0    0  0.00000000000E+00  0.00000000000E+00  0.45593999997E+02  0.45594000000E+02  0.51100000000E-03 0.  1.
         11   -1    0    0    0    0 -0.00000000000E+00 -0.00000000000E+00 -0.45593999997E+02  0.45594000000E+02  0.51100000000E-03 0. -1.
    9900012    2    1    2    0    0  0.35585751643E+02 -0.14438124030E+02  0.13355148673E+02  0.50528866443E+02  0.30000020041E+02 0.  0.
         12    1    1    2    0    0 -0.35585751643E+02  0.14438124030E+02 -0.13355148673E+02  0.40659133557E+02  0.00000000000E+00 0. -1.
         11    1    3    3    0    0  0.16403584291E+02 -0.13962012670E+02 -0.55618739680E+01  0.22247467669E+02  0.51100000000E-03 0. -1.
        -11    1    3    3    0    0  0.18404774651E+02 -0.87525960114E-01  0.13576469720E+02  0.22870590746E+02  0.51100000000E-03 0.  1.
         12    1    3    3    0    0  0.77739270141E+00 -0.38858540011E+00  0.53405529209E+01  0.54108080290E+01  0.00000000000E+00 0. -1.
</event>
<event>
 7    1  0.6136531E-013  0.5052886E+02  0.7816164E-02  0.1300439E+00
        -11   -1    0    0    0    0  0.00000000000E+00  0.00000000000E+00  0.45593999997E+02  0.45594000000E+02  0.51100000000E-03 0. -1.
         11   -1    0    0    0    0 -0.00000000000E+00 -0.00000000000E+00 -0.45593999997E+02  0.45594000000E+02  0.51100000000E-03 0.  1.
    9900012    2    1    2    0    0  0.13469193144E+02  0.18785294493E+02 -0.33449353036E+02  0.50528859925E+02  0.30000000228E+02 0.  0.
         12    1    1    2    0    0 -0.13469193144E+02 -0.18785294493E+02  0.33449353036E+02  0.40659140075E+02  0.00000000000E+00 0. -1.
         11    1    3    3    0    0  0.17851080154E+02  0.16023560581E+01 -0.97760048718E+01  0.20415652797E+02  0.51100000000E-03 0. -1.
        -11    1    3    3    0    0 -0.16897968460E+01  0.14817891461E+02 -0.20318179459E+02  0.25204240467E+02  0.51100000000E-03 0.  1.
         12    1    3    3    0    0 -0.26920901644E+01  0.23650469735E+01 -0.33551687047E+01  0.49089666609E+01  0.00000000000E+00 0. -1.
</event>
<event>
 7    1  0.6136531E-013  0.5052886E+02  0.7816164E-02  0.1300439E+00
        -11   -1    0    0    0    0  0.00000000000E+00  0.00000000000E+00  0.45593999997E+02  0.45594000000E+02  0.51100000000E-03 0.  1.
         11   -1    0    0    0    0 -0.00000000000E+00 -0.00000000000E+00 -0.45593999997E+02  0.45594000000E+02  0.51100000000E-03 0. -1.
    9900012    2    1    2    0    0 -0.24351422725E+02  0.25584422665E+02  0.20139797858E+02  0.50528856753E+02  0.29999990585E+02 0.  0.
         12    1    1    2    0    0  0.24351422725E+02 -0.25584422665E+02 -0.20139797858E+02  0.40659143247E+02  0.00000000000E+00 0. -1.
         11    1    3    3    0    0 -0.47522695276E+01 -0.17640988444E+01  0.89825091500E+01  0.10314144719E+02  0.51100000000E-03 0. -1.
        -11    1    3    3    0    0  0.17015808039E+01  0.10186422539E+02 -0.80551930144E+00  0.10358930591E+02  0.51100000000E-03 0.  1.
        -12    1    3    3    0    0 -0.21300734002E+02  0.17162098970E+02  0.11962808009E+02  0.29855781442E+02  0.00000000000E+00 0.  1.
</event>
<event>
 7    1  0.6136531E-013  0.5052886E+02  0.7816164E-02  0.1300439E+00
        -11   -1    0    0    0    0  0.00000000000E+00  0.00000000000E+00  0.45593999997E+02  0.45594000000E+02  0.51100000000E-03 0.  1.
         11   -1    0    0    0    0 -0.00000000000E+00 -0.00000000000E+00 -0.45593999997E+02  0.45594000000E+02  0.51100000000E-03 0. -1.
    9900012    2    1    2    0    0 -0.13217299448E+02 -0.21182947150E+02  0.32089745249E+02  0.50528855828E+02  0.29999987774E+02 0.  0.
         12    1    1    2    0    0  0.13217299448E+02  0.21182947150E+02 -0.32089745249E+02  0.40659144172E+02  0.00000000000E+00 0. -1.
         11    1    3    3    0    0 -0.20539529772E+00  0.57413378038E+01 -0.94426095884E-01  0.57457865915E+01  0.51100000000E-03 0. -1.
        -11    1    3    3    0    0 -0.92997960677E+01 -0.17819018968E+02  0.15362768858E+02  0.25298583184E+02  0.51100000000E-03 0.  1.
         12    1    3    3    0    0 -0.37121080828E+01 -0.91052659862E+01  0.16821402487E+02  0.19484486052E+02  0.00000000000E+00 0. -1.
</event>
<event>
 7    1  0.6136531E-013  0.5052886E+02  0.7816164E-02  0.1300439E+00
        -11   -1    0    0    0    0  0.00000000000E+00  0.00000000000E+00  0.45593999997E+02  0.45594000000E+02  0.51100000000E-03 0.  1.
         11   -1    0    0    0    0 -0.00000000000E+00 -0.00000000000E+00 -0.45593999997E+02  0.45594000000E+02  0.51100000000E-03 0. -1.
    9900012    2    1    2    0    0  0.29714970834E+02  0.21179555016E+02  0.17933565703E+02  0.50528858086E+02  0.29999994639E+02 0.  0.
         12    1    1    2    0    0 -0.29714970834E+02 -0.21179555016E+02 -0.17933565703E+02  0.40659141914E+02  0.00000000000E+00 0. -1.
         11    1    3    3    0    0  0.15405781676E+02  0.23018192619E+02  0.45059656248E+00  0.27701594503E+02  0.51100000000E-03 0. -1.
        -11    1    3    3    0    0  0.55094428938E+01 -0.11182249157E+01  0.88101213459E+01  0.10450962939E+02  0.51100000000E-03 0.  1.
         12    1    3    3    0    0  0.87997462643E+01 -0.72041268761E+00  0.86728477945E+01  0.12376300644E+02  0.00000000000E+00 0. -1.
</event>
<event>
 7    1  0.6136531E-013  0.5052886E+02  0.7816164E-02  0.1300439E+00
        -11   -1    0    0    0    0  0.00000000000E+00  0.00000000000E+00  0.45593999997E+02  0.45594000000E+02  0.51100000000E-03 0.  1.
         11   -1    0    0    0    0 -0.00000000000E+00 -0.00000000000E+00 -0.45593999997E+02  0.45594000000E+02  0.51100000000E-03 0. -1.
    9900012    2    1    2    0    0 -0.94653603219E+01 -0.27735758037E+02  0.28183341569E+02  0.50528855126E+02  0.29999985641E+02 0.  0.
         12    1    1    2    0    0  0.94653603219E+01  0.27735758037E+02 -0.28183341569E+02  0.40659144874E+02  0.00000000000E+00 0. -1.
         11    1    3    3    0    0 -0.29250198649E+01  0.38056072430E+01  0.14270779639E+02  0.15056345488E+02  0.51100000000E-03 0. -1.
        -11    1    3    3    0    0 -0.54993164688E+01 -0.13818803527E+02  0.66318654768E+01  0.16284454320E+02  0.51100000000E-03 0.  1.
         12    1    3    3    0    0 -0.10410239882E+01 -0.17722561752E+02  0.72806964536E+01  0.19188055317E+02  0.00000000000E+00 0. -1.
</event>
<event>
 7    1  0.6136531E-013  0.5052887E+02  0.7816164E-02  0.1300439E+00
        -11   -1    0    0    0    0  0.00000000000E+00  0.00000000000E+00  0.45593999997E+02  0.45594000000E+02  0.51100000000E-03 0.  1.
         11   -1    0    0    0    0 -0.00000000000E+00 -0.00000000000E+00 -0.45593999997E+02  0.45594000000E+02  0.51100000000E-03 0. -1.
    9900012    2    1    2    0    0 -0.26370318990E+02  0.30342835657E+02  0.60896509089E+01  0.50528865140E+02  0.30000016079E+02 0.  0.
         12    1    1    2    0    0  0.26370318990E+02 -0.30342835657E+02 -0.60896509089E+01  0.40659134860E+02  0.00000000000E+00 0. -1.
         11    1    3    3    0    0  0.25358094098E+01  0.37191280865E+01 -0.32033685675E+01  0.55248360634E+01  0.51100000000E-03 0. -1.
        -11    1    3    3    0    0 -0.31291661172E+02  0.21059822413E+02  0.96708171255E+01  0.38938526977E+02  0.51100000000E-03 0.  1.
        -12    1    3    3    0    0  0.23855327722E+01  0.55638851579E+01 -0.37779764915E+00  0.60655020997E+01  0.00000000000E+00 0.  1.
</event>
<event>
 7    1  0.6136531E-013  0.5052887E+02  0.7816164E-02  0.1300439E+00
        -11   -1    0    0    0    0  0.00000000000E+00  0.00000000000E+00  0.45593999997E+02  0.45594000000E+02  0.51100000000E-03 0. -1.
         11   -1    0    0    0    0 -0.00000000000E+00 -0.00000000000E+00 -0.45593999997E+02  0.45594000000E+02  0.51100000000E-03 0.  1.
    9900012    2    1    2    0    0  0.32089676937E+02 -0.58823133642E+01 -0.24265530117E+02  0.50528869066E+02  0.30000028012E+02 0.  0.
         12    1    1    2    0    0 -0.32089676937E+02  0.58823133642E+01  0.24265530117E+02  0.40659130934E+02  0.00000000000E+00 0. -1.
         11    1    3    3    0    0  0.13526390572E+02  0.52807454962E+01  0.59756574009E+00  0.14532948771E+02  0.51100000000E-03 0. -1.
        -11    1    3    3    0    0  0.98795113886E+01 -0.78896391296E+01 -0.23405291358E+02  0.26601857354E+02  0.51100000000E-03 0.  1.
         12    1    3    3    0    0  0.86837749767E+01 -0.32734197308E+01 -0.14578044999E+01  0.93940629410E+01  0.00000000000E+00 0. -1.
</event>
<event>
 7    1  0.6136531E-013  0.5052887E+02  0.7816164E-02  0.1300439E+00
        -11   -1    0    0    0    0  0.00000000000E+00  0.00000000000E+00  0.45593999997E+02  0.45594000000E+02  0.51100000000E-03 0. -1.
         11   -1    0    0    0    0 -0.00000000000E+00 -0.00000000000E+00 -0.45593999997E+02  0.45594000000E+02  0.51100000000E-03 0.  1.
    9900012    2    1    2    0    0 -0.37958127726E+02  0.10119339389E+02  0.10485444789E+02  0.50528867661E+02  0.30000023742E+02 0.  0.
         12    1    1    2    0    0  0.37958127726E+02 -0.10119339389E+02 -0.10485444789E+02  0.40659132339E+02  0.00000000000E+00 0. -1.
         11    1    3    3    0    0 -0.15685373452E+01 -0.24853728604E+01  0.44162035532E+01  0.53047376696E+01  0.51100000000E-03 0. -1.
        -11    1    3    3    0    0 -0.24868304740E+02  0.19150439958E+02  0.60921018472E+01  0.31973201848E+02  0.51100000000E-03 0.  1.
        -12    1    3    3    0    0 -0.11521285641E+02 -0.65457277084E+01 -0.22860611596E-01  0.13250928143E+02  0.00000000000E+00 0.  1.
</event>
<event>
 7    1  0.6136531E-013  0.5052886E+02  0.7816164E-02  0.1300439E+00
        -11   -1    0    0    0    0  0.00000000000E+00  0.00000000000E+00  0.45593999997E+02  0.45594000000E+02  0.51100000000E-03 0. -1.
         11   -1    0    0    0    0 -0.00000000000E+00 -0.00000000000E+00 -0.45593999997E+02  0.45594000000E+02  0.51100000000E-03 0.  1.
    9900012    2    1    2    0    0 -0.39311485964E+02  0.93397127547E+01  0.45323901257E+01  0.50528859290E+02  0.29999998297E+02 0.  0.
         12    1    1    2    0    0  0.39311485964E+02 -0.93397127547E+01 -0.45323901257E+01  0.40659140710E+02  0.00000000000E+00 0. -1.
         11    1    3    3    0    0  0.26833296608E+01  0.10037789671E+01  0.51686842556E+01  0.59095792979E+01  0.51100000000E-03 0. -1.
        -11    1    3    3    0    0 -0.12945264468E+02  0.52927645408E+01 -0.54631249967E+01  0.15014624991E+02  0.51100000000E-03 0.  1.
         12    1    3    3    0    0 -0.29049551157E+02  0.30431692467E+01  0.48268308669E+01  0.29604655001E+02  0.00000000000E+00 0. -1.
</event>
<event>
 7    1  0.6136531E-013  0.5052888E+02  0.7816164E-02  0.1300439E+00
        -11   -1    0    0    0    0  0.00000000000E+00  0.00000000000E+00  0.45593999997E+02  0.45594000000E+02  0.51100000000E-03 0. -1.
         11   -1    0    0    0    0 -0.00000000000E+00 -0.00000000000E+00 -0.45593999997E+02  0.45594000000E+02  0.51100000000E-03 0.  1.
    9900012    2    1    2    0    0 -0.12657083750E+02  0.19253030154E-02 -0.38638867254E+02  0.50528882505E+02  0.30000068863E+02 0.  0.
         12    1    1    2    0    0  0.12657083750E+02 -0.19253030154E-02  0.38638867254E+02  0.40659117495E+02  0.00000000000E+00 0. -1.
         11    1    3    3    0    0 -0.52337895699E+01 -0.53913503216E+01 -0.55888276182E+01  0.93645184585E+01  0.51100000000E-03 0. -1.
        -11    1    3    3    0    0  0.63308427686E+01  0.67417106679E+01 -0.20527955526E+02  0.22515043665E+02  0.51100000000E-03 0.  1.
        -12    1    3    3    0    0 -0.13754136948E+02 -0.13484350433E+01 -0.12522084110E+02  0.18649320382E+02  0.00000000000E+00 0.  1.
</event>
<event>
 7    1  0.6136531E-013  0.5052886E+02  0.7816164E-02  0.1300439E+00
        -11   -1    0    0    0    0  0.00000000000E+00  0.00000000000E+00  0.45593999997E+02  0.45594000000E+02  0.51100000000E-03 0.  1.
         11   -1    0    0    0    0 -0.00000000000E+00 -0.00000000000E+00 -0.45593999997E+02  0.45594000000E+02  0.51100000000E-03 0. -1.
    9900012    2    1    2    0    0 -0.28859593668E+02  0.22669063340E+02 -0.17504365304E+02  0.50528863461E+02  0.30000010975E+02 0.  0.
         12    1    1    2    0    0  0.28859593668E+02 -0.22669063340E+02  0.17504365304E+02  0.40659136539E+02  0.00000000000E+00 0. -1.
         11    1    3    3    0    0  0.92606773154E+00  0.13983005196E+02 -0.60536272642E+01  0.15265269047E+02  0.51100000000E-03 0. -1.
        -11    1    3    3    0    0 -0.16087326614E+02  0.85283612253E+01 -0.11552913850E+02  0.21563970911E+02  0.51100000000E-03 0.  1.
         12    1    3    3    0    0 -0.13698334786E+02  0.15769691900E+00  0.10217581000E+00  0.13699623503E+02  0.00000000000E+00 0. -1.
</event>
<event>
 7    1  0.6136531E-013  0.5052886E+02  0.7816164E-02  0.1300439E+00
        -11   -1    0    0    0    0  0.00000000000E+00  0.00000000000E+00  0.45593999997E+02  0.45594000000E+02  0.51100000000E-03 0.  1.
         11   -1    0    0    0    0 -0.00000000000E+00 -0.00000000000E+00 -0.45593999997E+02  0.45594000000E+02  0.51100000000E-03 0. -1.
    9900012    2    1    2    0    0  0.58912652246E+01 -0.73836230707E+01  0.39546690123E+02  0.50528860864E+02  0.30000003083E+02 0.  0.
         12    1    1    2    0    0 -0.58912652246E+01  0.73836230707E+01 -0.39546690123E+02  0.40659139136E+02  0.00000000000E+00 0. -1.
         11    1    3    3    0    0 -0.77633902881E+01 -0.10910015646E+02  0.30573243259E+02  0.33376966216E+02  0.51100000000E-03 0. -1.
        -11    1    3    3    0    0  0.92818728278E+01  0.41107774200E+01  0.55635468190E+01  0.11576040241E+02  0.51100000000E-03 0.  1.
         12    1    3    3    0    0  0.43727826849E+01 -0.58438484509E+00  0.34099000453E+01  0.55758544077E+01  0.00000000000E+00 0. -1.
</event>
<event>
 7    1  0.6136531E-013  0.5052885E+02  0.7816164E-02  0.1300439E+00
        -11   -1    0    0    0    0  0.00000000000E+00  0.00000000000E+00  0.45593999997E+02  0.45594000000E+02  0.51100000000E-03 0. -1.
         11   -1    0    0    0    0 -0.00000000000E+00 -0.00000000000E+00 -0.45593999997E+02  0.45594000000E+02  0.51100000000E-03 0.  1.
    9900012    2    1    2    0    0 -0.59151567254E+00 -0.14201106750E+02 -0.38093897700E+02  0.50528851390E+02  0.29999974285E+02 0.  0.
         12    1    1    2    0    0  0.59151567254E+00  0.14201106750E+02  0.38093897700E+02  0.40659148610E+02  0.00000000000E+00 0. -1.
         11    1    3    3    0    0  0.11224216159E+01  0.60547430093E+01 -0.15643667919E+01  0.63535019409E+01  0.51100000000E-03 0. -1.
        -11    1    3    3    0    0 -0.67319120054E+01 -0.68154999499E+01 -0.20716156423E+02  0.22823865054E+02  0.51100000000E-03 0.  1.
         12    1    3    3    0    0  0.50179747169E+01 -0.13440349810E+02 -0.15813374485E+02  0.21351484395E+02  0.00000000000E+00 0. -1.
</event>
<event>
 7    1  0.6136531E-013  0.5052886E+02  0.7816164E-02  0.1300439E+00
        -11   -1    0    0    0    0  0.00000000000E+00  0.00000000000E+00  0.45593999997E+02  0.45594000000E+02  0.51100000000E-03 0. -1.
         11   -1    0    0    0    0 -0.00000000000E+00 -0.00000000000E+00 -0.45593999997E+02  0.45594000000E+02  0.51100000000E-03 0.  1.
    9900012    2    1    2    0    0  0.21555239259E+02 -0.17076924204E+02 -0.29948552840E+02  0.50528862073E+02  0.30000006757E+02 0.  0.
         12    1    1    2    0    0 -0.21555239259E+02  0.17076924204E+02  0.29948552840E+02  0.40659137927E+02  0.00000000000E+00 0. -1.
         11    1    3    3    0    0  0.97226727830E+01 -0.61781381108E+01 -0.88349059708E+01  0.14517414382E+02  0.51100000000E-03 0. -1.
        -11    1    3    3    0    0 -0.65814945786E+01  0.63051791512E+00 -0.89030662533E+01  0.11089554216E+02  0.51100000000E-03 0.  1.
        -12    1    3    3    0    0  0.18414061055E+02 -0.11529304008E+02 -0.12210580615E+02  0.24921893476E+02  0.00000000000E+00 0.  1.
</event>
<event>
 7    1  0.6136531E-013  0.5052890E+02  0.7816164E-02  0.1300439E+00
        -11   -1    0    0    0    0  0.00000000000E+00  0.00000000000E+00  0.45593999997E+02  0.45594000000E+02  0.51100000000E-03 0. -1.
         11   -1    0    0    0    0 -0.00000000000E+00 -0.00000000000E+00 -0.45593999997E+02  0.45594000000E+02  0.51100000000E-03 0.  1.
    9900012    2    1    2    0    0  0.30407826675E+02 -0.26849810865E+02 -0.27593042848E+01  0.50528904747E+02  0.30000136470E+02 0.  0.
         12    1    1    2    0    0 -0.30407826675E+02  0.26849810865E+02  0.27593042848E+01  0.40659095253E+02  0.00000000000E+00 0. -1.
         11    1    3    3    0    0 -0.21997952571E+00 -0.13037893023E+02  0.79481721134E+00  0.13063949638E+02  0.51100000000E-03 0. -1.
        -11    1    3    3    0    0  0.21923804262E+02 -0.17130599538E+02 -0.41502518868E+01  0.28130681201E+02  0.51100000000E-03 0.  1.
         12    1    3    3    0    0  0.87040019391E+01  0.33186816962E+01  0.59613039063E+00  0.93342739085E+01  0.00000000000E+00 0. -1.
</event>
<event>
 7    1  0.6136531E-013  0.5052886E+02  0.7816164E-02  0.1300439E+00
        -11   -1    0    0    0    0  0.00000000000E+00  0.00000000000E+00  0.45593999997E+02  0.45594000000E+02  0.51100000000E-03 0.  1.
         11   -1    0    0    0    0 -0.00000000000E+00 -0.00000000000E+00 -0.45593999997E+02  0.45594000000E+02  0.51100000000E-03 0. -1.
    9900012    2    1    2    0    0  0.25259728901E+01 -0.38846436726E+02  0.11736239082E+02  0.50528862120E+02  0.30000006900E+02 0.  0.
         12    1    1    2    0    0 -0.25259728901E+01  0.38846436726E+02 -0.11736239082E+02  0.40659137880E+02  0.00000000000E+00 0. -1.
         11    1    3    3    0    0  0.14892827871E+01 -0.40210654602E+01 -0.34413318797E+01  0.54981538740E+01  0.51100000000E-03 0. -1.
        -11    1    3    3    0    0  0.16280519055E+01 -0.35452089632E+02  0.19588410929E+02  0.40536490416E+02  0.51100000000E-03 0.  1.
        -12    1    3    3    0    0 -0.59136180252E+00  0.62671836576E+00 -0.44108399672E+01  0.44942178304E+01  0.00000000000E+00 0.  1.
</event>
<event>
 7    1  0.6136531E-013  0.5052883E+02  0.7816164E-02  0.1300439E+00
        -11   -1    0    0    0    0  0.00000000000E+00  0.00000000000E+00  0.45593999997E+02  0.45594000000E+02  0.51100000000E-03 0.  1.
         11   -1    0    0    0    0 -0.00000000000E+00 -0.00000000000E+00 -0.45593999997E+02  0.45594000000E+02  0.51100000000E-03 0. -1.
    9900012    2    1    2    0    0 -0.21465389075E+02 -0.34380729480E+02 -0.32203202967E+01  0.50528831901E+02  0.29999915045E+02 0.  0.
         12    1    1    2    0    0  0.21465389075E+02  0.34380729480E+02  0.32203202967E+01  0.40659168099E+02  0.00000000000E+00 0. -1.
         11    1    3    3    0    0 -0.13699764013E+02 -0.11114277183E+01 -0.24627593165E+00  0.13746979947E+02  0.51100000000E-03 0.  1.
        -11    1    3    3    0    0 -0.34974798617E+01 -0.32025247018E+02 -0.26189451325E+01  0.32321938151E+02  0.51100000000E-03 0. -1.
         12    1    3    3    0    0 -0.42681452009E+01 -0.12440547437E+01 -0.35509923254E+00  0.44599138026E+01  0.00000000000E+00 0. -1.
</event>
<event>
 7    1  0.6136531E-013  0.5052885E+02  0.7816164E-02  0.1300439E+00
        -11   -1    0    0    0    0  0.00000000000E+00  0.00000000000E+00  0.45593999997E+02  0.45594000000E+02  0.51100000000E-03 0. -1.
         11   -1    0    0    0    0 -0.00000000000E+00 -0.00000000000E+00 -0.45593999997E+02  0.45594000000E+02  0.51100000000E-03 0.  1.
    9900012    2    1    2    0    0 -0.37911848759E+02 -0.97766931091E+01 -0.10966975079E+02  0.50528849162E+02  0.29999967513E+02 0.  0.
         12    1    1    2    0    0  0.37911848759E+02  0.97766931091E+01  0.10966975079E+02  0.40659150838E+02  0.00000000000E+00 0. -1.
         11    1    3    3    0    0 -0.15387557374E+01 -0.49979519431E+01  0.76118205050E+01  0.92351017594E+01  0.51100000000E-03 0. -1.
        -11    1    3    3    0    0 -0.10607419776E+02 -0.24056221658E+01 -0.70866542834E+01  0.12981719512E+02  0.51100000000E-03 0.  1.
         12    1    3    3    0    0 -0.25765673246E+02 -0.23731190001E+01 -0.11492141300E+02  0.28312027890E+02  0.00000000000E+00 0. -1.
</event>
<event>
 7    1  0.6136531E-013  0.5052885E+02  0.7816164E-02  0.1300439E+00
        -11   -1    0    0    0    0  0.00000000000E+00  0.00000000000E+00  0.45593999997E+02  0.45594000000E+02  0.51100000000E-03 0.  1.
         11   -1    0    0    0    0 -0.00000000000E+00 -0.00000000000E+00 -0.45593999997E+02  0.45594000000E+02  0.51100000000E-03 0. -1.
    9900012    2    1    2    0    0  0.37034167671E+01 -0.40396282789E+02  0.27552554559E+01  0.50528851072E+02  0.29999973319E+02 0.  0.
         12    1    1    2    0    0 -0.37034167671E+01  0.40396282789E+02 -0.27552554559E+01  0.40659148928E+02  0.00000000000E+00 0. -1.
         11    1    3    3    0    0 -0.37863015138E+01 -0.16434023987E+01 -0.36475808995E+01  0.55083298083E+01  0.51100000000E-03 0. -1.
        -11    1    3    3    0    0  0.94579059162E+01 -0.37530078484E+02  0.52999479507E+00  0.38707101029E+02  0.51100000000E-03 0.  1.
        -12    1    3    3    0    0 -0.19681876352E+01 -0.12228019064E+01  0.58728415603E+01  0.63134202349E+01  0.00000000000E+00 0.  1.
</event>
<event>
 7    1  0.6136531E-013  0.5052884E+02  0.7816164E-02  0.1300439E+00
        -11   -1    0    0    0    0  0.00000000000E+00  0.00000000000E+00  0.45593999997E+02  0.45594000000E+02  0.51100000000E-03 0.  1.
         11   -1    0    0    0    0 -0.00000000000E+00 -0.00000000000E+00 -0.45593999997E+02  0.45594000000E+02  0.51100000000E-03 0. -1.
    9900012    2    1    2    0    0 -0.36897685901E+02 -0.15987149418E+02  0.60116154699E+01  0.50528835081E+02  0.29999924712E+02 0.  0.
         12    1    1    2    0    0  0.36897685901E+02  0.15987149418E+02 -0.60116154699E+01  0.40659164919E+02  0.00000000000E+00 0. -1.
         11    1    3    3    0    0 -0.10841292078E+02 -0.11669527843E+02 -0.10081578455E+02  0.18850721960E+02  0.51100000000E-03 0. -1.
        -11    1    3    3    0    0 -0.21876607173E+02 -0.61156496202E+01  0.13855205085E+02  0.26607401600E+02  0.51100000000E-03 0.  1.
         12    1    3    3    0    0 -0.41797866498E+01  0.17980280448E+01  0.22379888402E+01  0.50707115218E+01  0.00000000000E+00 0. -1.
</event>
<event>
 7    1  0.6136531E-013  0.5052888E+02  0.7816164E-02  0.1300439E+00
        -11   -1    0    0    0    0  0.00000000000E+00  0.00000000000E+00  0.45593999997E+02  0.45594000000E+02  0.51100000000E-03 0.  1.
         11   -1    0    0    0    0 -0.00000000000E+00 -0.00000000000E+00 -0.45593999997E+02  0.45594000000E+02  0.51100000000E-03 0. -1.
    9900012    2    1    2    0    0 -0.33406124204E+02 -0.16409968908E+01  0.23119303090E+02  0.50528878262E+02  0.30000055965E+02 0.  0.
         12    1    1    2    0    0  0.33406124204E+02  0.16409968908E+01 -0.23119303090E+02  0.40659121738E+02  0.00000000000E+00 0. -1.
         11    1    3    3    0    0 -0.29063350201E+02  0.65686030877E+01  0.22003935239E+02  0.37040491867E+02  0.51100000000E-03 0.  1.
        -11    1    3    3    0    0  0.87969163919E+00 -0.29266185800E+01 -0.35748620994E+01  0.47030408230E+01  0.51100000000E-03 0. -1.
        -12    1    3    3    0    0 -0.52224656420E+01 -0.52829813985E+01  0.46902299503E+01  0.87853455723E+01  0.00000000000E+00 0.  1.
</event>
<event>
 7    1  0.6136531E-013  0.5052886E+02  0.7816164E-02  0.1300439E+00
        -11   -1    0    0    0    0  0.00000000000E+00  0.00000000000E+00  0.45593999997E+02  0.45594000000E+02  0.51100000000E-03 0.  1.
         11   -1    0    0    0    0 -0.00000000000E+00 -0.00000000000E+00 -0.45593999997E+02  0.45594000000E+02  0.51100000000E-03 0. -1.
    9900012    2    1    2    0    0 -0.16171742230E+02  0.31048423755E+02  0.20679358258E+02  0.50528859301E+02  0.29999998332E+02 0.  0.
         12    1    1    2    0    0  0.16171742230E+02 -0.31048423755E+02 -0.20679358258E+02  0.40659140699E+02  0.00000000000E+00 0. -1.
         11    1    3    3    0    0 -0.44202887034E+01  0.56757085269E+01  0.32894342315E+01  0.79103095595E+01  0.51100000000E-03 0. -1.
        -11    1    3    3    0    0  0.19101744182E+01  0.24912854186E+02  0.88818895497E+01  0.26517673960E+02  0.51100000000E-03 0.  1.
        -12    1    3    3    0    0 -0.13661627945E+02  0.45986104194E+00  0.85080344764E+01  0.16100875782E+02  0.00000000000E+00 0.  1.
</event>
<event>
 7    1  0.6136531E-013  0.5052886E+02  0.7816164E-02  0.1300439E+00
        -11   -1    0    0    0    0  0.00000000000E+00  0.00000000000E+00  0.45593999997E+02  0.45594000000E+02  0.51100000000E-03 0.  1.
         11   -1    0    0    0    0 -0.00000000000E+00 -0.00000000000E+00 -0.45593999997E+02  0.45594000000E+02  0.51100000000E-03 0. -1.
    9900012    2    1    2    0    0  0.11579723384E+02 -0.10613895529E+02  0.37502278405E+02  0.50528860098E+02  0.30000000754E+02 0.  0.
         12    1    1    2    0    0 -0.11579723384E+02  0.10613895529E+02 -0.37502278405E+02  0.40659139902E+02  0.00000000000E+00 0. -1.
         11    1    3    3    0    0 -0.85504937734E+01 -0.10838844161E+01  0.20373877695E+02  0.22121949322E+02  0.51100000000E-03 0. -1.
        -11    1    3    3    0    0  0.12035566955E+02 -0.47310863440E+01  0.12225079464E+02  0.17795803384E+02  0.51100000000E-03 0.  1.
         12    1    3    3    0    0  0.80946502026E+01 -0.47989247692E+01  0.49033212462E+01  0.10611107392E+02  0.00000000000E+00 0. -1.
</event>
<event>
 7    1  0.6136531E-013  0.5052886E+02  0.7816164E-02  0.1300439E+00
        -11   -1    0    0    0    0  0.00000000000E+00  0.00000000000E+00  0.45593999997E+02  0.45594000000E+02  0.51100000000E-03 0. -1.
         11   -1    0    0    0    0 -0.00000000000E+00 -0.00000000000E+00 -0.45593999997E+02  0.45594000000E+02  0.51100000000E-03 0.  1.
    9900012    2    1    2    0    0  0.37923781358E+02 -0.31022059766E+01  0.14329299880E+02  0.50528859460E+02  0.29999998813E+02 0.  0.
         12    1    1    2    0    0 -0.37923781358E+02  0.31022059766E+01 -0.14329299880E+02  0.40659140540E+02  0.00000000000E+00 0. -1.
         11    1    3    3    0    0  0.32185071224E+02  0.12237066453E+01  0.18541808623E+02  0.37164161970E+02  0.51100000000E-03 0. -1.
        -11    1    3    3    0    0  0.76273089159E+01 -0.80990504719E-01 -0.42227346224E+01  0.87185944230E+01  0.51100000000E-03 0.  1.
         12    1    3    3    0    0 -0.18885987815E+01 -0.42449221172E+01  0.10225879380E-01  0.46461030668E+01  0.00000000000E+00 0. -1.
</event>
<event>
 7    1  0.6136531E-013  0.5052886E+02  0.7816164E-02  0.1300439E+00
        -11   -1    0    0    0    0  0.00000000000E+00  0.00000000000E+00  0.45593999997E+02  0.45594000000E+02  0.51100000000E-03 0.  1.
         11   -1    0    0    0    0 -0.00000000000E+00 -0.00000000000E+00 -0.45593999997E+02  0.45594000000E+02  0.51100000000E-03 0. -1.
    9900012    2    1    2    0    0  0.57280745993E+00  0.29516304282E+02  0.27957559955E+02  0.50528862214E+02  0.30000007186E+02 0.  0.
         12    1    1    2    0    0 -0.57280745993E+00 -0.29516304282E+02 -0.27957559955E+02  0.40659137786E+02  0.00000000000E+00 0. -1.
         11    1    3    3    0    0  0.10927099945E+02  0.66904431845E+01  0.16763077372E+02  0.21098917186E+02  0.51100000000E-03 0. -1.
        -11    1    3    3    0    0 -0.84903536688E+00  0.10745807800E+02  0.66846253280E+00  0.10800004109E+02  0.51100000000E-03 0.  1.
         12    1    3    3    0    0 -0.95052571178E+01  0.12080053297E+02  0.10526020050E+02  0.18629940919E+02  0.00000000000E+00 0. -1.
</event>
<event>
 7    1  0.6136531E-013  0.5052884E+02  0.7816164E-02  0.1300439E+00
        -11   -1    0    0    0    0  0.00000000000E+00  0.00000000000E+00  0.45593999997E+02  0.45594000000E+02  0.51100000000E-03 0. -1.
         11   -1    0    0    0    0 -0.00000000000E+00 -0.00000000000E+00 -0.45593999997E+02  0.45594000000E+02  0.51100000000E-03 0.  1.
    9900012    2    1    2    0    0  0.26435192616E+02 -0.23193170327E+02 -0.20406489029E+02  0.50528839249E+02  0.29999937381E+02 0.  0.
         12    1    1    2    0    0 -0.26435192616E+02  0.23193170327E+02  0.20406489029E+02  0.40659160751E+02  0.00000000000E+00 0. -1.
         11    1    3    3    0    0 -0.21038390581E+01 -0.12032095087E+02  0.66731713489E+00  0.12232855896E+02  0.51100000000E-03 0. -1.
        -11    1    3    3    0    0  0.11316446367E+02 -0.77704942457E+01 -0.13247305327E+02  0.19077044789E+02  0.51100000000E-03 0.  1.
         12    1    3    3    0    0  0.17222585308E+02 -0.33905809945E+01 -0.78265008373E+01  0.19218938564E+02  0.00000000000E+00 0. -1.
</event>
<event>
 7    1  0.6136531E-013  0.5052886E+02  0.7816164E-02  0.1300439E+00
        -11   -1    0    0    0    0  0.00000000000E+00  0.00000000000E+00  0.45593999997E+02  0.45594000000E+02  0.51100000000E-03 0. -1.
         11   -1    0    0    0    0 -0.00000000000E+00 -0.00000000000E+00 -0.45593999997E+02  0.45594000000E+02  0.51100000000E-03 0.  1.
    9900012    2    1    2    0    0 -0.15049484261E+02  0.36922112075E+02  0.79646910981E+01  0.50528860303E+02  0.30000001378E+02 0.  0.
         12    1    1    2    0    0  0.15049484261E+02 -0.36922112075E+02 -0.79646910981E+01  0.40659139697E+02  0.00000000000E+00 0. -1.
         11    1    3    3    0    0  0.36423500593E+01  0.58150218026E+01  0.17717160343E+01  0.70866191154E+01  0.51100000000E-03 0. -1.
        -11    1    3    3    0    0 -0.15504094875E+02  0.60525965085E+01  0.72714986064E+01  0.18162752397E+02  0.51100000000E-03 0.  1.
        -12    1    3    3    0    0 -0.31877394458E+01  0.25054493763E+02 -0.10785235426E+01  0.25279488791E+02  0.00000000000E+00 0.  1.
</event>
<event>
 7    1  0.6136531E-013  0.5052890E+02  0.7816164E-02  0.1300439E+00
        -11   -1    0    0    0    0  0.00000000000E+00  0.00000000000E+00  0.45593999997E+02  0.45594000000E+02  0.51100000000E-03 0. -1.
         11   -1    0    0    0    0 -0.00000000000E+00 -0.00000000000E+00 -0.45593999997E+02  0.45594000000E+02  0.51100000000E-03 0.  1.
    9900012    2    1    2    0    0  0.25215613389E+02  0.87761079247E+01 -0.30664563026E+02  0.50528897028E+02  0.30000113007E+02 0.  0.
         12    1    1    2    0    0 -0.25215613389E+02 -0.87761079247E+01  0.30664563026E+02  0.40659102972E+02  0.00000000000E+00 0. -1.
         11    1    3    3    0    0 -0.18521070757E+00 -0.45776248837E+01  0.19850558256E+01  0.49929349559E+01  0.51100000000E-03 0. -1.
        -11    1    3    3    0    0  0.11625433019E+02  0.43136203936E+01 -0.23791522771E+02  0.26828987491E+02  0.51100000000E-03 0.  1.
         12    1    3    3    0    0  0.13775391077E+02  0.90401124148E+01 -0.88580960808E+01  0.18706974581E+02  0.00000000000E+00 0. -1.
</event>
<event>
 7    1  0.6136531E-013  0.5052886E+02  0.7816164E-02  0.1300439E+00
        -11   -1    0    0    0    0  0.00000000000E+00  0.00000000000E+00  0.45593999997E+02  0.45594000000E+02  0.51100000000E-03 0.  1.
         11   -1    0    0    0    0 -0.00000000000E+00 -0.00000000000E+00 -0.45593999997E+02  0.45594000000E+02  0.51100000000E-03 0. -1.
    9900012    2    1    2    0    0  0.26015976834E+01 -0.24295448322E+02  0.32498132607E+02  0.50528859052E+02  0.29999997574E+02 0.  0.
         12    1    1    2    0    0 -0.26015976834E+01  0.24295448322E+02 -0.32498132607E+02  0.40659140948E+02  0.00000000000E+00 0. -1.
         11    1    3    3    0    0  0.11141621412E+02 -0.19666705925E+02  0.14829465828E+02  0.27033832629E+02  0.51100000000E-03 0. -1.
        -11    1    3    3    0    0 -0.93398659036E+01 -0.77756627212E+01  0.14901668675E+02  0.19228982173E+02  0.51100000000E-03 0.  1.
        -12    1    3    3    0    0  0.79984217523E+00  0.31469203238E+01  0.27669981040E+01  0.42660442493E+01  0.00000000000E+00 0.  1.
</event>
<event>
 7    1  0.6136531E-013  0.5052880E+02  0.7816164E-02  0.1300439E+00
        -11   -1    0    0    0    0  0.00000000000E+00  0.00000000000E+00  0.45593999997E+02  0.45594000000E+02  0.51100000000E-03 0. -1.
         11   -1    0    0    0    0 -0.00000000000E+00 -0.00000000000E+00 -0.45593999997E+02  0.45594000000E+02  0.51100000000E-03 0.  1.
    9900012    2    1    2    0    0  0.38378359377E+02 -0.38264203733E+01 -0.12869766779E+02  0.50528796143E+02  0.29999806355E+02 0.  0.
         12    1    1    2    0    0 -0.38378359377E+02  0.38264203733E+01  0.12869766779E+02  0.40659203857E+02  0.00000000000E+00 0. -1.
         11    1    3    3    0    0  0.19937056135E+02  0.26443754417E+01  0.32638307719E+01  0.20374776572E+02  0.51100000000E-03 0. -1.
        -11    1    3    3    0    0 -0.12614442304E+01  0.15131218556E+01 -0.65407729492E+01  0.68309948273E+01  0.51100000000E-03 0.  1.
        -12    1    3    3    0    0  0.19702747473E+02 -0.79839176705E+01 -0.95928246021E+01  0.23323024743E+02  0.00000000000E+00 0.  1.
</event>
<event>
 7    1  0.6136531E-013  0.5052887E+02  0.7816164E-02  0.1300439E+00
        -11   -1    0    0    0    0  0.00000000000E+00  0.00000000000E+00  0.45593999997E+02  0.45594000000E+02  0.51100000000E-03 0.  1.
         11   -1    0    0    0    0 -0.00000000000E+00 -0.00000000000E+00 -0.45593999997E+02  0.45594000000E+02  0.51100000000E-03 0. -1.
    9900012    2    1    2    0    0 -0.22839611333E+02 -0.10689793061E+02  0.31894285663E+02  0.50528868437E+02  0.30000026100E+02 0.  0.
         12    1    1    2    0    0  0.22839611333E+02  0.10689793061E+02 -0.31894285663E+02  0.40659131563E+02  0.00000000000E+00 0. -1.
         11    1    3    3    0    0 -0.14206910462E+02 -0.84502440558E+01  0.36334652907E+02  0.39918040178E+02  0.51100000000E-03 0. -1.
        -11    1    3    3    0    0 -0.62971986269E+01 -0.27403531743E+01 -0.19037489185E+01  0.71266055224E+01  0.51100000000E-03 0.  1.
         12    1    3    3    0    0 -0.23355022438E+01  0.50080416911E+00 -0.25366183255E+01  0.34842227363E+01  0.00000000000E+00 0. -1.
</event>
<event>
 7    1  0.6136531E-013  0.5052886E+02  0.7816164E-02  0.1300439E+00
        -11   -1    0    0    0    0  0.00000000000E+00  0.00000000000E+00  0.45593999997E+02  0.45594000000E+02  0.51100000000E-03 0.  1.
         11   -1    0    0    0    0 -0.00000000000E+00 -0.00000000000E+00 -0.45593999997E+02  0.45594000000E+02  0.51100000000E-03 0. -1.
    9900012    2    1    2    0    0 -0.11962533143E+02 -0.13915605004E+02  0.36282490475E+02  0.50528863549E+02  0.30000011245E+02 0.  0.
         12    1    1    2    0    0  0.11962533143E+02  0.13915605004E+02 -0.36282490475E+02  0.40659136451E+02  0.00000000000E+00 0. -1.
         11    1    3    3    0    0  0.60649974852E+01 -0.18508336127E-01  0.32535726377E+01  0.68826064992E+01  0.51100000000E-03 0. -1.
        -11    1    3    3    0    0 -0.13734098945E+02 -0.16407825609E+02  0.18487327216E+02  0.28277614519E+02  0.51100000000E-03 0.  1.
        -12    1    3    3    0    0 -0.42934316833E+01  0.25107289413E+01  0.14541590621E+02  0.15368642531E+02  0.00000000000E+00 0.  1.
</event>
<event>
 7    1  0.6136531E-013  0.5052886E+02  0.7816164E-02  0.1300439E+00
        -11   -1    0    0    0    0  0.00000000000E+00  0.00000000000E+00  0.45593999997E+02  0.45594000000E+02  0.51100000000E-03 0.  1.
         11   -1    0    0    0    0 -0.00000000000E+00 -0.00000000000E+00 -0.45593999997E+02  0.45594000000E+02  0.51100000000E-03 0. -1.
    9900012    2    1    2    0    0 -0.29571361123E+02  0.27609565767E+02  0.40511832888E+01  0.50528860725E+02  0.30000002660E+02 0.  0.
         12    1    1    2    0    0  0.29571361123E+02 -0.27609565767E+02 -0.40511832888E+01  0.40659139275E+02  0.00000000000E+00 0. -1.
         11    1    3    3    0    0 -0.64582789475E+00  0.10864823662E+02  0.11416659487E+02  0.15773446071E+02  0.51100000000E-03 0. -1.
        -11    1    3    3    0    0 -0.19498433490E+02  0.12377992326E+02 -0.77437573855E+01  0.24359174479E+02  0.51100000000E-03 0.  1.
         12    1    3    3    0    0 -0.94270997380E+01  0.43667497792E+01  0.37828118760E+00  0.10396240174E+02  0.00000000000E+00 0. -1.
</event>
<event>
 7    1  0.6136531E-013  0.5052886E+02  0.7816164E-02  0.1300439E+00
        -11   -1    0    0    0    0  0.00000000000E+00  0.00000000000E+00  0.45593999997E+02  0.45594000000E+02  0.51100000000E-03 0.  1.
         11   -1    0    0    0    0 -0.00000000000E+00 -0.00000000000E+00 -0.45593999997E+02  0.45594000000E+02  0.51100000000E-03 0. -1.
    9900012    2    1    2    0    0  0.11339666181E+02 -0.38380008246E+02  0.71799899823E+01  0.50528864271E+02  0.30000013438E+02 0.  0.
         12    1    1    2    0    0 -0.11339666181E+02  0.38380008246E+02 -0.71799899823E+01  0.40659135729E+02  0.00000000000E+00 0. -1.
         11    1    3    3    0    0 -0.25632379856E+01 -0.12890799695E+02 -0.51232238297E+00  0.13153150962E+02  0.51100000000E-03 0. -1.
        -11    1    3    3    0    0  0.31921950316E+01 -0.80027545336E+00  0.98422131537E+01  0.10377847077E+02  0.51100000000E-03 0.  1.
        -12    1    3    3    0    0  0.10710709135E+02 -0.24688933098E+02 -0.21499007884E+01  0.26997866233E+02  0.00000000000E+00 0.  1.
</event>
<event>
 7    1  0.6136531E-013  0.5052886E+02  0.7816164E-02  0.1300439E+00
        -11   -1    0    0    0    0  0.00000000000E+00  0.00000000000E+00  0.45593999997E+02  0.45594000000E+02  0.51100000000E-03 0.  1.
         11   -1    0    0    0    0 -0.00000000000E+00 -0.00000000000E+00 -0.45593999997E+02  0.45594000000E+02  0.51100000000E-03 0. -1.
    9900012    2    1    2    0    0 -0.83540391051E+01  0.32982443522E+02  0.22260599801E+02  0.50528857688E+02  0.29999993427E+02 0.  0.
         12    1    1    2    0    0  0.83540391051E+01 -0.32982443522E+02 -0.22260599801E+02  0.40659142312E+02  0.00000000000E+00 0. -1.
         11    1    3    3    0    0  0.19353100665E+01  0.10011461408E+01 -0.58934742493E+01  0.62833715183E+01  0.51100000000E-03 0. -1.
        -11    1    3    3    0    0 -0.10800449993E+02  0.26571742550E+02  0.24153049599E+02  0.37497693627E+02  0.51100000000E-03 0.  1.
         12    1    3    3    0    0  0.51110082099E+00  0.54095548316E+01  0.40010244515E+01  0.67477925418E+01  0.00000000000E+00 0. -1.
</event>
<event>
 7    1  0.6136531E-013  0.5052885E+02  0.7816164E-02  0.1300439E+00
        -11   -1    0    0    0    0  0.00000000000E+00  0.00000000000E+00  0.45593999997E+02  0.45594000000E+02  0.51100000000E-03 0.  1.
         11   -1    0    0    0    0 -0.00000000000E+00 -0.00000000000E+00 -0.45593999997E+02  0.45594000000E+02  0.51100000000E-03 0. -1.
    9900012    2    1    2    0    0 -0.36058423059E+02  0.17005156090E+02 -0.79862954046E+01  0.50528854394E+02  0.29999983416E+02 0.  0.
         12    1    1    2    0    0  0.36058423059E+02 -0.17005156090E+02  0.79862954046E+01  0.40659145606E+02  0.00000000000E+00 0. -1.
         11    1    3    3    0    0 -0.99892382490E+01  0.67605863367E+00  0.26629752968E+00  0.10015630320E+02  0.51100000000E-03 0. -1.
        -11    1    3    3    0    0  0.48536751805E+01  0.18172153272E+01 -0.28963637794E+01  0.59371169524E+01  0.51100000000E-03 0.  1.
        -12    1    3    3    0    0 -0.30922859990E+02  0.14511882129E+02 -0.53562291549E+01  0.34576107121E+02  0.00000000000E+00 0.  1.
</event>
<event>
 7    1  0.6136531E-013  0.5052885E+02  0.7816164E-02  0.1300439E+00
        -11   -1    0    0    0    0  0.00000000000E+00  0.00000000000E+00  0.45593999997E+02  0.45594000000E+02  0.51100000000E-03 0.  1.
         11   -1    0    0    0    0 -0.00000000000E+00 -0.00000000000E+00 -0.45593999997E+02  0.45594000000E+02  0.51100000000E-03 0. -1.
    9900012    2    1    2    0    0 -0.58999395296E+01  0.58554402035E+01  0.39800394016E+02  0.50528845677E+02  0.29999956920E+02 0.  0.
         12    1    1    2    0    0  0.58999395296E+01 -0.58554402035E+01 -0.39800394016E+02  0.40659154323E+02  0.00000000000E+00 0. -1.
         11    1    3    3    0    0  0.10751490397E+02  0.71194472371E+01  0.13175578336E+02  0.18435751666E+02  0.51100000000E-03 0. -1.
        -11    1    3    3    0    0 -0.12760326480E+02 -0.36965520451E+01  0.20750476301E+02  0.24638845262E+02  0.51100000000E-03 0.  1.
        -12    1    3    3    0    0 -0.38911034469E+01  0.24325450115E+01  0.58743393792E+01  0.74542487488E+01  0.00000000000E+00 0.  1.
</event>
<event>
 7    1  0.6136531E-013  0.5052886E+02  0.7816164E-02  0.1300439E+00
        -11   -1    0    0    0    0  0.00000000000E+00  0.00000000000E+00  0.45593999997E+02  0.45594000000E+02  0.51100000000E-03 0. -1.
         11   -1    0    0    0    0 -0.00000000000E+00 -0.00000000000E+00 -0.45593999997E+02  0.45594000000E+02  0.51100000000E-03 0.  1.
    9900012    2    1    2    0    0  0.92971138055E+01  0.17492566471E+02 -0.35506893869E+02  0.50528859342E+02  0.29999998456E+02 0.  0.
         12    1    1    2    0    0 -0.92971138055E+01 -0.17492566471E+02  0.35506893869E+02  0.40659140658E+02  0.00000000000E+00 0. -1.
         11    1    3    3    0    0  0.77380595952E+01  0.16254227465E+02 -0.78403665195E+01  0.19635397226E+02  0.51100000000E-03 0. -1.
        -11    1    3    3    0    0  0.14136558201E+01 -0.61463474622E+01 -0.11392000962E+02  0.13021278589E+02  0.51100000000E-03 0.  1.
         12    1    3    3    0    0  0.14539839009E+00  0.73846864680E+01 -0.16274526387E+02  0.17872183528E+02  0.00000000000E+00 0. -1.
</event>
<event>
 7    1  0.6136531E-013  0.5052886E+02  0.7816164E-02  0.1300439E+00
        -11   -1    0    0    0    0  0.00000000000E+00  0.00000000000E+00  0.45593999997E+02  0.45594000000E+02  0.51100000000E-03 0. -1.
         11   -1    0    0    0    0 -0.00000000000E+00 -0.00000000000E+00 -0.45593999997E+02  0.45594000000E+02  0.51100000000E-03 0.  1.
    9900012    2    1    2    0    0  0.14662441771E+02  0.91197544960E+01 -0.36810444761E+02  0.50528856327E+02  0.29999989291E+02 0.  0.
         12    1    1    2    0    0 -0.14662441771E+02 -0.91197544960E+01  0.36810444761E+02  0.40659143673E+02  0.00000000000E+00 0. -1.
         11    1    3    3    0    0 -0.13080224426E+01  0.59115622531E+00  0.39663458062E+01  0.42180905287E+01  0.51100000000E-03 0. -1.
        -11    1    3    3    0    0  0.58425665981E+01  0.25837750565E+01 -0.28939888885E+02  0.29636609910E+02  0.51100000000E-03 0.  1.
         12    1    3    3    0    0  0.10127897615E+02  0.59448232142E+01 -0.11836901682E+02  0.16674155888E+02  0.00000000000E+00 0. -1.
</event>
<event>
 7    1  0.6136531E-013  0.5052890E+02  0.7816164E-02  0.1300439E+00
        -11   -1    0    0    0    0  0.00000000000E+00  0.00000000000E+00  0.45593999997E+02  0.45594000000E+02  0.51100000000E-03 0.  1.
         11   -1    0    0    0    0 -0.00000000000E+00 -0.00000000000E+00 -0.45593999997E+02  0.45594000000E+02  0.51100000000E-03 0. -1.
    9900012    2    1    2    0    0  0.10899619318E+02  0.34505292508E+02  0.18540373422E+02  0.50528900662E+02  0.30000124052E+02 0.  0.
         12    1    1    2    0    0 -0.10899619318E+02 -0.34505292508E+02 -0.18540373422E+02  0.40659099338E+02  0.00000000000E+00 0. -1.
         11    1    3    3    0    0 -0.75326371562E+00 -0.30938156638E+01  0.47910295298E+01  0.57526572820E+01  0.51100000000E-03 0. -1.
        -11    1    3    3    0    0 -0.19308759846E+00  0.22212528454E+02  0.12081684026E+02  0.25286375626E+02  0.51100000000E-03 0.  1.
        -12    1    3    3    0    0  0.11845970632E+02  0.15386579718E+02  0.16676598657E+01  0.19489867754E+02  0.00000000000E+00 0.  1.
</event>
<event>
 7    1  0.6136531E-013  0.5052886E+02  0.7816164E-02  0.1300439E+00
        -11   -1    0    0    0    0  0.00000000000E+00  0.00000000000E+00  0.45593999997E+02  0.45594000000E+02  0.51100000000E-03 0.  1.
         11   -1    0    0    0    0 -0.00000000000E+00 -0.00000000000E+00 -0.45593999997E+02  0.45594000000E+02  0.51100000000E-03 0. -1.
    9900012    2    1    2    0    0 -0.14241884823E+02  0.20751187303E+02  0.31933093243E+02  0.50528862013E+02  0.30000006574E+02 0.  0.
         12    1    1    2    0    0  0.14241884823E+02 -0.20751187303E+02 -0.31933093243E+02  0.40659137987E+02  0.00000000000E+00 0. -1.
         11    1    3    3    0    0 -0.91483232690E+01 -0.21688234102E+01  0.52319139463E+01  0.10759578868E+02  0.51100000000E-03 0. -1.
        -11    1    3    3    0    0 -0.48954368819E+01  0.25964262216E+02  0.23993491004E+02  0.35690276344E+02  0.51100000000E-03 0.  1.
        -12    1    3    3    0    0 -0.19812467259E+00 -0.30442515018E+01  0.27076882924E+01  0.40790068008E+01  0.00000000000E+00 0.  1.
</event>
<event>
 7    1  0.6136531E-013  0.5052885E+02  0.7816164E-02  0.1300439E+00
        -11   -1    0    0    0    0  0.00000000000E+00  0.00000000000E+00  0.45593999997E+02  0.45594000000E+02  0.51100000000E-03 0.  1.
         11   -1    0    0    0    0 -0.00000000000E+00 -0.00000000000E+00 -0.45593999997E+02  0.45594000000E+02  0.51100000000E-03 0. -1.
    9900012    2    1    2    0    0  0.24453335413E+02 -0.32154955966E+02 -0.46108020634E+01  0.50528852177E+02  0.29999976677E+02 0.  0.
         12    1    1    2    0    0 -0.24453335413E+02  0.32154955966E+02  0.46108020634E+01  0.40659147823E+02  0.00000000000E+00 0. -1.
         11    1    3    3    0    0  0.17488814152E+02 -0.74962935797E+01 -0.37791805943E+01  0.19399361951E+02  0.51100000000E-03 0. -1.
        -11    1    3    3    0    0  0.42540136226E+01 -0.26973439903E+02 -0.19960768753E+01  0.27379689831E+02  0.51100000000E-03 0.  1.
        -12    1    3    3    0    0  0.27105076380E+01  0.23147775163E+01  0.11644554063E+01  0.37498003946E+01  0.00000000000E+00 0.  1.
</event>
<event>
 7    1  0.6136531E-013  0.5052886E+02  0.7816164E-02  0.1300439E+00
        -11   -1    0    0    0    0  0.00000000000E+00  0.00000000000E+00  0.45593999997E+02  0.45594000000E+02  0.51100000000E-03 0.  1.
         11   -1    0    0    0    0 -0.00000000000E+00 -0.00000000000E+00 -0.45593999997E+02  0.45594000000E+02  0.51100000000E-03 0. -1.
    9900012    2    1    2    0    0  0.17256938320E+02 -0.35221507663E+02  0.10714886349E+02  0.50528864351E+02  0.30000013681E+02 0.  0.
         12    1    1    2    0    0 -0.17256938320E+02  0.35221507663E+02 -0.10714886349E+02  0.40659135649E+02  0.00000000000E+00 0. -1.
         11    1    3    3    0    0 -0.22265134307E+01 -0.31395774981E+01  0.72959844783E+01  0.82489816761E+01  0.51100000000E-03 0. -1.
        -11    1    3    3    0    0  0.15045388573E+02 -0.34077359810E+02  0.34835181964E+01  0.37413434328E+02  0.51100000000E-03 0.  1.
        -12    1    3    3    0    0  0.44380631783E+01  0.19954296451E+01 -0.64616326163E-01  0.48664483469E+01  0.00000000000E+00 0.  1.
</event>
<event>
 7    1  0.6136531E-013  0.5052888E+02  0.7816164E-02  0.1300439E+00
        -11   -1    0    0    0    0  0.00000000000E+00  0.00000000000E+00  0.45593999997E+02  0.45594000000E+02  0.51100000000E-03 0. -1.
         11   -1    0    0    0    0 -0.00000000000E+00 -0.00000000000E+00 -0.45593999997E+02  0.45594000000E+02  0.51100000000E-03 0.  1.
    9900012    2    1    2    0    0  0.15693810996E+02  0.25348740476E+02 -0.27646154791E+02  0.50528877752E+02  0.30000054414E+02 0.  0.
         12    1    1    2    0    0 -0.15693810996E+02 -0.25348740476E+02  0.27646154791E+02  0.40659122248E+02  0.00000000000E+00 0. -1.
         11    1    3    3    0    0  0.11086662368E+02  0.57444561049E+01 -0.22406653345E+02  0.25650944872E+02  0.51100000000E-03 0. -1.
        -11    1    3    3    0    0 -0.12782960506E+01  0.60495566617E+00 -0.47776342653E+01  0.49825497072E+01  0.51100000000E-03 0.  1.
         12    1    3    3    0    0  0.58854446785E+01  0.18999328705E+02 -0.46186718024E+00  0.19895383173E+02  0.00000000000E+00 0. -1.
</event>
<event>
 7    1  0.6136531E-013  0.5052891E+02  0.7816164E-02  0.1300439E+00
        -11   -1    0    0    0    0  0.00000000000E+00  0.00000000000E+00  0.45593999997E+02  0.45594000000E+02  0.51100000000E-03 0. -1.
         11   -1    0    0    0    0 -0.00000000000E+00 -0.00000000000E+00 -0.45593999997E+02  0.45594000000E+02  0.51100000000E-03 0.  1.
    9900012    2    1    2    0    0 -0.17030378266E+02  0.36876804317E+02 -0.17970350033E+01  0.50528907347E+02  0.30000144372E+02 0.  0.
         12    1    1    2    0    0  0.17030378266E+02 -0.36876804317E+02  0.17970350033E+01  0.40659092653E+02  0.00000000000E+00 0. -1.
         11    1    3    3    0    0 -0.11774536983E+02  0.34761204513E+02  0.38212639097E+01  0.36899635750E+02  0.51100000000E-03 0.  1.
        -11    1    3    3    0    0  0.22154015892E+01  0.24779126883E+01 -0.51565800750E+01  0.61350121290E+01  0.51100000000E-03 0. -1.
        -12    1    3    3    0    0 -0.74712428725E+01 -0.36231288420E+00 -0.46171883801E+00  0.74942594679E+01  0.00000000000E+00 0.  1.
</event>
<event>
 7    1  0.6136531E-013  0.5052886E+02  0.7816164E-02  0.1300439E+00
        -11   -1    0    0    0    0  0.00000000000E+00  0.00000000000E+00  0.45593999997E+02  0.45594000000E+02  0.51100000000E-03 0.  1.
         11   -1    0    0    0    0 -0.00000000000E+00 -0.00000000000E+00 -0.45593999997E+02  0.45594000000E+02  0.51100000000E-03 0. -1.
    9900012    2    1    2    0    0  0.28646865686E+02 -0.23394703679E+02  0.16888179070E+02  0.50528859992E+02  0.30000000432E+02 0.  0.
         12    1    1    2    0    0 -0.28646865686E+02  0.23394703679E+02 -0.16888179070E+02  0.40659140008E+02  0.00000000000E+00 0. -1.
         11    1    3    3    0    0  0.23854701391E+02 -0.17365157056E+02  0.15692440049E+02  0.33419277865E+02  0.51100000000E-03 0.  1.
        -11    1    3    3    0    0 -0.40736578419E+01 -0.59264240833E+01 -0.23423214537E+01  0.75633101670E+01  0.51100000000E-03 0. -1.
         12    1    3    3    0    0  0.88658221372E+01 -0.10312253963E+00  0.35380604743E+01  0.95462719606E+01  0.00000000000E+00 0. -1.
</event>
<event>
 7    1  0.6136531E-013  0.5052885E+02  0.7816164E-02  0.1300439E+00
        -11   -1    0    0    0    0  0.00000000000E+00  0.00000000000E+00  0.45593999997E+02  0.45594000000E+02  0.51100000000E-03 0. -1.
         11   -1    0    0    0    0 -0.00000000000E+00 -0.00000000000E+00 -0.45593999997E+02  0.45594000000E+02  0.51100000000E-03 0.  1.
    9900012    2    1    2    0    0 -0.38066963559E+02 -0.13299528651E+02 -0.52149234768E+01  0.50528848462E+02  0.29999965386E+02 0.  0.
         12    1    1    2    0    0  0.38066963559E+02  0.13299528651E+02  0.52149234768E+01  0.40659151538E+02  0.00000000000E+00 0. -1.
         11    1    3    3    0    0 -0.17559989560E+01 -0.12173365658E+02  0.29459448251E+01  0.12647250886E+02  0.51100000000E-03 0. -1.
        -11    1    3    3    0    0 -0.92408225539E+01  0.93766924371E+00 -0.50026585786E+01  0.10549816027E+02  0.51100000000E-03 0.  1.
         12    1    3    3    0    0 -0.27070142049E+02 -0.20638322361E+01 -0.31582097233E+01  0.27331781550E+02  0.00000000000E+00 0. -1.
</event>
<event>
 7    1  0.6136531E-013  0.5052886E+02  0.7816164E-02  0.1300439E+00
        -11   -1    0    0    0    0  0.00000000000E+00  0.00000000000E+00  0.45593999997E+02  0.45594000000E+02  0.51100000000E-03 0. -1.
         11   -1    0    0    0    0 -0.00000000000E+00 -0.00000000000E+00 -0.45593999997E+02  0.45594000000E+02  0.51100000000E-03 0.  1.
    9900012    2    1    2    0    0 -0.95127007954E+01  0.57797915516E+01 -0.39105857381E+02  0.50528861442E+02  0.30000004839E+02 0.  0.
         12    1    1    2    0    0  0.95127007954E+01 -0.57797915516E+01  0.39105857381E+02  0.40659138558E+02  0.00000000000E+00 0. -1.
         11    1    3    3    0    0 -0.68207970013E+01 -0.13612575165E+01  0.17902031916E+01  0.71819998251E+01  0.51100000000E-03 0. -1.
        -11    1    3    3    0    0  0.24795362391E+01 -0.20806565832E+01 -0.15562937309E+02  0.15895982188E+02  0.51100000000E-03 0.  1.
         12    1    3    3    0    0 -0.51714400331E+01  0.92217056513E+01 -0.25333123264E+02  0.27450879429E+02  0.00000000000E+00 0. -1.
</event>
<event>
 7    1  0.6136531E-013  0.5052886E+02  0.7816164E-02  0.1300439E+00
        -11   -1    0    0    0    0  0.00000000000E+00  0.00000000000E+00  0.45593999997E+02  0.45594000000E+02  0.51100000000E-03 0. -1.
         11   -1    0    0    0    0 -0.00000000000E+00 -0.00000000000E+00 -0.45593999997E+02  0.45594000000E+02  0.51100000000E-03 0.  1.
    9900012    2    1    2    0    0 -0.13067794196E+02  0.17392834452E+02 -0.34349499419E+02  0.50528855324E+02  0.29999986242E+02 0.  0.
         12    1    1    2    0    0  0.13067794196E+02 -0.17392834452E+02  0.34349499419E+02  0.40659144676E+02  0.00000000000E+00 0. -1.
         11    1    3    3    0    0 -0.13480722884E+02  0.99239009986E+01 -0.12142201719E+02  0.20679621935E+02  0.51100000000E-03 0. -1.
        -11    1    3    3    0    0 -0.20803111617E+01 -0.90597846850E+00 -0.20889377155E+02  0.21012248087E+02  0.51100000000E-03 0.  1.
         12    1    3    3    0    0  0.24932398503E+01  0.83749119223E+01 -0.13179205457E+01  0.88369853017E+01  0.00000000000E+00 0. -1.
</event>
<event>
 7    1  0.6136531E-013  0.5052885E+02  0.7816164E-02  0.1300439E+00
        -11   -1    0    0    0    0  0.00000000000E+00  0.00000000000E+00  0.45593999997E+02  0.45594000000E+02  0.51100000000E-03 0.  1.
         11   -1    0    0    0    0 -0.00000000000E+00 -0.00000000000E+00 -0.45593999997E+02  0.45594000000E+02  0.51100000000E-03 0. -1.
    9900012    2    1    2    0    0  0.15510541556E+02 -0.20294202757E+02  0.31634392204E+02  0.50528851767E+02  0.29999975431E+02 0.  0.
         12    1    1    2    0    0 -0.15510541556E+02  0.20294202757E+02 -0.31634392204E+02  0.40659148233E+02  0.00000000000E+00 0. -1.
         11    1    3    3    0    0  0.97299819204E+01 -0.19588866069E+01  0.51191642256E+01  0.11167615123E+02  0.51100000000E-03 0. -1.
        -11    1    3    3    0    0 -0.16763782118E+01 -0.19116454011E+02  0.25317710270E+02  0.31768467250E+02  0.51100000000E-03 0.  1.
        -12    1    3    3    0    0  0.74569378469E+01  0.78113786028E+00  0.11975177089E+01  0.75927693941E+01  0.00000000000E+00 0.  1.
</event>
<event>
 7    1  0.6136531E-013  0.5052887E+02  0.7816164E-02  0.1300439E+00
        -11   -1    0    0    0    0  0.00000000000E+00  0.00000000000E+00  0.45593999997E+02  0.45594000000E+02  0.51100000000E-03 0. -1.
         11   -1    0    0    0    0 -0.00000000000E+00 -0.00000000000E+00 -0.45593999997E+02  0.45594000000E+02  0.51100000000E-03 0.  1.
    9900012    2    1    2    0    0 -0.11662552072E+02 -0.38485891334E+01 -0.38760001603E+02  0.50528874536E+02  0.30000044641E+02 0.  0.
         12    1    1    2    0    0  0.11662552072E+02  0.38485891334E+01  0.38760001603E+02  0.40659125464E+02  0.00000000000E+00 0. -1.
         11    1    3    3    0    0 -0.12572086473E+01  0.41195972755E+01  0.22183573868E+00  0.43128722043E+01  0.51100000000E-03 0. -1.
        -11    1    3    3    0    0 -0.86615859933E+01 -0.14895905892E+02 -0.23259351693E+02  0.28946649646E+02  0.51100000000E-03 0.  1.
        -12    1    3    3    0    0 -0.17437574317E+01  0.69277194834E+01 -0.15722485649E+02  0.17269352686E+02  0.00000000000E+00 0.  1.
</event>
<event>
 7    1  0.6136531E-013  0.5052886E+02  0.7816164E-02  0.1300439E+00
        -11   -1    0    0    0    0  0.00000000000E+00  0.00000000000E+00  0.45593999997E+02  0.45594000000E+02  0.51100000000E-03 0. -1.
         11   -1    0    0    0    0 -0.00000000000E+00 -0.00000000000E+00 -0.45593999997E+02  0.45594000000E+02  0.51100000000E-03 0.  1.
    9900012    2    1    2    0    0  0.90163385190E+01  0.23933668575E+02 -0.31607764588E+02  0.50528860388E+02  0.30000001635E+02 0.  0.
         12    1    1    2    0    0 -0.90163385190E+01 -0.23933668575E+02  0.31607764588E+02  0.40659139612E+02  0.00000000000E+00 0. -1.
         11    1    3    3    0    0  0.26837934632E+01  0.88949337675E+01 -0.24852654920E+01  0.96176472647E+01  0.51100000000E-03 0. -1.
        -11    1    3    3    0    0  0.57925820669E+01  0.22864153634E+01 -0.27320049053E+02  0.28020827660E+02  0.51100000000E-03 0.  1.
        -12    1    3    3    0    0  0.53996298896E+00  0.12752319444E+02 -0.18024500427E+01  0.12890385463E+02  0.00000000000E+00 0.  1.
</event>
<event>
 7    1  0.6136531E-013  0.5052886E+02  0.7816164E-02  0.1300439E+00
        -11   -1    0    0    0    0  0.00000000000E+00  0.00000000000E+00  0.45593999997E+02  0.45594000000E+02  0.51100000000E-03 0.  1.
         11   -1    0    0    0    0 -0.00000000000E+00 -0.00000000000E+00 -0.45593999997E+02  0.45594000000E+02  0.51100000000E-03 0. -1.
    9900012    2    1    2    0    0  0.22374911805E+02 -0.33516141338E+02  0.54034733632E+01  0.50528856712E+02  0.29999990463E+02 0.  0.
         12    1    1    2    0    0 -0.22374911805E+02  0.33516141338E+02 -0.54034733632E+01  0.40659143288E+02  0.00000000000E+00 0. -1.
         11    1    3    3    0    0  0.88483356774E+01 -0.20717113008E+01 -0.88277736308E+01  0.12669436432E+02  0.51100000000E-03 0. -1.
        -11    1    3    3    0    0  0.38641613750E+01 -0.14436532277E+02  0.95845844871E+01  0.17754139444E+02  0.51100000000E-03 0.  1.
         12    1    3    3    0    0  0.96624147530E+01 -0.17007897760E+02  0.46466625070E+01  0.20105280837E+02  0.00000000000E+00 0. -1.
</event>
<event>
 7    1  0.6136531E-013  0.5052886E+02  0.7816164E-02  0.1300439E+00
        -11   -1    0    0    0    0  0.00000000000E+00  0.00000000000E+00  0.45593999997E+02  0.45594000000E+02  0.51100000000E-03 0. -1.
         11   -1    0    0    0    0 -0.00000000000E+00 -0.00000000000E+00 -0.45593999997E+02  0.45594000000E+02  0.51100000000E-03 0.  1.
    9900012    2    1    2    0    0  0.23201374939E+02  0.30234689703E+02  0.14167745067E+02  0.50528864978E+02  0.30000015586E+02 0.  0.
         12    1    1    2    0    0 -0.23201374939E+02 -0.30234689703E+02 -0.14167745067E+02  0.40659135022E+02  0.00000000000E+00 0. -1.
         11    1    3    3    0    0  0.94202759403E+01  0.83987535172E+01 -0.64483226798E+01  0.14172562403E+02  0.51100000000E-03 0. -1.
        -11    1    3    3    0    0  0.15017524911E+02  0.11485880372E+02  0.16685474131E+02  0.25216196176E+02  0.51100000000E-03 0.  1.
         12    1    3    3    0    0 -0.12364259122E+01  0.10350055814E+02  0.39305936159E+01  0.11140106398E+02  0.00000000000E+00 0. -1.
</event>
<event>
 7    1  0.6136531E-013  0.5052886E+02  0.7816164E-02  0.1300439E+00
        -11   -1    0    0    0    0  0.00000000000E+00  0.00000000000E+00  0.45593999997E+02  0.45594000000E+02  0.51100000000E-03 0. -1.
         11   -1    0    0    0    0 -0.00000000000E+00 -0.00000000000E+00 -0.45593999997E+02  0.45594000000E+02  0.51100000000E-03 0.  1.
    9900012    2    1    2    0    0 -0.36989833449E+02 -0.16753559304E+02 -0.20582177379E+01  0.50528858491E+02  0.29999995870E+02 0.  0.
         12    1    1    2    0    0  0.36989833449E+02  0.16753559304E+02  0.20582177379E+01  0.40659141509E+02  0.00000000000E+00 0. -1.
         11    1    3    3    0    0 -0.26157065383E+02 -0.33409092536E+01 -0.11797244350E+02  0.28888210720E+02  0.51100000000E-03 0. -1.
        -11    1    3    3    0    0 -0.13229527047E+01  0.41661088032E+00 -0.10049706762E+01  0.17128148778E+01  0.51100000000E-03 0.  1.
         12    1    3    3    0    0 -0.95098153620E+01 -0.13829260931E+02  0.10743997288E+02  0.19927832894E+02  0.00000000000E+00 0. -1.
</event>
<event>
 7    1  0.6136531E-013  0.5052887E+02  0.7816164E-02  0.1300439E+00
        -11   -1    0    0    0    0  0.00000000000E+00  0.00000000000E+00  0.45593999997E+02  0.45594000000E+02  0.51100000000E-03 0. -1.
         11   -1    0    0    0    0 -0.00000000000E+00 -0.00000000000E+00 -0.45593999997E+02  0.45594000000E+02  0.51100000000E-03 0.  1.
    9900012    2    1    2    0    0 -0.36515883914E+02 -0.17812861537E+02  0.15675540096E+01  0.50528867696E+02  0.30000023849E+02 0.  0.
         12    1    1    2    0    0  0.36515883914E+02  0.17812861537E+02 -0.15675540096E+01  0.40659132304E+02  0.00000000000E+00 0. -1.
         11    1    3    3    0    0  0.34908555290E+01 -0.53782592378E+01 -0.26380052242E+01  0.69333120929E+01  0.51100000000E-03 0. -1.
        -11    1    3    3    0    0 -0.17013506958E+02 -0.10838886457E+00 -0.79263674636E+00  0.17032305787E+02  0.51100000000E-03 0.  1.
         12    1    3    3    0    0 -0.22993232485E+02 -0.12326213434E+02  0.49981959801E+01  0.26563249816E+02  0.00000000000E+00 0. -1.
</event>
<event>
 7    1  0.6136531E-013  0.5052887E+02  0.7816164E-02  0.1300439E+00
        -11   -1    0    0    0    0  0.00000000000E+00  0.00000000000E+00  0.45593999997E+02  0.45594000000E+02  0.51100000000E-03 0. -1.
         11   -1    0    0    0    0 -0.00000000000E+00 -0.00000000000E+00 -0.45593999997E+02  0.45594000000E+02  0.51100000000E-03 0.  1.
    9900012    2    1    2    0    0 -0.51436222178E+01 -0.27368296253E+02 -0.29625731367E+02  0.50528874969E+02  0.30000045954E+02 0.  0.
         12    1    1    2    0    0  0.51436222178E+01  0.27368296253E+02  0.29625731367E+02  0.40659125031E+02  0.00000000000E+00 0. -1.
         11    1    3    3    0    0  0.57866688753E+01 -0.58130378342E+01  0.45767894246E+00  0.82150116134E+01  0.51100000000E-03 0. -1.
        -11    1    3    3    0    0 -0.13219589283E+02 -0.88959236658E+01 -0.21839538336E+02  0.27034430522E+02  0.51100000000E-03 0.  1.
         12    1    3    3    0    0  0.22892981895E+01 -0.12659334753E+02 -0.82438719732E+01  0.15279432833E+02  0.00000000000E+00 0. -1.
</event>
<event>
 7    1  0.6136531E-013  0.5052885E+02  0.7816164E-02  0.1300439E+00
        -11   -1    0    0    0    0  0.00000000000E+00  0.00000000000E+00  0.45593999997E+02  0.45594000000E+02  0.51100000000E-03 0.  1.
         11   -1    0    0    0    0 -0.00000000000E+00 -0.00000000000E+00 -0.45593999997E+02  0.45594000000E+02  0.51100000000E-03 0. -1.
    9900012    2    1    2    0    0 -0.91177367132E+01  0.33070727343E+02  0.21825680601E+02  0.50528850187E+02  0.29999970630E+02 0.  0.
         12    1    1    2    0    0  0.91177367132E+01 -0.33070727343E+02 -0.21825680601E+02  0.40659149813E+02  0.00000000000E+00 0. -1.
         11    1    3    3    0    0  0.17596402226E+01 -0.15798559505E+01  0.10517688490E+02  0.10780262055E+02  0.51100000000E-03 0. -1.
        -11    1    3    3    0    0 -0.97133104663E+01  0.18752869105E+02  0.18180228186E+01  0.21197257066E+02  0.51100000000E-03 0.  1.
        -12    1    3    3    0    0 -0.11640664695E+01  0.15897714188E+02  0.94899692920E+01  0.18551331066E+02  0.00000000000E+00 0.  1.
</event>
<event>
 7    1  0.6136531E-013  0.5052886E+02  0.7816164E-02  0.1300439E+00
        -11   -1    0    0    0    0  0.00000000000E+00  0.00000000000E+00  0.45593999997E+02  0.45594000000E+02  0.51100000000E-03 0. -1.
         11   -1    0    0    0    0 -0.00000000000E+00 -0.00000000000E+00 -0.45593999997E+02  0.45594000000E+02  0.51100000000E-03 0.  1.
    9900012    2    1    2    0    0  0.22050579904E+02  0.25371090048E+02 -0.22874552784E+02  0.50528862658E+02  0.30000008534E+02 0.  0.
         12    1    1    2    0    0 -0.22050579904E+02 -0.25371090048E+02  0.22874552784E+02  0.40659137342E+02  0.00000000000E+00 0. -1.
         11    1    3    3    0    0 -0.62407400022E+01  0.55514702633E+01 -0.11394184203E+02  0.14127741920E+02  0.51100000000E-03 0. -1.
        -11    1    3    3    0    0  0.14114667316E+02  0.98487473689E+01 -0.56411374267E+01  0.18111987464E+02  0.51100000000E-03 0.  1.
         12    1    3    3    0    0  0.14176652590E+02  0.99708724159E+01 -0.58392311550E+01  0.18289133273E+02  0.00000000000E+00 0. -1.
</event>
<event>
 7    1  0.6136531E-013  0.5052886E+02  0.7816164E-02  0.1300439E+00
        -11   -1    0    0    0    0  0.00000000000E+00  0.00000000000E+00  0.45593999997E+02  0.45594000000E+02  0.51100000000E-03 0.  1.
         11   -1    0    0    0    0 -0.00000000000E+00 -0.00000000000E+00 -0.45593999997E+02  0.45594000000E+02  0.51100000000E-03 0. -1.
    9900012    2    1    2    0    0  0.79450326146E+01  0.39097348290E+02 -0.78383308452E+01  0.50528860597E+02  0.30000002272E+02 0.  0.
         12    1    1    2    0    0 -0.79450326146E+01 -0.39097348290E+02  0.78383308452E+01  0.40659139403E+02  0.00000000000E+00 0. -1.
         11    1    3    3    0    0 -0.16370926897E+01 -0.71092406852E+00 -0.16121084922E+01  0.24050737115E+01  0.51100000000E-03 0. -1.
        -11    1    3    3    0    0  0.83331953415E+01  0.38874697897E+02  0.19447571482E+01  0.39805355944E+02  0.51100000000E-03 0.  1.
        -12    1    3    3    0    0  0.12489299629E+01  0.93357446108E+00 -0.81709795012E+01  0.83184309420E+01  0.00000000000E+00 0.  1.
</event>
<event>
 7    1  0.6136531E-013  0.5052887E+02  0.7816164E-02  0.1300439E+00
        -11   -1    0    0    0    0  0.00000000000E+00  0.00000000000E+00  0.45593999997E+02  0.45594000000E+02  0.51100000000E-03 0. -1.
         11   -1    0    0    0    0 -0.00000000000E+00 -0.00000000000E+00 -0.45593999997E+02  0.45594000000E+02  0.51100000000E-03 0.  1.
    9900012    2    1    2    0    0 -0.22886947466E+00  0.19152341351E+02 -0.35865030564E+02  0.50528868457E+02  0.30000026161E+02 0.  0.
         12    1    1    2    0    0  0.22886947466E+00 -0.19152341351E+02  0.35865030564E+02  0.40659131543E+02  0.00000000000E+00 0. -1.
         11    1    3    3    0    0  0.23720499675E+00 -0.63041359176E+01 -0.12484743854E+02  0.13988110138E+02  0.51100000000E-03 0. -1.
        -11    1    3    3    0    0  0.45612902015E+01  0.11862293144E+02 -0.15496078185E+02  0.20041152819E+02  0.51100000000E-03 0.  1.
         12    1    3    3    0    0 -0.50273646729E+01  0.13594184125E+02 -0.78842085251E+01  0.16499605499E+02  0.00000000000E+00 0. -1.
</event>
<event>
 7    1  0.6136531E-013  0.5052885E+02  0.7816164E-02  0.1300439E+00
        -11   -1    0    0    0    0  0.00000000000E+00  0.00000000000E+00  0.45593999997E+02  0.45594000000E+02  0.51100000000E-03 0.  1.
         11   -1    0    0    0    0 -0.00000000000E+00 -0.00000000000E+00 -0.45593999997E+02  0.45594000000E+02  0.51100000000E-03 0. -1.
    9900012    2    1    2    0    0  0.86967792257E+01  0.10300580119E+02  0.38359226472E+02  0.50528853732E+02  0.29999981404E+02 0.  0.
         12    1    1    2    0    0 -0.86967792257E+01 -0.10300580119E+02 -0.38359226472E+02  0.40659146268E+02  0.00000000000E+00 0. -1.
         11    1    3    3    0    0  0.75346029837E+01  0.27066378672E+01  0.12001935441E+01  0.80954675881E+01  0.51100000000E-03 0. -1.
        -11    1    3    3    0    0 -0.83453273635E+01  0.52863619292E+01  0.24628225011E+02  0.26535628478E+02  0.51100000000E-03 0.  1.
         12    1    3    3    0    0  0.95075036055E+01  0.23075803229E+01  0.12530807917E+02  0.15897757666E+02  0.00000000000E+00 0. -1.
</event>
<event>
 7    1  0.6136531E-013  0.5052888E+02  0.7816164E-02  0.1300439E+00
        -11   -1    0    0    0    0  0.00000000000E+00  0.00000000000E+00  0.45593999997E+02  0.45594000000E+02  0.51100000000E-03 0.  1.
         11   -1    0    0    0    0 -0.00000000000E+00 -0.00000000000E+00 -0.45593999997E+02  0.45594000000E+02  0.51100000000E-03 0. -1.
    9900012    2    1    2    0    0 -0.51285439162E+01  0.39404399481E+02  0.86113463267E+01  0.50528881137E+02  0.30000064705E+02 0.  0.
         12    1    1    2    0    0  0.51285439162E+01 -0.39404399481E+02 -0.86113463267E+01  0.40659118863E+02  0.00000000000E+00 0. -1.
         11    1    3    3    0    0 -0.37002290046E+00 -0.60519075158E-01  0.73378354623E+00  0.82402552094E+00  0.51100000000E-03 0. -1.
        -11    1    3    3    0    0 -0.15520081091E+02  0.16094115346E+02  0.86257876224E+01  0.23964508720E+02  0.51100000000E-03 0.  1.
        -12    1    3    3    0    0  0.10761560075E+02  0.23370803210E+02 -0.74822484191E+00  0.25740346896E+02  0.00000000000E+00 0.  1.
</event>
<event>
 7    1  0.6136531E-013  0.5052885E+02  0.7816164E-02  0.1300439E+00
        -11   -1    0    0    0    0  0.00000000000E+00  0.00000000000E+00  0.45593999997E+02  0.45594000000E+02  0.51100000000E-03 0.  1.
         11   -1    0    0    0    0 -0.00000000000E+00 -0.00000000000E+00 -0.45593999997E+02  0.45594000000E+02  0.51100000000E-03 0. -1.
    9900012    2    1    2    0    0  0.17330551569E+02  0.27529726186E+02  0.24391237579E+02  0.50528852048E+02  0.29999976284E+02 0.  0.
         12    1    1    2    0    0 -0.17330551569E+02 -0.27529726186E+02 -0.24391237579E+02  0.40659147952E+02  0.00000000000E+00 0. -1.
         11    1    3    3    0    0  0.33495961181E+01  0.14913148025E+02 -0.24109355085E+01  0.15473667583E+02  0.51100000000E-03 0. -1.
        -11    1    3    3    0    0  0.94712463002E+01  0.12192477628E+02  0.11937701454E+02  0.19515884132E+02  0.51100000000E-03 0.  1.
         12    1    3    3    0    0  0.45097091505E+01  0.42410053256E+00  0.14864471634E+02  0.15539300333E+02  0.00000000000E+00 0. -1.
</event>
<event>
 7    1  0.6859402E-013  0.5052885E+02  0.7816164E-02  0.1300439E+00
        -11   -1    0    0    0    0  0.00000000000E+00  0.00000000000E+00  0.45593999997E+02  0.45594000000E+02  0.51100000000E-03 0. -1.
         11   -1    0    0    0    0 -0.00000000000E+00 -0.00000000000E+00 -0.45593999997E+02  0.45594000000E+02  0.51100000000E-03 0.  1.
    9900012    2    1    2    0    0 -0.23909862113E+02  0.17251752810E+01 -0.32840659296E+02  0.50528848029E+02  0.29999964068E+02 0.  0.
         12    1    1    2    0    0  0.23909862113E+02 -0.17251752810E+01  0.32840659296E+02  0.40659151971E+02  0.00000000000E+00 0. -1.
         11    1    3    3    0    0 -0.19490179536E+01 -0.10926937790E+01  0.38506537913E+01  0.44519866981E+01  0.51100000000E-03 0. -1.
        -11    1    3    3    0    0 -0.18393328461E+02  0.81568971680E+01 -0.20810366387E+02  0.28946862571E+02  0.51100000000E-03 0.  1.
        -12    1    3    3    0    0 -0.35675156990E+01 -0.53390281080E+01 -0.15880946701E+02  0.17129998760E+02  0.00000000000E+00 0.  1.
</event>
<event>
 7    1  0.6136531E-013  0.5052885E+02  0.7816164E-02  0.1300439E+00
        -11   -1    0    0    0    0  0.00000000000E+00  0.00000000000E+00  0.45593999997E+02  0.45594000000E+02  0.51100000000E-03 0.  1.
         11   -1    0    0    0    0 -0.00000000000E+00 -0.00000000000E+00 -0.45593999997E+02  0.45594000000E+02  0.51100000000E-03 0. -1.
    9900012    2    1    2    0    0  0.67708155506E+01 -0.28369200170E+02  0.28328620123E+02  0.50528853678E+02  0.29999981241E+02 0.  0.
         12    1    1    2    0    0 -0.67708155506E+01  0.28369200170E+02 -0.28328620123E+02  0.40659146322E+02  0.00000000000E+00 0. -1.
         11    1    3    3    0    0 -0.13535483853E+01  0.24009252696E+00 -0.13409045514E+01  0.19203548968E+01  0.51100000000E-03 0. -1.
        -11    1    3    3    0    0  0.16197499647E+02 -0.18624324038E+02  0.14095487258E+02  0.28423708449E+02  0.51100000000E-03 0.  1.
        -12    1    3    3    0    0 -0.80731357109E+01 -0.99849686599E+01  0.15574037416E+02  0.20184790333E+02  0.00000000000E+00 0.  1.
</event>
<event>
 7    1  0.6136531E-013  0.5052886E+02  0.7816164E-02  0.1300439E+00
        -11   -1    0    0    0    0  0.00000000000E+00  0.00000000000E+00  0.45593999997E+02  0.45594000000E+02  0.51100000000E-03 0. -1.
         11   -1    0    0    0    0 -0.00000000000E+00 -0.00000000000E+00 -0.45593999997E+02  0.45594000000E+02  0.51100000000E-03 0.  1.
    9900012    2    1    2    0    0  0.11264425779E+02 -0.26408477869E+02 -0.28790116728E+02  0.50528858191E+02  0.29999994956E+02 0.  0.
         12    1    1    2    0    0 -0.11264425779E+02  0.26408477869E+02  0.28790116728E+02  0.40659141809E+02  0.00000000000E+00 0. -1.
         11    1    3    3    0    0 -0.61473211424E+01 -0.65262551249E+01  0.13583022032E+01  0.90678855484E+01  0.51100000000E-03 0. -1.
        -11    1    3    3    0    0  0.15892780514E+02 -0.19157483695E+02 -0.22253758580E+02  0.33388911710E+02  0.51100000000E-03 0.  1.
         12    1    3    3    0    0  0.15189664082E+01 -0.72473904885E+00 -0.78946603513E+01  0.80720609326E+01  0.00000000000E+00 0. -1.
</event>
<event>
 7    1  0.6136531E-013  0.5052888E+02  0.7816164E-02  0.1300439E+00
        -11   -1    0    0    0    0  0.00000000000E+00  0.00000000000E+00  0.45593999997E+02  0.45594000000E+02  0.51100000000E-03 0.  1.
         11   -1    0    0    0    0 -0.00000000000E+00 -0.00000000000E+00 -0.45593999997E+02  0.45594000000E+02  0.51100000000E-03 0. -1.
    9900012    2    1    2    0    0  0.11778791331E+02 -0.26690226472E+02 -0.28320595168E+02  0.50528877715E+02  0.30000054302E+02 0.  0.
         12    1    1    2    0    0 -0.11778791331E+02  0.26690226472E+02  0.28320595168E+02  0.40659122285E+02  0.00000000000E+00 0. -1.
         11    1    3    3    0    0  0.89378796136E+00  0.28882988073E+01  0.29555755859E+01  0.42280674339E+01  0.51100000000E-03 0. -1.
        -11    1    3    3    0    0  0.13044536284E+02 -0.21886450565E+02 -0.19566229174E+02  0.32124974234E+02  0.51100000000E-03 0.  1.
         12    1    3    3    0    0 -0.21595329146E+01 -0.76920747142E+01 -0.11709941580E+02  0.14175836047E+02  0.00000000000E+00 0. -1.
</event>
<event>
 7    1  0.6136531E-013  0.5052886E+02  0.7816164E-02  0.1300439E+00
        -11   -1    0    0    0    0  0.00000000000E+00  0.00000000000E+00  0.45593999997E+02  0.45594000000E+02  0.51100000000E-03 0. -1.
         11   -1    0    0    0    0 -0.00000000000E+00 -0.00000000000E+00 -0.45593999997E+02  0.45594000000E+02  0.51100000000E-03 0.  1.
    9900012    2    1    2    0    0  0.32239979791E+02  0.23164402251E+02  0.87840525740E+01  0.50528863165E+02  0.30000010075E+02 0.  0.
         12    1    1    2    0    0 -0.32239979791E+02 -0.23164402251E+02 -0.87840525740E+01  0.40659136835E+02  0.00000000000E+00 0. -1.
         11    1    3    3    0    0  0.24077353029E+02  0.25495268782E+02  0.67056519051E+01  0.35702849003E+02  0.51100000000E-03 0. -1.
        -11    1    3    3    0    0  0.87510310819E+01 -0.61095750129E+01  0.48695652804E+00  0.10683846627E+02  0.51100000000E-03 0.  1.
         12    1    3    3    0    0 -0.58840431989E+00  0.37787084816E+01  0.15914441409E+01  0.41421675348E+01  0.00000000000E+00 0. -1.
</event>
<event>
 7    1  0.6136531E-013  0.5052886E+02  0.7816164E-02  0.1300439E+00
        -11   -1    0    0    0    0  0.00000000000E+00  0.00000000000E+00  0.45593999997E+02  0.45594000000E+02  0.51100000000E-03 0.  1.
         11   -1    0    0    0    0 -0.00000000000E+00 -0.00000000000E+00 -0.45593999997E+02  0.45594000000E+02  0.51100000000E-03 0. -1.
    9900012    2    1    2    0    0  0.20533206239E+00 -0.32739999835E+01  0.40526587825E+02  0.50528861323E+02  0.30000004479E+02 0.  0.
         12    1    1    2    0    0 -0.20533206239E+00  0.32739999835E+01 -0.40526587825E+02  0.40659138677E+02  0.00000000000E+00 0. -1.
         11    1    3    3    0    0 -0.37144380975E+01 -0.17042034646E+00 -0.15738635304E+01  0.40377147185E+01  0.51100000000E-03 0. -1.
        -11    1    3    3    0    0  0.11159132544E+02 -0.25464589505E+01  0.32483338411E+02  0.34440934466E+02  0.51100000000E-03 0.  1.
         12    1    3    3    0    0 -0.72393623843E+01 -0.55712068652E+00  0.96171129450E+01  0.12050212139E+02  0.00000000000E+00 0. -1.
</event>
<event>
 7    1  0.6136531E-013  0.5052887E+02  0.7816164E-02  0.1300439E+00
        -11   -1    0    0    0    0  0.00000000000E+00  0.00000000000E+00  0.45593999997E+02  0.45594000000E+02  0.51100000000E-03 0. -1.
         11   -1    0    0    0    0 -0.00000000000E+00 -0.00000000000E+00 -0.45593999997E+02  0.45594000000E+02  0.51100000000E-03 0.  1.
    9900012    2    1    2    0    0  0.12810707566E+01 -0.36612932386E+01 -0.40473678338E+02  0.50528870045E+02  0.30000030990E+02 0.  0.
         12    1    1    2    0    0 -0.12810707566E+01  0.36612932386E+01  0.40473678338E+02  0.40659129955E+02  0.00000000000E+00 0. -1.
         11    1    3    3    0    0  0.40161772069E+01 -0.30933908980E+01  0.23855943471E+01  0.56026607299E+01  0.51100000000E-03 0. -1.
        -11    1    3    3    0    0 -0.35286689113E+01 -0.60539669695E+01 -0.15489936493E+02  0.17001180935E+02  0.51100000000E-03 0.  1.
         12    1    3    3    0    0  0.79356246093E+00  0.54860646289E+01 -0.27369336192E+02  0.27925028381E+02  0.00000000000E+00 0. -1.
</event>
<event>
 7    1  0.6136531E-013  0.5052887E+02  0.7816164E-02  0.1300439E+00
        -11   -1    0    0    0    0  0.00000000000E+00  0.00000000000E+00  0.45593999997E+02  0.45594000000E+02  0.51100000000E-03 0.  1.
         11   -1    0    0    0    0 -0.00000000000E+00 -0.00000000000E+00 -0.45593999997E+02  0.45594000000E+02  0.51100000000E-03 0. -1.
    9900012    2    1    2    0    0 -0.27029226031E+02 -0.29928563689E+02 -0.51832906926E+01  0.50528874497E+02  0.30000044520E+02 0.  0.
         12    1    1    2    0    0  0.27029226031E+02  0.29928563689E+02  0.51832906926E+01  0.40659125503E+02  0.00000000000E+00 0. -1.
         11    1    3    3    0    0 -0.10629701411E+00 -0.63108872648E+01  0.29118219627E+01  0.69510649923E+01  0.51100000000E-03 0. -1.
        -11    1    3    3    0    0 -0.12277379143E+02 -0.64934684756E+01 -0.14573906590E+02  0.20132012444E+02  0.51100000000E-03 0.  1.
        -12    1    3    3    0    0 -0.14645549874E+02 -0.17124207948E+02  0.64787939349E+01  0.23445797061E+02  0.00000000000E+00 0.  1.
</event>
<event>
 7    1  0.6136531E-013  0.5052881E+02  0.7816164E-02  0.1300439E+00
        -11   -1    0    0    0    0  0.00000000000E+00  0.00000000000E+00  0.45593999997E+02  0.45594000000E+02  0.51100000000E-03 0.  1.
         11   -1    0    0    0    0 -0.00000000000E+00 -0.00000000000E+00 -0.45593999997E+02  0.45594000000E+02  0.51100000000E-03 0. -1.
    9900012    2    1    2    0    0  0.17320398939E+02 -0.26268953717E+02  0.25751023507E+02  0.50528814562E+02  0.29999862342E+02 0.  0.
         12    1    1    2    0    0 -0.17320398939E+02  0.26268953717E+02 -0.25751023507E+02  0.40659185438E+02  0.00000000000E+00 0. -1.
         11    1    3    3    0    0 -0.43849584530E+01 -0.12196275889E+01  0.95496747218E+01  0.10578829786E+02  0.51100000000E-03 0. -1.
        -11    1    3    3    0    0  0.14105129739E+02 -0.20730795160E+02  0.47118651574E+01  0.25513177506E+02  0.51100000000E-03 0.  1.
        -12    1    3    3    0    0  0.76002276530E+01 -0.43185309683E+01  0.11489483628E+02  0.14436807270E+02  0.00000000000E+00 0.  1.
</event>
<event>
 7    1  0.6136531E-013  0.5052885E+02  0.7816164E-02  0.1300439E+00
        -11   -1    0    0    0    0  0.00000000000E+00  0.00000000000E+00  0.45593999997E+02  0.45594000000E+02  0.51100000000E-03 0. -1.
         11   -1    0    0    0    0 -0.00000000000E+00 -0.00000000000E+00 -0.45593999997E+02  0.45594000000E+02  0.51100000000E-03 0.  1.
    9900012    2    1    2    0    0 -0.24206781164E+01  0.24730616754E+01 -0.40511609012E+02  0.50528853657E+02  0.29999981176E+02 0.  0.
         12    1    1    2    0    0  0.24206781164E+01 -0.24730616754E+01  0.40511609012E+02  0.40659146343E+02  0.00000000000E+00 0. -1.
         11    1    3    3    0    0  0.58928076550E+01 -0.21362088505E+01 -0.46354823761E+00  0.62851768107E+01  0.51100000000E-03 0. -1.
        -11    1    3    3    0    0 -0.11984958763E+02 -0.62658629545E+00 -0.21480741192E+02  0.24605976699E+02  0.51100000000E-03 0.  1.
         12    1    3    3    0    0  0.36714729911E+01  0.52358568214E+01 -0.18567319583E+02  0.19637700147E+02  0.00000000000E+00 0. -1.
</event>
<event>
 7    1  0.6136531E-013  0.5052886E+02  0.7816164E-02  0.1300439E+00
        -11   -1    0    0    0    0  0.00000000000E+00  0.00000000000E+00  0.45593999997E+02  0.45594000000E+02  0.51100000000E-03 0.  1.
         11   -1    0    0    0    0 -0.00000000000E+00 -0.00000000000E+00 -0.45593999997E+02  0.45594000000E+02  0.51100000000E-03 0. -1.
    9900012    2    1    2    0    0  0.22016929258E+02  0.18586927685E+01  0.34131597069E+02  0.50528857963E+02  0.29999994263E+02 0.  0.
         12    1    1    2    0    0 -0.22016929258E+02 -0.18586927685E+01 -0.34131597069E+02  0.40659142037E+02  0.00000000000E+00 0. -1.
         11    1    3    3    0    0  0.42234233513E+01 -0.46582798215E+01 -0.69680824365E+00  0.63263273460E+01  0.51100000000E-03 0. -1.
        -11    1    3    3    0    0  0.73249913192E+01  0.92054197859E+01  0.30263958430E+02  0.32470023581E+02  0.51100000000E-03 0.  1.
        -12    1    3    3    0    0  0.10468514587E+02 -0.26884471959E+01  0.45644468824E+01  0.11732507035E+02  0.00000000000E+00 0.  1.
</event>
<event>
 7    1  0.6136531E-013  0.5052883E+02  0.7816164E-02  0.1300439E+00
        -11   -1    0    0    0    0  0.00000000000E+00  0.00000000000E+00  0.45593999997E+02  0.45594000000E+02  0.51100000000E-03 0. -1.
         11   -1    0    0    0    0 -0.00000000000E+00 -0.00000000000E+00 -0.45593999997E+02  0.45594000000E+02  0.51100000000E-03 0.  1.
    9900012    2    1    2    0    0  0.30729554355E+02  0.21009176330E+02 -0.16354721622E+02  0.50528832273E+02  0.29999916177E+02 0.  0.
         12    1    1    2    0    0 -0.30729554355E+02 -0.21009176330E+02  0.16354721622E+02  0.40659167727E+02  0.00000000000E+00 0. -1.
         11    1    3    3    0    0  0.19726999764E+02  0.14785137547E+00 -0.12817993061E+02  0.23526098829E+02  0.51100000000E-03 0. -1.
        -11    1    3    3    0    0  0.60853613284E+01  0.10392413529E+01 -0.21334276220E+01  0.65317041242E+01  0.51100000000E-03 0.  1.
         12    1    3    3    0    0  0.49171932627E+01  0.19822083602E+02 -0.14033009383E+01  0.20471029320E+02  0.00000000000E+00 0. -1.
</event>
<event>
 7    1  0.6136531E-013  0.5052885E+02  0.7816164E-02  0.1300439E+00
        -11   -1    0    0    0    0  0.00000000000E+00  0.00000000000E+00  0.45593999997E+02  0.45594000000E+02  0.51100000000E-03 0.  1.
         11   -1    0    0    0    0 -0.00000000000E+00 -0.00000000000E+00 -0.45593999997E+02  0.45594000000E+02  0.51100000000E-03 0. -1.
    9900012    2    1    2    0    0  0.22463501743E+02 -0.22866509824E+02 -0.25013600369E+02  0.50528851146E+02  0.29999973545E+02 0.  0.
         12    1    1    2    0    0 -0.22463501743E+02  0.22866509824E+02  0.25013600369E+02  0.40659148854E+02  0.00000000000E+00 0. -1.
         11    1    3    3    0    0  0.30720882483E+01  0.23444929700E+01 -0.16319817598E+02  0.16771130558E+02  0.51100000000E-03 0. -1.
        -11    1    3    3    0    0  0.26521700901E+01 -0.81759243268E+01 -0.37020011441E+01  0.93586621649E+01  0.51100000000E-03 0.  1.
         12    1    3    3    0    0  0.16739243404E+02 -0.17035078468E+02 -0.49917816262E+01  0.24399058423E+02  0.00000000000E+00 0. -1.
</event>
<event>
 7    1  0.6136531E-013  0.5052886E+02  0.7816164E-02  0.1300439E+00
        -11   -1    0    0    0    0  0.00000000000E+00  0.00000000000E+00  0.45593999997E+02  0.45594000000E+02  0.51100000000E-03 0.  1.
         11   -1    0    0    0    0 -0.00000000000E+00 -0.00000000000E+00 -0.45593999997E+02  0.45594000000E+02  0.51100000000E-03 0. -1.
    9900012    2    1    2    0    0  0.27079201443E+02 -0.26991755364E+02  0.13832129154E+02  0.50528858281E+02  0.29999995232E+02 0.  0.
         12    1    1    2    0    0 -0.27079201443E+02  0.26991755364E+02 -0.13832129154E+02  0.40659141719E+02  0.00000000000E+00 0. -1.
         11    1    3    3    0    0 -0.62338926904E+01 -0.11519380205E+01  0.14412976061E+01  0.65012089898E+01  0.51100000000E-03 0. -1.
        -11    1    3    3    0    0  0.23236993884E+02 -0.19526688741E+02  0.85821284194E+01  0.31542073274E+02  0.51100000000E-03 0.  1.
         12    1    3    3    0    0  0.10076100249E+02 -0.63131286020E+01  0.38087031281E+01  0.12485576018E+02  0.00000000000E+00 0. -1.
</event>
<event>
 7    1  0.6136531E-013  0.5052884E+02  0.7816164E-02  0.1300439E+00
        -11   -1    0    0    0    0  0.00000000000E+00  0.00000000000E+00  0.45593999997E+02  0.45594000000E+02  0.51100000000E-03 0. -1.
         11   -1    0    0    0    0 -0.00000000000E+00 -0.00000000000E+00 -0.45593999997E+02  0.45594000000E+02  0.51100000000E-03 0.  1.
    9900012    2    1    2    0    0  0.26691486136E+02 -0.30170805492E+02  0.55185238595E+01  0.50528843076E+02  0.29999949013E+02 0.  0.
         12    1    1    2    0    0 -0.26691486136E+02  0.30170805492E+02 -0.55185238595E+01  0.40659156924E+02  0.00000000000E+00 0. -1.
         11    1    3    3    0    0  0.32014622131E+01  0.42140907400E+01 -0.48098415843E+01  0.71513982824E+01  0.51100000000E-03 0. -1.
        -11    1    3    3    0    0  0.20501662492E+02 -0.25360112194E+02  0.75523281610E+01  0.33473737711E+02  0.51100000000E-03 0.  1.
         12    1    3    3    0    0  0.29883614311E+01 -0.90247840379E+01  0.27760372828E+01  0.99037070822E+01  0.00000000000E+00 0. -1.
</event>
<event>
 7    1  0.6136531E-013  0.5052886E+02  0.7816164E-02  0.1300439E+00
        -11   -1    0    0    0    0  0.00000000000E+00  0.00000000000E+00  0.45593999997E+02  0.45594000000E+02  0.51100000000E-03 0.  1.
         11   -1    0    0    0    0 -0.00000000000E+00 -0.00000000000E+00 -0.45593999997E+02  0.45594000000E+02  0.51100000000E-03 0. -1.
    9900012    2    1    2    0    0 -0.24109045438E+02  0.90330840156E+01  0.31469396410E+02  0.50528860939E+02  0.30000003311E+02 0.  0.
         12    1    1    2    0    0  0.24109045438E+02 -0.90330840156E+01 -0.31469396410E+02  0.40659139061E+02  0.00000000000E+00 0. -1.
         11    1    3    3    0    0  0.34864580194E+01  0.76383568586E+01  0.10509772356E+02  0.13451958975E+02  0.51100000000E-03 0. -1.
        -11    1    3    3    0    0 -0.27216592956E+02  0.43364812304E+01  0.19570529124E+02  0.33801680610E+02  0.51100000000E-03 0.  1.
         12    1    3    3    0    0 -0.37891050123E+00 -0.29417540734E+01  0.13890949297E+01  0.32752213544E+01  0.00000000000E+00 0. -1.
</event>
<event>
 7    1  0.6136531E-013  0.5052886E+02  0.7816164E-02  0.1300439E+00
        -11   -1    0    0    0    0  0.00000000000E+00  0.00000000000E+00  0.45593999997E+02  0.45594000000E+02  0.51100000000E-03 0.  1.
         11   -1    0    0    0    0 -0.00000000000E+00 -0.00000000000E+00 -0.45593999997E+02  0.45594000000E+02  0.51100000000E-03 0. -1.
    9900012    2    1    2    0    0  0.71331578455E+01  0.86023976893E+01  0.39093256722E+02  0.50528857019E+02  0.29999991394E+02 0.  0.
         12    1    1    2    0    0 -0.71331578455E+01 -0.86023976893E+01 -0.39093256722E+02  0.40659142981E+02  0.00000000000E+00 0. -1.
         11    1    3    3    0    0 -0.14648431097E+01  0.25329484900E+01 -0.41551823675E+01  0.50820403537E+01  0.51100000000E-03 0. -1.
        -11    1    3    3    0    0  0.91686804430E+01  0.76664824868E+01  0.33882930153E+02  0.35928994013E+02  0.51100000000E-03 0.  1.
         12    1    3    3    0    0 -0.57067948776E+00 -0.15970332875E+01  0.93655089362E+01  0.95178226519E+01  0.00000000000E+00 0. -1.
</event>
<event>
 7    1  0.6136531E-013  0.5052886E+02  0.7816164E-02  0.1300439E+00
        -11   -1    0    0    0    0  0.00000000000E+00  0.00000000000E+00  0.45593999997E+02  0.45594000000E+02  0.51100000000E-03 0. -1.
         11   -1    0    0    0    0 -0.00000000000E+00 -0.00000000000E+00 -0.45593999997E+02  0.45594000000E+02  0.51100000000E-03 0.  1.
    9900012    2    1    2    0    0 -0.19485605034E+02  0.23932237636E+02 -0.26471206296E+02  0.50528861242E+02  0.30000004231E+02 0.  0.
         12    1    1    2    0    0  0.19485605034E+02 -0.23932237636E+02  0.26471206296E+02  0.40659138758E+02  0.00000000000E+00 0. -1.
         11    1    3    3    0    0 -0.19098311287E+02  0.54314789257E+01 -0.14789918448E+02  0.24758597401E+02  0.51100000000E-03 0. -1.
        -11    1    3    3    0    0 -0.34771322088E+01  0.70523844050E+01  0.15378275718E+01  0.80119590672E+01  0.51100000000E-03 0.  1.
         12    1    3    3    0    0  0.30898384613E+01  0.11448374305E+02 -0.13219115420E+02  0.17758304774E+02  0.00000000000E+00 0. -1.
</event>
<event>
 7    1  0.6136531E-013  0.5052885E+02  0.7816164E-02  0.1300439E+00
        -11   -1    0    0    0    0  0.00000000000E+00  0.00000000000E+00  0.45593999997E+02  0.45594000000E+02  0.51100000000E-03 0. -1.
         11   -1    0    0    0    0 -0.00000000000E+00 -0.00000000000E+00 -0.45593999997E+02  0.45594000000E+02  0.51100000000E-03 0.  1.
    9900012    2    1    2    0    0  0.94583271468E+00 -0.39967483279E+02 -0.74075953895E+01  0.50528846189E+02  0.29999958477E+02 0.  0.
         12    1    1    2    0    0 -0.94583271468E+00  0.39967483279E+02  0.74075953895E+01  0.40659153811E+02  0.00000000000E+00 0. -1.
         11    1    3    3    0    0 -0.11137430538E+02 -0.18367459435E+02 -0.85867514269E+01  0.23133054822E+02  0.51100000000E-03 0. -1.
        -11    1    3    3    0    0  0.12978047789E+02 -0.22064587554E+02 -0.30668384717E+00  0.25600191476E+02  0.51100000000E-03 0.  1.
        -12    1    3    3    0    0 -0.89478453637E+00  0.46456371049E+00  0.14858398846E+01  0.17955998915E+01  0.00000000000E+00 0.  1.
</event>
<event>
 7    1  0.6136531E-013  0.5052886E+02  0.7816164E-02  0.1300439E+00
        -11   -1    0    0    0    0  0.00000000000E+00  0.00000000000E+00  0.45593999997E+02  0.45594000000E+02  0.51100000000E-03 0. -1.
         11   -1    0    0    0    0 -0.00000000000E+00 -0.00000000000E+00 -0.45593999997E+02  0.45594000000E+02  0.51100000000E-03 0.  1.
    9900012    2    1    2    0    0  0.37443320134E+02 -0.52950852472E+01 -0.14937377032E+02  0.50528863474E+02  0.30000011015E+02 0.  0.
         12    1    1    2    0    0 -0.37443320134E+02  0.52950852472E+01  0.14937377032E+02  0.40659136526E+02  0.00000000000E+00 0. -1.
         11    1    3    3    0    0  0.55233814444E+01 -0.47884418349E+01  0.49453898526E+01  0.88257463618E+01  0.51100000000E-03 0. -1.
        -11    1    3    3    0    0  0.22965034071E+02  0.67784933041E+01 -0.18114286423E+02  0.30024458933E+02  0.51100000000E-03 0.  1.
        -12    1    3    3    0    0  0.89549046189E+01 -0.72851367164E+01 -0.17684804614E+01  0.11678658179E+02  0.00000000000E+00 0.  1.
</event>
<event>
 7    1  0.6136531E-013  0.5052886E+02  0.7816164E-02  0.1300439E+00
        -11   -1    0    0    0    0  0.00000000000E+00  0.00000000000E+00  0.45593999997E+02  0.45594000000E+02  0.51100000000E-03 0.  1.
         11   -1    0    0    0    0 -0.00000000000E+00 -0.00000000000E+00 -0.45593999997E+02  0.45594000000E+02  0.51100000000E-03 0. -1.
    9900012    2    1    2    0    0  0.56456828377E+01  0.31171059911E+02  0.25488376520E+02  0.50528855293E+02  0.29999986149E+02 0.  0.
         12    1    1    2    0    0 -0.56456828377E+01 -0.31171059911E+02 -0.25488376520E+02  0.40659144707E+02  0.00000000000E+00 0. -1.
         11    1    3    3    0    0  0.88390876854E+01 -0.96381518035E+00  0.10454415272E+02  0.13724183391E+02  0.51100000000E-03 0. -1.
        -11    1    3    3    0    0 -0.26657452170E+01  0.28133721706E+02  0.16238485933E+02  0.32592958139E+02  0.51100000000E-03 0.  1.
         12    1    3    3    0    0 -0.52765963059E+00  0.40011533859E+01 -0.12045246854E+01  0.42117137630E+01  0.00000000000E+00 0. -1.
</event>
<event>
 7    1  0.6136531E-013  0.5052885E+02  0.7816164E-02  0.1300439E+00
        -11   -1    0    0    0    0  0.00000000000E+00  0.00000000000E+00  0.45593999997E+02  0.45594000000E+02  0.51100000000E-03 0.  1.
         11   -1    0    0    0    0 -0.00000000000E+00 -0.00000000000E+00 -0.45593999997E+02  0.45594000000E+02  0.51100000000E-03 0. -1.
    9900012    2    1    2    0    0 -0.10633947324E+02 -0.15530024966E+02  0.36040310968E+02  0.50528849422E+02  0.29999968302E+02 0.  0.
         12    1    1    2    0    0  0.10633947324E+02  0.15530024966E+02 -0.36040310968E+02  0.40659150578E+02  0.00000000000E+00 0. -1.
         11    1    3    3    0    0  0.73100242818E+00  0.74114194351E+01  0.25742267535E+01  0.78797300863E+01  0.51100000000E-03 0. -1.
        -11    1    3    3    0    0 -0.73867851095E+01 -0.81488761828E+01  0.11998865759E+02  0.16277025436E+02  0.51100000000E-03 0.  1.
         12    1    3    3    0    0 -0.39781646426E+01 -0.14792568218E+02  0.21467218456E+02  0.26372093899E+02  0.00000000000E+00 0. -1.
</event>
<event>
 7    1  0.6136531E-013  0.5052892E+02  0.7816164E-02  0.1300439E+00
        -11   -1    0    0    0    0  0.00000000000E+00  0.00000000000E+00  0.45593999997E+02  0.45594000000E+02  0.51100000000E-03 0.  1.
         11   -1    0    0    0    0 -0.00000000000E+00 -0.00000000000E+00 -0.45593999997E+02  0.45594000000E+02  0.51100000000E-03 0. -1.
    9900012    2    1    2    0    0 -0.91029450826E+01 -0.34346752718E+02 -0.19763546713E+02  0.50528919708E+02  0.30000181944E+02 0.  0.
         12    1    1    2    0    0  0.91029450826E+01  0.34346752718E+02  0.19763546713E+02  0.40659080292E+02  0.00000000000E+00 0. -1.
         11    1    3    3    0    0  0.41290451970E+01 -0.42642044290E+01 -0.98977076468E+01  0.11541103525E+02  0.51100000000E-03 0. -1.
        -11    1    3    3    0    0 -0.98854773023E+01 -0.87803055638E+01  0.34239104249E+01  0.13657949705E+02  0.51100000000E-03 0.  1.
        -12    1    3    3    0    0 -0.33465129774E+01 -0.21302242726E+02 -0.13289749491E+02  0.25329866478E+02  0.00000000000E+00 0.  1.
</event>
<event>
 7    1  0.6136531E-013  0.5052886E+02  0.7816164E-02  0.1300439E+00
        -11   -1    0    0    0    0  0.00000000000E+00  0.00000000000E+00  0.45593999997E+02  0.45594000000E+02  0.51100000000E-03 0.  1.
         11   -1    0    0    0    0 -0.00000000000E+00 -0.00000000000E+00 -0.45593999997E+02  0.45594000000E+02  0.51100000000E-03 0. -1.
    9900012    2    1    2    0    0 -0.27707461286E+02  0.20789721751E+02  0.21289668573E+02  0.50528856756E+02  0.29999990596E+02 0.  0.
         12    1    1    2    0    0  0.27707461286E+02 -0.20789721751E+02 -0.21289668573E+02  0.40659143244E+02  0.00000000000E+00 0. -1.
         11    1    3    3    0    0 -0.20145092768E+02  0.86981842868E+01  0.39200757080E+01  0.22290136077E+02  0.51100000000E-03 0. -1.
        -11    1    3    3    0    0  0.37379643313E+01  0.35317510477E+01  0.12042516206E+02  0.13094572907E+02  0.51100000000E-03 0.  1.
        -12    1    3    3    0    0 -0.11300332849E+02  0.85597864168E+01  0.53270766593E+01  0.15144147772E+02  0.00000000000E+00 0.  1.
</event>
<event>
 7    1  0.6136531E-013  0.5052883E+02  0.7816164E-02  0.1300439E+00
        -11   -1    0    0    0    0  0.00000000000E+00  0.00000000000E+00  0.45593999997E+02  0.45594000000E+02  0.51100000000E-03 0.  1.
         11   -1    0    0    0    0 -0.00000000000E+00 -0.00000000000E+00 -0.45593999997E+02  0.45594000000E+02  0.51100000000E-03 0. -1.
    9900012    2    1    2    0    0  0.14045940542E+02 -0.38020705498E+02  0.32102672038E+01  0.50528827507E+02  0.29999901690E+02 0.  0.
         12    1    1    2    0    0 -0.14045940542E+02  0.38020705498E+02 -0.32102672038E+01  0.40659172493E+02  0.00000000000E+00 0. -1.
         11    1    3    3    0    0  0.41468003120E+01 -0.72900809557E+01 -0.24055060013E+01  0.87251184835E+01  0.51100000000E-03 0. -1.
        -11    1    3    3    0    0 -0.54598478028E+01 -0.24072869097E+02  0.34590402421E+01  0.24925447323E+02  0.51100000000E-03 0.  1.
        -12    1    3    3    0    0  0.15358988033E+02 -0.66577554458E+01  0.21567329630E+01  0.16878261701E+02  0.00000000000E+00 0.  1.
</event>
<event>
 7    1  0.6136531E-013  0.5052886E+02  0.7816164E-02  0.1300439E+00
        -11   -1    0    0    0    0  0.00000000000E+00  0.00000000000E+00  0.45593999997E+02  0.45594000000E+02  0.51100000000E-03 0.  1.
         11   -1    0    0    0    0 -0.00000000000E+00 -0.00000000000E+00 -0.45593999997E+02  0.45594000000E+02  0.51100000000E-03 0. -1.
    9900012    2    1    2    0    0  0.19732273358E+02  0.33639526049E+02  0.11497186648E+02  0.50528860492E+02  0.30000001952E+02 0.  0.
         12    1    1    2    0    0 -0.19732273358E+02 -0.33639526049E+02 -0.11497186648E+02  0.40659139508E+02  0.00000000000E+00 0. -1.
         11    1    3    3    0    0  0.50796052980E+01  0.20830490961E+02  0.25510497756E-01  0.21440904708E+02  0.51100000000E-03 0. -1.
        -11    1    3    3    0    0  0.15174423341E+02  0.63158115871E+01  0.14487258153E+02  0.21909661083E+02  0.51100000000E-03 0.  1.
        -12    1    3    3    0    0 -0.52175528080E+00  0.64932235006E+01 -0.30155820019E+01  0.71782947008E+01  0.00000000000E+00 0.  1.
</event>
<event>
 7    1  0.6136531E-013  0.5052886E+02  0.7816164E-02  0.1300439E+00
        -11   -1    0    0    0    0  0.00000000000E+00  0.00000000000E+00  0.45593999997E+02  0.45594000000E+02  0.51100000000E-03 0. -1.
         11   -1    0    0    0    0 -0.00000000000E+00 -0.00000000000E+00 -0.45593999997E+02  0.45594000000E+02  0.51100000000E-03 0.  1.
    9900012    2    1    2    0    0 -0.52866702691E+01  0.40189572810E+02  0.31646982116E+01  0.50528856379E+02  0.29999989450E+02 0.  0.
         12    1    1    2    0    0  0.52866702691E+01 -0.40189572810E+02 -0.31646982116E+01  0.40659143621E+02  0.00000000000E+00 0. -1.
         11    1    3    3    0    0  0.12180643886E+01  0.31006347462E+02  0.10959294666E+02  0.32908713187E+02  0.51100000000E-03 0. -1.
        -11    1    3    3    0    0 -0.73927340964E+01  0.26739369955E+01 -0.61050034059E+00  0.78851231698E+01  0.51100000000E-03 0.  1.
         12    1    3    3    0    0  0.88799943862E+00  0.65092883532E+01 -0.71840961137E+01  0.97350200225E+01  0.00000000000E+00 0. -1.
</event>
<event>
 7    1  0.6136531E-013  0.5052886E+02  0.7816164E-02  0.1300439E+00
        -11   -1    0    0    0    0  0.00000000000E+00  0.00000000000E+00  0.45593999997E+02  0.45594000000E+02  0.51100000000E-03 0.  1.
         11   -1    0    0    0    0 -0.00000000000E+00 -0.00000000000E+00 -0.45593999997E+02  0.45594000000E+02  0.51100000000E-03 0. -1.
    9900012    2    1    2    0    0 -0.76557276207E+01  0.13037840514E+02  0.37743480920E+02  0.50528858315E+02  0.29999995333E+02 0.  0.
         12    1    1    2    0    0  0.76557276207E+01 -0.13037840514E+02 -0.37743480920E+02  0.40659141685E+02  0.00000000000E+00 0. -1.
         11    1    3    3    0    0  0.17979766981E+01 -0.77883697721E+01  0.64850572544E+01  0.10293074942E+02  0.51100000000E-03 0. -1.
        -11    1    3    3    0    0 -0.97736126026E+01  0.17650984822E+02  0.19527535961E+02  0.28078558180E+02  0.51100000000E-03 0.  1.
         12    1    3    3    0    0  0.31990828381E+00  0.31752254644E+01  0.11730887704E+02  0.12157225193E+02  0.00000000000E+00 0. -1.
</event>
<event>
 7    1  0.6136531E-013  0.5052887E+02  0.7816164E-02  0.1300439E+00
        -11   -1    0    0    0    0  0.00000000000E+00  0.00000000000E+00  0.45593999997E+02  0.45594000000E+02  0.51100000000E-03 0.  1.
         11   -1    0    0    0    0 -0.00000000000E+00 -0.00000000000E+00 -0.45593999997E+02  0.45594000000E+02  0.51100000000E-03 0. -1.
    9900012    2    1    2    0    0 -0.26041831593E+02  0.31199144926E+02  0.12654250382E+01  0.50528868955E+02  0.30000027676E+02 0.  0.
         12    1    1    2    0    0  0.26041831593E+02 -0.31199144926E+02 -0.12654250382E+01  0.40659131045E+02  0.00000000000E+00 0. -1.
         11    1    3    3    0    0 -0.23844085182E+02  0.25154311010E+02  0.30323775393E+01  0.34791882305E+02  0.51100000000E-03 0.  1.
        -11    1    3    3    0    0 -0.16320052049E+01 -0.39619889232E+01  0.23668449801E+01  0.48951764664E+01  0.51100000000E-03 0. -1.
         12    1    3    3    0    0 -0.56574120606E+00  0.10006822839E+02 -0.41337974811E+01  0.10841810184E+02  0.00000000000E+00 0. -1.
</event>
<event>
 7    1  0.6136531E-013  0.5052883E+02  0.7816164E-02  0.1300439E+00
        -11   -1    0    0    0    0  0.00000000000E+00  0.00000000000E+00  0.45593999997E+02  0.45594000000E+02  0.51100000000E-03 0.  1.
         11   -1    0    0    0    0 -0.00000000000E+00 -0.00000000000E+00 -0.45593999997E+02  0.45594000000E+02  0.51100000000E-03 0. -1.
    9900012    2    1    2    0    0  0.52287412089E+01 -0.38622810495E+02  0.11580459900E+02  0.50528827890E+02  0.29999902855E+02 0.  0.
         12    1    1    2    0    0 -0.52287412089E+01  0.38622810495E+02 -0.11580459900E+02  0.40659172110E+02  0.00000000000E+00 0. -1.
         11    1    3    3    0    0 -0.12104790027E+01 -0.19791447347E+00  0.48702384770E-01  0.12275185287E+01  0.51100000000E-03 0. -1.
        -11    1    3    3    0    0  0.10972163184E+02 -0.31627654981E+01 -0.13254577198E+01  0.11495576930E+02  0.51100000000E-03 0.  1.
        -12    1    3    3    0    0 -0.45329429725E+01 -0.35262130523E+02  0.12857215235E+02  0.37805732431E+02  0.00000000000E+00 0.  1.
</event>
<event>
 7    1  0.6136531E-013  0.5052885E+02  0.7816164E-02  0.1300439E+00
        -11   -1    0    0    0    0  0.00000000000E+00  0.00000000000E+00  0.45593999997E+02  0.45594000000E+02  0.51100000000E-03 0. -1.
         11   -1    0    0    0    0 -0.00000000000E+00 -0.00000000000E+00 -0.45593999997E+02  0.45594000000E+02  0.51100000000E-03 0.  1.
    9900012    2    1    2    0    0  0.14891487111E+02 -0.33736070110E+02 -0.17125634073E+02  0.50528853953E+02  0.29999982076E+02 0.  0.
         12    1    1    2    0    0 -0.14891487111E+02  0.33736070110E+02  0.17125634073E+02  0.40659146047E+02  0.00000000000E+00 0. -1.
         11    1    3    3    0    0 -0.20276665184E+01 -0.54270486468E+00 -0.11217816834E+02  0.11412509578E+02  0.51100000000E-03 0. -1.
        -11    1    3    3    0    0  0.17926937104E+02 -0.30278445398E+02 -0.38251247531E+01  0.35394786471E+02  0.51100000000E-03 0.  1.
        -12    1    3    3    0    0 -0.10077834745E+01 -0.29149198470E+01 -0.20826924857E+01  0.37215579044E+01  0.00000000000E+00 0.  1.
</event>
<event>
 7    1  0.6136531E-013  0.5052888E+02  0.7816164E-02  0.1300439E+00
        -11   -1    0    0    0    0  0.00000000000E+00  0.00000000000E+00  0.45593999997E+02  0.45594000000E+02  0.51100000000E-03 0.  1.
         11   -1    0    0    0    0 -0.00000000000E+00 -0.00000000000E+00 -0.45593999997E+02  0.45594000000E+02  0.51100000000E-03 0. -1.
    9900012    2    1    2    0    0  0.39445327422E+02 -0.20379953409E+01 -0.96476336180E+01  0.50528879069E+02  0.30000058418E+02 0.  0.
         12    1    1    2    0    0 -0.39445327422E+02  0.20379953409E+01  0.96476336180E+01  0.40659120931E+02  0.00000000000E+00 0. -1.
         11    1    3    3    0    0 -0.37726543155E+01 -0.10566902223E+01 -0.18970867269E+00  0.39224360354E+01  0.51100000000E-03 0. -1.
        -11    1    3    3    0    0  0.27845004936E+02 -0.23716439823E+01  0.99648871893E+00  0.27963583195E+02  0.51100000000E-03 0.  1.
         12    1    3    3    0    0  0.15372976802E+02  0.13903388637E+01 -0.10454413664E+02  0.18642859839E+02  0.00000000000E+00 0. -1.
</event>
<event>
 7    1  0.6136531E-013  0.5052886E+02  0.7816164E-02  0.1300439E+00
        -11   -1    0    0    0    0  0.00000000000E+00  0.00000000000E+00  0.45593999997E+02  0.45594000000E+02  0.51100000000E-03 0.  1.
         11   -1    0    0    0    0 -0.00000000000E+00 -0.00000000000E+00 -0.45593999997E+02  0.45594000000E+02  0.51100000000E-03 0. -1.
    9900012    2    1    2    0    0 -0.62832553179E+01 -0.30154635409E+01  0.40057375897E+02  0.50528859803E+02  0.29999999858E+02 0.  0.
         12    1    1    2    0    0  0.62832553179E+01  0.30154635409E+01 -0.40057375897E+02  0.40659140197E+02  0.00000000000E+00 0. -1.
         11    1    3    3    0    0 -0.45853587775E+01 -0.68037100972E+01  0.12873268517E+02  0.15265550392E+02  0.51100000000E-03 0. -1.
        -11    1    3    3    0    0  0.42604765859E+01  0.84289967237E+01  0.25944202910E+02  0.27609804624E+02  0.51100000000E-03 0.  1.
        -12    1    3    3    0    0 -0.59583731263E+01 -0.46407501674E+01  0.12399044705E+01  0.76535047870E+01  0.00000000000E+00 0.  1.
</event>
<event>
 7    1  0.6136531E-013  0.5052886E+02  0.7816164E-02  0.1300439E+00
        -11   -1    0    0    0    0  0.00000000000E+00  0.00000000000E+00  0.45593999997E+02  0.45594000000E+02  0.51100000000E-03 0. -1.
         11   -1    0    0    0    0 -0.00000000000E+00 -0.00000000000E+00 -0.45593999997E+02  0.45594000000E+02  0.51100000000E-03 0.  1.
    9900012    2    1    2    0    0 -0.12582103148E+02  0.71556900874E+01 -0.37995425730E+02  0.50528860847E+02  0.30000003030E+02 0.  0.
         12    1    1    2    0    0  0.12582103148E+02 -0.71556900874E+01  0.37995425730E+02  0.40659139153E+02  0.00000000000E+00 0. -1.
         11    1    3    3    0    0 -0.65896979319E+01 -0.83883441114E+01 -0.20171837711E+02  0.22818665006E+02  0.51100000000E-03 0. -1.
        -11    1    3    3    0    0 -0.64411961459E+01  0.83942346906E+01 -0.26154159468E+01  0.10899201102E+02  0.51100000000E-03 0.  1.
         12    1    3    3    0    0  0.44879092971E+00  0.71497995082E+01 -0.15208172072E+02  0.16810994738E+02  0.00000000000E+00 0. -1.
</event>
<event>
 7    1  0.6136531E-013  0.5052884E+02  0.7816164E-02  0.1300439E+00
        -11   -1    0    0    0    0  0.00000000000E+00  0.00000000000E+00  0.45593999997E+02  0.45594000000E+02  0.51100000000E-03 0. -1.
         11   -1    0    0    0    0 -0.00000000000E+00 -0.00000000000E+00 -0.45593999997E+02  0.45594000000E+02  0.51100000000E-03 0.  1.
    9900012    2    1    2    0    0 -0.62420411872E+01 -0.40098776536E+02 -0.25084610670E+01  0.50528839472E+02  0.29999938061E+02 0.  0.
         12    1    1    2    0    0  0.62420411872E+01  0.40098776536E+02  0.25084610670E+01  0.40659160528E+02  0.00000000000E+00 0. -1.
         11    1    3    3    0    0 -0.90886179575E+01 -0.21004132436E+02  0.96745181763E+01  0.24846988912E+02  0.51100000000E-03 0. -1.
        -11    1    3    3    0    0  0.61998567980E+01 -0.18063649076E+02 -0.10166585261E+02  0.21635459283E+02  0.51100000000E-03 0.  1.
         12    1    3    3    0    0 -0.33532800277E+01 -0.10309950245E+01 -0.20163939818E+01  0.40463912780E+01  0.00000000000E+00 0. -1.
</event>
<event>
 7    1  0.6136531E-013  0.5052886E+02  0.7816164E-02  0.1300439E+00
        -11   -1    0    0    0    0  0.00000000000E+00  0.00000000000E+00  0.45593999997E+02  0.45594000000E+02  0.51100000000E-03 0. -1.
         11   -1    0    0    0    0 -0.00000000000E+00 -0.00000000000E+00 -0.45593999997E+02  0.45594000000E+02  0.51100000000E-03 0.  1.
    9900012    2    1    2    0    0 -0.18018195992E+02 -0.11670681865E+02  0.34529782053E+02  0.50528855264E+02  0.29999986061E+02 0.  0.
         12    1    1    2    0    0  0.18018195992E+02  0.11670681865E+02 -0.34529782053E+02  0.40659144736E+02  0.00000000000E+00 0. -1.
         11    1    3    3    0    0 -0.74362043912E+01 -0.94047891320E+01 -0.67470280425E+00  0.12008431142E+02  0.51100000000E-03 0. -1.
        -11    1    3    3    0    0  0.15751625739E+01  0.20427420790E+01  0.81538866486E+01  0.85521810127E+01  0.51100000000E-03 0.  1.
         12    1    3    3    0    0 -0.12157154175E+02 -0.43086348121E+01  0.27050598209E+02  0.29968243109E+02  0.00000000000E+00 0. -1.
</event>
<event>
 7    1  0.6136531E-013  0.5052886E+02  0.7816164E-02  0.1300439E+00
        -11   -1    0    0    0    0  0.00000000000E+00  0.00000000000E+00  0.45593999997E+02  0.45594000000E+02  0.51100000000E-03 0. -1.
         11   -1    0    0    0    0 -0.00000000000E+00 -0.00000000000E+00 -0.45593999997E+02  0.45594000000E+02  0.51100000000E-03 0.  1.
    9900012    2    1    2    0    0 -0.92164518782E+01 -0.28633614497E+02 -0.27355779425E+02  0.50528861638E+02  0.30000005435E+02 0.  0.
         12    1    1    2    0    0  0.92164518782E+01  0.28633614497E+02  0.27355779425E+02  0.40659138362E+02  0.00000000000E+00 0. -1.
         11    1    3    3    0    0  0.20944526556E+01 -0.62065528410E+01 -0.19912124509E+02  0.20961887625E+02  0.51100000000E-03 0. -1.
        -11    1    3    3    0    0 -0.14465403778E+02 -0.19394017378E+02 -0.68867822589E+01  0.25155587584E+02  0.51100000000E-03 0.  1.
        -12    1    3    3    0    0  0.31544992444E+01 -0.30330442778E+01 -0.55687265722E+00  0.44113864295E+01  0.00000000000E+00 0.  1.
</event>
<event>
 7    1  0.6136531E-013  0.5052886E+02  0.7816164E-02  0.1300439E+00
        -11   -1    0    0    0    0  0.00000000000E+00  0.00000000000E+00  0.45593999997E+02  0.45594000000E+02  0.51100000000E-03 0. -1.
         11   -1    0    0    0    0 -0.00000000000E+00 -0.00000000000E+00 -0.45593999997E+02  0.45594000000E+02  0.51100000000E-03 0.  1.
    9900012    2    1    2    0    0 -0.23079792755E+02 -0.39790735665E+01 -0.33236363559E+02  0.50528859297E+02  0.29999998319E+02 0.  0.
         12    1    1    2    0    0  0.23079792755E+02  0.39790735665E+01  0.33236363559E+02  0.40659140703E+02  0.00000000000E+00 0. -1.
         11    1    3    3    0    0 -0.77168067220E+01 -0.11779998122E+02 -0.39847707115E+01  0.14635431651E+02  0.51100000000E-03 0. -1.
        -11    1    3    3    0    0 -0.13824823193E+02  0.63423799727E+01 -0.14580337683E+02  0.21069830736E+02  0.51100000000E-03 0.  1.
         12    1    3    3    0    0 -0.15381628405E+01  0.14585445827E+01 -0.14671255165E+02  0.14823596910E+02  0.00000000000E+00 0. -1.
</event>
<event>
 7    1  0.6136531E-013  0.5052888E+02  0.7816164E-02  0.1300439E+00
        -11   -1    0    0    0    0  0.00000000000E+00  0.00000000000E+00  0.45593999997E+02  0.45594000000E+02  0.51100000000E-03 0.  1.
         11   -1    0    0    0    0 -0.00000000000E+00 -0.00000000000E+00 -0.45593999997E+02  0.45594000000E+02  0.51100000000E-03 0. -1.
    9900012    2    1    2    0    0 -0.14059436957E+01 -0.40555070363E+02 -0.25443484443E+01  0.50528879020E+02  0.30000058269E+02 0.  0.
         12    1    1    2    0    0  0.14059436957E+01  0.40555070363E+02  0.25443484443E+01  0.40659120980E+02  0.00000000000E+00 0. -1.
         11    1    3    3    0    0 -0.18654406834E+01 -0.32175349695E+02 -0.81572382968E+01  0.33245654360E+02  0.51100000000E-03 0. -1.
        -11    1    3    3    0    0  0.26947317620E+00  0.16960462727E+01 -0.33705809116E+01  0.37828566844E+01  0.51100000000E-03 0.  1.
        -12    1    3    3    0    0  0.19002381158E+00 -0.10075766941E+02  0.89834707641E+01  0.13500367975E+02  0.00000000000E+00 0.  1.
</event>
<event>
 7    1  0.6136531E-013  0.5052886E+02  0.7816164E-02  0.1300439E+00
        -11   -1    0    0    0    0  0.00000000000E+00  0.00000000000E+00  0.45593999997E+02  0.45594000000E+02  0.51100000000E-03 0.  1.
         11   -1    0    0    0    0 -0.00000000000E+00 -0.00000000000E+00 -0.45593999997E+02  0.45594000000E+02  0.51100000000E-03 0. -1.
    9900012    2    1    2    0    0 -0.97334265295E+01  0.17776856425E+02  0.35247834726E+02  0.50528855035E+02  0.29999985366E+02 0.  0.
         12    1    1    2    0    0  0.97334265295E+01 -0.17776856425E+02 -0.35247834726E+02  0.40659144965E+02  0.00000000000E+00 0. -1.
         11    1    3    3    0    0 -0.69158233295E+00  0.20208125580E+02  0.28051418141E+02  0.34579310080E+02  0.51100000000E-03 0. -1.
        -11    1    3    3    0    0 -0.10836444926E+02 -0.32613947687E+01  0.79538158851E+01  0.13832151744E+02  0.51100000000E-03 0.  1.
         12    1    3    3    0    0  0.17946007296E+01  0.83012561390E+00 -0.75739930020E+00  0.21173932118E+01  0.00000000000E+00 0. -1.
</event>
<event>
 7    1  0.6136531E-013  0.5052894E+02  0.7816164E-02  0.1300439E+00
        -11   -1    0    0    0    0  0.00000000000E+00  0.00000000000E+00  0.45593999997E+02  0.45594000000E+02  0.51100000000E-03 0. -1.
         11   -1    0    0    0    0 -0.00000000000E+00 -0.00000000000E+00 -0.45593999997E+02  0.45594000000E+02  0.51100000000E-03 0.  1.
    9900012    2    1    2    0    0 -0.33398132522E+02 -0.15372516450E+02 -0.17361158085E+02  0.50528937935E+02  0.30000237346E+02 0.  0.
         12    1    1    2    0    0  0.33398132522E+02  0.15372516450E+02  0.17361158085E+02  0.40659062065E+02  0.00000000000E+00 0. -1.
         11    1    3    3    0    0  0.17532678581E+01 -0.40245992348E+01  0.13940865915E+01  0.46059553698E+01  0.51100000000E-03 0. -1.
        -11    1    3    3    0    0 -0.17606978235E+02  0.38453619860E+01 -0.41256581524E+01  0.18488200205E+02  0.51100000000E-03 0.  1.
        -12    1    3    3    0    0 -0.17544422146E+02 -0.15193279201E+02 -0.14629586524E+02  0.27434782360E+02  0.00000000000E+00 0.  1.
</event>
<event>
 7    1  0.6136531E-013  0.5052886E+02  0.7816164E-02  0.1300439E+00
        -11   -1    0    0    0    0  0.00000000000E+00  0.00000000000E+00  0.45593999997E+02  0.45594000000E+02  0.51100000000E-03 0. -1.
         11   -1    0    0    0    0 -0.00000000000E+00 -0.00000000000E+00 -0.45593999997E+02  0.45594000000E+02  0.51100000000E-03 0.  1.
    9900012    2    1    2    0    0  0.12156870775E+02 -0.24291378031E+02 -0.30254008399E+02  0.50528861078E+02  0.30000003733E+02 0.  0.
         12    1    1    2    0    0 -0.12156870775E+02  0.24291378031E+02  0.30254008399E+02  0.40659138922E+02  0.00000000000E+00 0. -1.
         11    1    3    3    0    0  0.61090647934E+01 -0.20337076938E+01 -0.22162832898E+02  0.23079163805E+02  0.51100000000E-03 0. -1.
        -11    1    3    3    0    0 -0.14903734752E+00 -0.15891373755E+02 -0.94084728802E+01  0.18468279134E+02  0.51100000000E-03 0.  1.
         12    1    3    3    0    0  0.61968433291E+01 -0.63662965816E+01  0.13172973791E+01  0.89814181394E+01  0.00000000000E+00 0. -1.
</event>
<event>
 7    1  0.6136531E-013  0.5052886E+02  0.7816164E-02  0.1300439E+00
        -11   -1    0    0    0    0  0.00000000000E+00  0.00000000000E+00  0.45593999997E+02  0.45594000000E+02  0.51100000000E-03 0.  1.
         11   -1    0    0    0    0 -0.00000000000E+00 -0.00000000000E+00 -0.45593999997E+02  0.45594000000E+02  0.51100000000E-03 0. -1.
    9900012    2    1    2    0    0  0.34373022456E+02 -0.57449099798E+01  0.20944131158E+02  0.50528864576E+02  0.30000014365E+02 0.  0.
         12    1    1    2    0    0 -0.34373022456E+02  0.57449099798E+01 -0.20944131158E+02  0.40659135424E+02  0.00000000000E+00 0. -1.
         11    1    3    3    0    0  0.17583850537E+01  0.37068558144E+01  0.63627834184E+01  0.75708461295E+01  0.51100000000E-03 0. -1.
        -11    1    3    3    0    0  0.12818933273E+02 -0.10904055881E+02 -0.21915081931E+01  0.16971334460E+02  0.51100000000E-03 0.  1.
        -12    1    3    3    0    0  0.19795704130E+02  0.14522900870E+01  0.16772855933E+02  0.25986683987E+02  0.00000000000E+00 0.  1.
</event>
<event>
 7    1  0.6136531E-013  0.5052881E+02  0.7816164E-02  0.1300439E+00
        -11   -1    0    0    0    0  0.00000000000E+00  0.00000000000E+00  0.45593999997E+02  0.45594000000E+02  0.51100000000E-03 0.  1.
         11   -1    0    0    0    0 -0.00000000000E+00 -0.00000000000E+00 -0.45593999997E+02  0.45594000000E+02  0.51100000000E-03 0. -1.
    9900012    2    1    2    0    0 -0.32859359315E+02 -0.16026870284E+02  0.17792455820E+02  0.50528812234E+02  0.29999855266E+02 0.  0.
         12    1    1    2    0    0  0.32859359315E+02  0.16026870284E+02 -0.17792455820E+02  0.40659187766E+02  0.00000000000E+00 0. -1.
         11    1    3    3    0    0 -0.30301314727E+02 -0.20997893837E+02  0.12582666489E+02  0.38953879345E+02  0.51100000000E-03 0. -1.
        -11    1    3    3    0    0  0.23360399010E+00 -0.15016406142E+01  0.41842795802E+01  0.44517065519E+01  0.51100000000E-03 0.  1.
         12    1    3    3    0    0 -0.27916485779E+01  0.64726641669E+01  0.10255097513E+01  0.71232263371E+01  0.00000000000E+00 0. -1.
</event>
<event>
 7    1  0.6136531E-013  0.5052884E+02  0.7816164E-02  0.1300439E+00
        -11   -1    0    0    0    0  0.00000000000E+00  0.00000000000E+00  0.45593999997E+02  0.45594000000E+02  0.51100000000E-03 0.  1.
         11   -1    0    0    0    0 -0.00000000000E+00 -0.00000000000E+00 -0.45593999997E+02  0.45594000000E+02  0.51100000000E-03 0. -1.
    9900012    2    1    2    0    0 -0.12659771252E+02 -0.18132969472E+02  0.34118801442E+02  0.50528843567E+02  0.29999950505E+02 0.  0.
         12    1    1    2    0    0  0.12659771252E+02  0.18132969472E+02 -0.34118801442E+02  0.40659156433E+02  0.00000000000E+00 0. -1.
         11    1    3    3    0    0 -0.85298298524E+01 -0.18332274700E+00 -0.23160937076E+01  0.88405822695E+01  0.51100000000E-03 0. -1.
        -11    1    3    3    0    0 -0.43296909827E+01 -0.12865858078E+02  0.32611596729E+02  0.35324110316E+02  0.51100000000E-03 0.  1.
         12    1    3    3    0    0  0.19974958272E+00 -0.50837886475E+01  0.38232984200E+01  0.63641509816E+01  0.00000000000E+00 0. -1.
</event>
<event>
 7    1  0.6136531E-013  0.5052886E+02  0.7816164E-02  0.1300439E+00
        -11   -1    0    0    0    0  0.00000000000E+00  0.00000000000E+00  0.45593999997E+02  0.45594000000E+02  0.51100000000E-03 0.  1.
         11   -1    0    0    0    0 -0.00000000000E+00 -0.00000000000E+00 -0.45593999997E+02  0.45594000000E+02  0.51100000000E-03 0. -1.
    9900012    2    1    2    0    0  0.14517624646E+01 -0.12245719257E+02  0.38744038770E+02  0.50528858413E+02  0.29999995633E+02 0.  0.
         12    1    1    2    0    0 -0.14517624646E+01  0.12245719257E+02 -0.38744038770E+02  0.40659141587E+02  0.00000000000E+00 0. -1.
         11    1    3    3    0    0 -0.47525756274E+00 -0.13786590099E+02  0.32506422503E+01  0.14172600736E+02  0.51100000000E-03 0. -1.
        -11    1    3    3    0    0 -0.14382002529E+01  0.61262641870E+00  0.28472502803E+02  0.28515384395E+02  0.51100000000E-03 0.  1.
        -12    1    3    3    0    0  0.33652202802E+01  0.92824442330E+00  0.70208937166E+01  0.78408732819E+01  0.00000000000E+00 0.  1.
</event>
<event>
 7    1  0.6136531E-013  0.5052889E+02  0.7816164E-02  0.1300439E+00
        -11   -1    0    0    0    0  0.00000000000E+00  0.00000000000E+00  0.45593999997E+02  0.45594000000E+02  0.51100000000E-03 0.  1.
         11   -1    0    0    0    0 -0.00000000000E+00 -0.00000000000E+00 -0.45593999997E+02  0.45594000000E+02  0.51100000000E-03 0. -1.
    9900012    2    1    2    0    0 -0.10374960808E+02  0.30934664000E+02  0.24260457845E+02  0.50528892000E+02  0.30000097723E+02 0.  0.
         12    1    1    2    0    0  0.10374960808E+02 -0.30934664000E+02 -0.24260457845E+02  0.40659108000E+02  0.00000000000E+00 0. -1.
         11    1    3    3    0    0 -0.10430595015E+02  0.76860655829E+01  0.10347279241E+02  0.16581287781E+02  0.51100000000E-03 0. -1.
        -11    1    3    3    0    0  0.75064893695E+00  0.18908289307E+02 -0.44831026424E+00  0.18928493355E+02  0.51100000000E-03 0.  1.
        -12    1    3    3    0    0 -0.69501472963E+00  0.43403091096E+01  0.14361488868E+02  0.15019110864E+02  0.00000000000E+00 0.  1.
</event>
<event>
 7    1  0.6136531E-013  0.5052889E+02  0.7816164E-02  0.1300439E+00
        -11   -1    0    0    0    0  0.00000000000E+00  0.00000000000E+00  0.45593999997E+02  0.45594000000E+02  0.51100000000E-03 0.  1.
         11   -1    0    0    0    0 -0.00000000000E+00 -0.00000000000E+00 -0.45593999997E+02  0.45594000000E+02  0.51100000000E-03 0. -1.
    9900012    2    1    2    0    0  0.13521949211E+02 -0.24748832263E+02  0.29288493018E+02  0.50528885006E+02  0.30000076463E+02 0.  0.
         12    1    1    2    0    0 -0.13521949211E+02  0.24748832263E+02 -0.29288493018E+02  0.40659114994E+02  0.00000000000E+00 0. -1.
         11    1    3    3    0    0  0.79587074907E+01 -0.89425974478E+00  0.65085942110E-01  0.80090549914E+01  0.51100000000E-03 0.  1.
        -11    1    3    3    0    0  0.32108964782E+01 -0.23471346889E+02  0.31371439041E+02  0.39311336389E+02  0.51100000000E-03 0. -1.
        -12    1    3    3    0    0  0.23523452421E+01 -0.38322562902E+00 -0.21480319646E+01  0.32084936250E+01  0.00000000000E+00 0.  1.
</event>
<event>
 7    1  0.6136531E-013  0.5052886E+02  0.7816164E-02  0.1300439E+00
        -11   -1    0    0    0    0  0.00000000000E+00  0.00000000000E+00  0.45593999997E+02  0.45594000000E+02  0.51100000000E-03 0. -1.
         11   -1    0    0    0    0 -0.00000000000E+00 -0.00000000000E+00 -0.45593999997E+02  0.45594000000E+02  0.51100000000E-03 0.  1.
    9900012    2    1    2    0    0 -0.96608309836E+01 -0.34610249687E+01 -0.39342789713E+02  0.50528862632E+02  0.30000008456E+02 0.  0.
         12    1    1    2    0    0  0.96608309836E+01  0.34610249687E+01  0.39342789713E+02  0.40659137368E+02  0.00000000000E+00 0. -1.
         11    1    3    3    0    0 -0.78658636841E+01  0.10876901146E+02 -0.21393864193E+02  0.25256211422E+02  0.51100000000E-03 0. -1.
        -11    1    3    3    0    0  0.91208898453E+00 -0.10363004743E+02 -0.17607834817E+02  0.20451396549E+02  0.51100000000E-03 0.  1.
        -12    1    3    3    0    0 -0.27070562840E+01 -0.39749213718E+01 -0.34109070334E+00  0.48212546608E+01  0.00000000000E+00 0.  1.
</event>
<event>
 7    1  0.6136531E-013  0.5052885E+02  0.7816164E-02  0.1300439E+00
        -11   -1    0    0    0    0  0.00000000000E+00  0.00000000000E+00  0.45593999997E+02  0.45594000000E+02  0.51100000000E-03 0.  1.
         11   -1    0    0    0    0 -0.00000000000E+00 -0.00000000000E+00 -0.45593999997E+02  0.45594000000E+02  0.51100000000E-03 0. -1.
    9900012    2    1    2    0    0 -0.17692259138E+02 -0.17214804511E+02  0.32307902422E+02  0.50528854821E+02  0.29999984715E+02 0.  0.
         12    1    1    2    0    0  0.17692259138E+02  0.17214804511E+02 -0.32307902422E+02  0.40659145179E+02  0.00000000000E+00 0. -1.
         11    1    3    3    0    0  0.25996974024E+01 -0.95098561368E+00  0.53357177541E+01  0.60110468667E+01  0.51100000000E-03 0. -1.
        -11    1    3    3    0    0 -0.13733846751E+02  0.37889230771E+01  0.94927144946E+01  0.17119757983E+02  0.51100000000E-03 0.  1.
        -12    1    3    3    0    0 -0.65581097890E+01 -0.20052741974E+02  0.17479470173E+02  0.27398049971E+02  0.00000000000E+00 0.  1.
</event>
<event>
 7    1  0.6136531E-013  0.5052885E+02  0.7816164E-02  0.1300439E+00
        -11   -1    0    0    0    0  0.00000000000E+00  0.00000000000E+00  0.45593999997E+02  0.45594000000E+02  0.51100000000E-03 0.  1.
         11   -1    0    0    0    0 -0.00000000000E+00 -0.00000000000E+00 -0.45593999997E+02  0.45594000000E+02  0.51100000000E-03 0. -1.
    9900012    2    1    2    0    0  0.39849563289E+02 -0.28816870836E+01  0.75415149968E+01  0.50528852650E+02  0.29999978114E+02 0.  0.
         12    1    1    2    0    0 -0.39849563289E+02  0.28816870836E+01 -0.75415149968E+01  0.40659147350E+02  0.00000000000E+00 0. -1.
         11    1    3    3    0    0  0.25520390920E+02  0.10352636362E+02 -0.30892087991E+01  0.27713004955E+02  0.51100000000E-03 0. -1.
        -11    1    3    3    0    0  0.45132890257E+01 -0.39848804797E+01  0.68798459871E+00  0.60598987893E+01  0.51100000000E-03 0.  1.
         12    1    3    3    0    0  0.98158833433E+01 -0.92494429654E+01  0.99427391972E+01  0.16755948906E+02  0.00000000000E+00 0. -1.
</event>
<event>
 7    1  0.6136531E-013  0.5052886E+02  0.7816164E-02  0.1300439E+00
        -11   -1    0    0    0    0  0.00000000000E+00  0.00000000000E+00  0.45593999997E+02  0.45594000000E+02  0.51100000000E-03 0. -1.
         11   -1    0    0    0    0 -0.00000000000E+00 -0.00000000000E+00 -0.45593999997E+02  0.45594000000E+02  0.51100000000E-03 0.  1.
    9900012    2    1    2    0    0 -0.23255636935E+02  0.81010393721E+01 -0.32352963909E+02  0.50528858816E+02  0.29999996856E+02 0.  0.
         12    1    1    2    0    0  0.23255636935E+02 -0.81010393721E+01  0.32352963909E+02  0.40659141184E+02  0.00000000000E+00 0. -1.
         11    1    3    3    0    0  0.15808767294E+01  0.10301014174E+02 -0.43648938854E+01  0.11298777064E+02  0.51100000000E-03 0. -1.
        -11    1    3    3    0    0 -0.25442425114E+02 -0.68826576944E+00 -0.24259119312E+02  0.35160995087E+02  0.51100000000E-03 0.  1.
         12    1    3    3    0    0  0.60591144933E+00 -0.15117090322E+01 -0.37289507112E+01  0.40690866652E+01  0.00000000000E+00 0. -1.
</event>
<event>
 7    1  0.6136531E-013  0.5052884E+02  0.7816164E-02  0.1300439E+00
        -11   -1    0    0    0    0  0.00000000000E+00  0.00000000000E+00  0.45593999997E+02  0.45594000000E+02  0.51100000000E-03 0.  1.
         11   -1    0    0    0    0 -0.00000000000E+00 -0.00000000000E+00 -0.45593999997E+02  0.45594000000E+02  0.51100000000E-03 0. -1.
    9900012    2    1    2    0    0  0.43081334577E+01  0.23046965918E+02  0.33218136636E+02  0.50528840472E+02  0.29999941099E+02 0.  0.
         12    1    1    2    0    0 -0.43081334577E+01 -0.23046965918E+02 -0.33218136636E+02  0.40659159528E+02  0.00000000000E+00 0. -1.
         11    1    3    3    0    0  0.18488156013E+01  0.67176479614E+01 -0.46843933397E+01  0.83957402582E+01  0.51100000000E-03 0. -1.
        -11    1    3    3    0    0  0.47970836951E+01  0.12724339628E+02  0.32500482245E+02  0.35230699359E+02  0.51100000000E-03 0.  1.
         12    1    3    3    0    0 -0.23377658387E+01  0.36049783288E+01  0.54020477311E+01  0.69024008545E+01  0.00000000000E+00 0. -1.
</event>
<event>
 7    1  0.6136531E-013  0.5052886E+02  0.7816164E-02  0.1300439E+00
        -11   -1    0    0    0    0  0.00000000000E+00  0.00000000000E+00  0.45593999997E+02  0.45594000000E+02  0.51100000000E-03 0.  1.
         11   -1    0    0    0    0 -0.00000000000E+00 -0.00000000000E+00 -0.45593999997E+02  0.45594000000E+02  0.51100000000E-03 0. -1.
    9900012    2    1    2    0    0 -0.19626539328E+01 -0.79573403708E+01  0.39824543181E+02  0.50528861841E+02  0.30000006052E+02 0.  0.
         12    1    1    2    0    0  0.19626539328E+01  0.79573403708E+01 -0.39824543181E+02  0.40659138159E+02  0.00000000000E+00 0. -1.
         11    1    3    3    0    0  0.77410510162E+01 -0.33596398482E+01  0.39461070043E+00  0.84478854520E+01  0.51100000000E-03 0. -1.
        -11    1    3    3    0    0 -0.10837276135E+01  0.29437997736E+01  0.65288988690E+01  0.72434068883E+01  0.51100000000E-03 0.  1.
         12    1    3    3    0    0 -0.86199773355E+01 -0.75415002962E+01  0.32901033612E+02  0.34837569501E+02  0.00000000000E+00 0. -1.
</event>
<event>
 7    1  0.6136531E-013  0.5052887E+02  0.7816164E-02  0.1300439E+00
        -11   -1    0    0    0    0  0.00000000000E+00  0.00000000000E+00  0.45593999997E+02  0.45594000000E+02  0.51100000000E-03 0.  1.
         11   -1    0    0    0    0 -0.00000000000E+00 -0.00000000000E+00 -0.45593999997E+02  0.45594000000E+02  0.51100000000E-03 0. -1.
    9900012    2    1    2    0    0  0.35813253232E+02  0.10257813770E+02  0.16289671678E+02  0.50528865064E+02  0.30000015849E+02 0.  0.
         12    1    1    2    0    0 -0.35813253232E+02 -0.10257813770E+02 -0.16289671678E+02  0.40659134936E+02  0.00000000000E+00 0. -1.
         11    1    3    3    0    0  0.59856635230E+01 -0.92634600768E+01  0.53474817436E+01  0.12257055995E+02  0.51100000000E-03 0. -1.
        -11    1    3    3    0    0  0.15799791137E+02  0.53222858957E+01  0.40651921657E+01  0.17160591911E+02  0.51100000000E-03 0.  1.
         12    1    3    3    0    0  0.14027798572E+02  0.14198987951E+02  0.68769977684E+01  0.21111217158E+02  0.00000000000E+00 0. -1.
</event>
<event>
 7    1  0.6136531E-013  0.5052886E+02  0.7816164E-02  0.1300439E+00
        -11   -1    0    0    0    0  0.00000000000E+00  0.00000000000E+00  0.45593999997E+02  0.45594000000E+02  0.51100000000E-03 0. -1.
         11   -1    0    0    0    0 -0.00000000000E+00 -0.00000000000E+00 -0.45593999997E+02  0.45594000000E+02  0.51100000000E-03 0.  1.
    9900012    2    1    2    0    0  0.27660757962E+02  0.99480771182E+01 -0.28090642373E+02  0.50528856400E+02  0.29999989512E+02 0.  0.
         12    1    1    2    0    0 -0.27660757962E+02 -0.99480771182E+01  0.28090642373E+02  0.40659143600E+02  0.00000000000E+00 0. -1.
         11    1    3    3    0    0  0.20398867485E+01  0.67162452819E+00  0.36114681058E+01  0.42017757668E+01  0.51100000000E-03 0. -1.
        -11    1    3    3    0    0  0.21866988275E+02  0.12298683506E+02 -0.32887296385E+02  0.41364200174E+02  0.51100000000E-03 0.  1.
        -12    1    3    3    0    0  0.37538829380E+01 -0.30222309160E+01  0.11851859060E+01  0.49628804593E+01  0.00000000000E+00 0.  1.
</event>
<event>
 7    1  0.6136531E-013  0.5052882E+02  0.7816164E-02  0.1300439E+00
        -11   -1    0    0    0    0  0.00000000000E+00  0.00000000000E+00  0.45593999997E+02  0.45594000000E+02  0.51100000000E-03 0.  1.
         11   -1    0    0    0    0 -0.00000000000E+00 -0.00000000000E+00 -0.45593999997E+02  0.45594000000E+02  0.51100000000E-03 0. -1.
    9900012    2    1    2    0    0 -0.13547156954E+02 -0.17827517369E+02  0.33938522586E+02  0.50528817121E+02  0.29999870120E+02 0.  0.
         12    1    1    2    0    0  0.13547156954E+02  0.17827517369E+02 -0.33938522586E+02  0.40659182879E+02  0.00000000000E+00 0. -1.
         11    1    3    3    0    0 -0.53100987132E+01 -0.16477216756E+01 -0.16425717779E+01  0.57974285137E+01  0.51100000000E-03 0. -1.
        -11    1    3    3    0    0  0.51362575374E+01 -0.10081718925E+01  0.14954267494E+02  0.15843852707E+02  0.51100000000E-03 0.  1.
        -12    1    3    3    0    0 -0.13373315779E+02 -0.15171623800E+02  0.20626826870E+02  0.28887535900E+02  0.00000000000E+00 0.  1.
</event>
<event>
 7    1  0.6136531E-013  0.5052885E+02  0.7816164E-02  0.1300439E+00
        -11   -1    0    0    0    0  0.00000000000E+00  0.00000000000E+00  0.45593999997E+02  0.45594000000E+02  0.51100000000E-03 0.  1.
         11   -1    0    0    0    0 -0.00000000000E+00 -0.00000000000E+00 -0.45593999997E+02  0.45594000000E+02  0.51100000000E-03 0. -1.
    9900012    2    1    2    0    0  0.70467946074E+01 -0.25743138168E+02  0.30672459285E+02  0.50528852990E+02  0.29999979149E+02 0.  0.
         12    1    1    2    0    0 -0.70467946074E+01  0.25743138168E+02 -0.30672459285E+02  0.40659147010E+02  0.00000000000E+00 0. -1.
         11    1    3    3    0    0 -0.67569019044E+01 -0.12928932335E+02  0.10883872560E+02  0.18200870771E+02  0.51100000000E-03 0. -1.
        -11    1    3    3    0    0  0.16518703577E+02 -0.10622124911E+02  0.20886798219E+02  0.28669765356E+02  0.51100000000E-03 0.  1.
        -12    1    3    3    0    0 -0.27150070649E+01 -0.21920809219E+01 -0.10982114936E+01  0.36582168628E+01  0.00000000000E+00 0.  1.
</event>
<event>
 7    1  0.6136531E-013  0.5052886E+02  0.7816164E-02  0.1300439E+00
        -11   -1    0    0    0    0  0.00000000000E+00  0.00000000000E+00  0.45593999997E+02  0.45594000000E+02  0.51100000000E-03 0.  1.
         11   -1    0    0    0    0 -0.00000000000E+00 -0.00000000000E+00 -0.45593999997E+02  0.45594000000E+02  0.51100000000E-03 0. -1.
    9900012    2    1    2    0    0 -0.31782561802E+02 -0.85869747746E+01  0.23859967354E+02  0.50528863111E+02  0.30000009911E+02 0.  0.
         12    1    1    2    0    0  0.31782561802E+02  0.85869747746E+01 -0.23859967354E+02  0.40659136889E+02  0.00000000000E+00 0. -1.
         11    1    3    3    0    0  0.70273223023E+00  0.24227091063E+00  0.11947054934E+01  0.14070711633E+01  0.51100000000E-03 0. -1.
        -11    1    3    3    0    0 -0.85617562666E+01 -0.16258836215E+02  0.11643144463E+02  0.21753533936E+02  0.51100000000E-03 0.  1.
        -12    1    3    3    0    0 -0.23923537766E+02  0.74295905301E+01  0.11022117397E+02  0.27368258012E+02  0.00000000000E+00 0.  1.
</event>
<event>
 7    1  0.6136531E-013  0.5052886E+02  0.7816164E-02  0.1300439E+00
        -11   -1    0    0    0    0  0.00000000000E+00  0.00000000000E+00  0.45593999997E+02  0.45594000000E+02  0.51100000000E-03 0. -1.
         11   -1    0    0    0    0 -0.00000000000E+00 -0.00000000000E+00 -0.45593999997E+02  0.45594000000E+02  0.51100000000E-03 0.  1.
    9900012    2    1    2    0    0 -0.95775677831E+01 -0.26078261140E+02 -0.29687713458E+02  0.50528857866E+02  0.29999993970E+02 0.  0.
         12    1    1    2    0    0  0.95775677831E+01  0.26078261140E+02  0.29687713458E+02  0.40659142134E+02  0.00000000000E+00 0. -1.
         11    1    3    3    0    0 -0.49292195978E+01 -0.18946351400E+02 -0.69745894500E+00  0.19589484078E+02  0.51100000000E-03 0. -1.
        -11    1    3    3    0    0 -0.31842767246E+01 -0.64437263006E+01 -0.12893717753E+02  0.14761747344E+02  0.51100000000E-03 0.  1.
         12    1    3    3    0    0 -0.14640714607E+01 -0.68818343924E+00 -0.16096536759E+02  0.16177626443E+02  0.00000000000E+00 0. -1.
</event>
<event>
 7    1  0.6136531E-013  0.5052882E+02  0.7816164E-02  0.1300439E+00
        -11   -1    0    0    0    0  0.00000000000E+00  0.00000000000E+00  0.45593999997E+02  0.45594000000E+02  0.51100000000E-03 0.  1.
         11   -1    0    0    0    0 -0.00000000000E+00 -0.00000000000E+00 -0.45593999997E+02  0.45594000000E+02  0.51100000000E-03 0. -1.
    9900012    2    1    2    0    0 -0.19132674191E+02 -0.26873492647E+02  0.23768152701E+02  0.50528820082E+02  0.29999879122E+02 0.  0.
         12    1    1    2    0    0  0.19132674191E+02  0.26873492647E+02 -0.23768152701E+02  0.40659179918E+02  0.00000000000E+00 0. -1.
         11    1    3    3    0    0 -0.19525884293E+02 -0.25472686454E+02  0.12368359666E+02  0.34396136900E+02  0.51100000000E-03 0. -1.
        -11    1    3    3    0    0 -0.29902914413E+01 -0.43955623643E+01  0.10128223000E+02  0.11438693666E+02  0.51100000000E-03 0.  1.
         12    1    3    3    0    0  0.33835015431E+01  0.29947561713E+01  0.12715700360E+01  0.46939895158E+01  0.00000000000E+00 0. -1.
</event>
<event>
 7    1  0.6136531E-013  0.5052885E+02  0.7816164E-02  0.1300439E+00
        -11   -1    0    0    0    0  0.00000000000E+00  0.00000000000E+00  0.45593999997E+02  0.45594000000E+02  0.51100000000E-03 0. -1.
         11   -1    0    0    0    0 -0.00000000000E+00 -0.00000000000E+00 -0.45593999997E+02  0.45594000000E+02  0.51100000000E-03 0.  1.
    9900012    2    1    2    0    0 -0.31074071532E+02 -0.25577538219E+02  0.57756524994E+01  0.50528849188E+02  0.29999967593E+02 0.  0.
         12    1    1    2    0    0  0.31074071532E+02  0.25577538219E+02 -0.57756524994E+01  0.40659150812E+02  0.00000000000E+00 0. -1.
         11    1    3    3    0    0 -0.81943732736E+01  0.40448213387E+01  0.26462140445E+01  0.95137154697E+01  0.51100000000E-03 0. -1.
        -11    1    3    3    0    0 -0.50137913028E+01 -0.12014118158E+02 -0.59820026098E+01  0.14326949913E+02  0.51100000000E-03 0.  1.
         12    1    3    3    0    0 -0.17865906956E+02 -0.17608241400E+02  0.91114410648E+01  0.26688183805E+02  0.00000000000E+00 0. -1.
</event>
<event>
 7    1  0.6136531E-013  0.5052886E+02  0.7816164E-02  0.1300439E+00
        -11   -1    0    0    0    0  0.00000000000E+00  0.00000000000E+00  0.45593999997E+02  0.45594000000E+02  0.51100000000E-03 0.  1.
         11   -1    0    0    0    0 -0.00000000000E+00 -0.00000000000E+00 -0.45593999997E+02  0.45594000000E+02  0.51100000000E-03 0. -1.
    9900012    2    1    2    0    0  0.23657344223E+02 -0.18437007082E+02  0.27451273718E+02  0.50528860873E+02  0.30000003109E+02 0.  0.
         12    1    1    2    0    0 -0.23657344223E+02  0.18437007082E+02 -0.27451273718E+02  0.40659139127E+02  0.00000000000E+00 0. -1.
         11    1    3    3    0    0  0.19934245732E+02 -0.23484597235E+02  0.20478211039E+02  0.36989966043E+02  0.51100000000E-03 0. -1.
        -11    1    3    3    0    0  0.89130199132E-01  0.59802315274E+01  0.42974851387E+00  0.59963153152E+01  0.51100000000E-03 0.  1.
        -12    1    3    3    0    0  0.36339682919E+01 -0.93264137386E+00  0.65433141646E+01  0.75425795147E+01  0.00000000000E+00 0.  1.
</event>
<event>
 7    1  0.6136531E-013  0.5052886E+02  0.7816164E-02  0.1300439E+00
        -11   -1    0    0    0    0  0.00000000000E+00  0.00000000000E+00  0.45593999997E+02  0.45594000000E+02  0.51100000000E-03 0. -1.
         11   -1    0    0    0    0 -0.00000000000E+00 -0.00000000000E+00 -0.45593999997E+02  0.45594000000E+02  0.51100000000E-03 0.  1.
    9900012    2    1    2    0    0 -0.25847890096E+02  0.93686846965E+01 -0.29954625674E+02  0.50528864808E+02  0.30000015069E+02 0.  0.
         12    1    1    2    0    0  0.25847890096E+02 -0.93686846965E+01  0.29954625674E+02  0.40659135192E+02  0.00000000000E+00 0. -1.
         11    1    3    3    0    0 -0.55128728363E+01  0.38102381827E+01  0.46489378205E+00  0.67175745926E+01  0.51100000000E-03 0. -1.
        -11    1    3    3    0    0  0.15080619270E+01  0.20083705382E+01 -0.18511594971E+02  0.18681192457E+02  0.51100000000E-03 0.  1.
        -12    1    3    3    0    0 -0.21843079186E+02  0.35500759757E+01 -0.11907924485E+02  0.25130097758E+02  0.00000000000E+00 0.  1.
</event>
<event>
 7    1  0.6136531E-013  0.5052886E+02  0.7816164E-02  0.1300439E+00
        -11   -1    0    0    0    0  0.00000000000E+00  0.00000000000E+00  0.45593999997E+02  0.45594000000E+02  0.51100000000E-03 0.  1.
         11   -1    0    0    0    0 -0.00000000000E+00 -0.00000000000E+00 -0.45593999997E+02  0.45594000000E+02  0.51100000000E-03 0. -1.
    9900012    2    1    2    0    0 -0.78433557619E+01  0.19247667637E+02  0.34945304701E+02  0.50528864991E+02  0.30000015627E+02 0.  0.
         12    1    1    2    0    0  0.78433557619E+01 -0.19247667637E+02 -0.34945304701E+02  0.40659135009E+02  0.00000000000E+00 0. -1.
         11    1    3    3    0    0  0.12763862348E+01 -0.13541521313E+01  0.28129668580E+01  0.33727841053E+01  0.51100000000E-03 0. -1.
        -11    1    3    3    0    0 -0.11021109152E+00  0.23495233142E+02  0.15909620486E+02  0.28375238345E+02  0.51100000000E-03 0.  1.
        -12    1    3    3    0    0 -0.90095309052E+01 -0.28934133742E+01  0.16222717357E+02  0.18780842540E+02  0.00000000000E+00 0.  1.
</event>
<event>
 7    1  0.6136531E-013  0.5052886E+02  0.7816164E-02  0.1300439E+00
        -11   -1    0    0    0    0  0.00000000000E+00  0.00000000000E+00  0.45593999997E+02  0.45594000000E+02  0.51100000000E-03 0. -1.
         11   -1    0    0    0    0 -0.00000000000E+00 -0.00000000000E+00 -0.45593999997E+02  0.45594000000E+02  0.51100000000E-03 0.  1.
    9900012    2    1    2    0    0  0.20441077255E+02 -0.34336072909E+01 -0.34979112898E+02  0.50528860345E+02  0.30000001504E+02 0.  0.
         12    1    1    2    0    0 -0.20441077255E+02  0.34336072909E+01  0.34979112898E+02  0.40659139655E+02  0.00000000000E+00 0. -1.
         11    1    3    3    0    0  0.95459356764E+01  0.57608408263E+01  0.17114771597E+00  0.11150850495E+02  0.51100000000E-03 0. -1.
        -11    1    3    3    0    0  0.27233050330E+00 -0.31960747720E+01 -0.18278427330E+02  0.18557746732E+02  0.51100000000E-03 0.  1.
         12    1    3    3    0    0  0.10622811075E+02 -0.59983733451E+01 -0.16871833284E+02  0.20820263117E+02  0.00000000000E+00 0. -1.
</event>
<event>
 7    1  0.6136531E-013  0.5052886E+02  0.7816164E-02  0.1300439E+00
        -11   -1    0    0    0    0  0.00000000000E+00  0.00000000000E+00  0.45593999997E+02  0.45594000000E+02  0.51100000000E-03 0. -1.
         11   -1    0    0    0    0 -0.00000000000E+00 -0.00000000000E+00 -0.45593999997E+02  0.45594000000E+02  0.51100000000E-03 0.  1.
    9900012    2    1    2    0    0  0.32116486584E+02 -0.20413792938E+02  0.14316912145E+02  0.50528860486E+02  0.30000001934E+02 0.  0.
         12    1    1    2    0    0 -0.32116486584E+02  0.20413792938E+02 -0.14316912145E+02  0.40659139514E+02  0.00000000000E+00 0. -1.
         11    1    3    3    0    0  0.38281189835E+01 -0.10296953012E+02  0.72174110260E+01  0.13144305172E+02  0.51100000000E-03 0. -1.
        -11    1    3    3    0    0  0.27211077924E+02 -0.39405729317E+01 -0.54198755155E+00  0.27500265955E+02  0.51100000000E-03 0.  1.
        -12    1    3    3    0    0  0.10772896761E+01 -0.61762669947E+01  0.76414886704E+01  0.98842893592E+01  0.00000000000E+00 0.  1.
</event>
<event>
 7    1  0.6136531E-013  0.5052885E+02  0.7816164E-02  0.1300439E+00
        -11   -1    0    0    0    0  0.00000000000E+00  0.00000000000E+00  0.45593999997E+02  0.45594000000E+02  0.51100000000E-03 0.  1.
         11   -1    0    0    0    0 -0.00000000000E+00 -0.00000000000E+00 -0.45593999997E+02  0.45594000000E+02  0.51100000000E-03 0. -1.
    9900012    2    1    2    0    0  0.24772264661E+02  0.76994595884E+01  0.31308455672E+02  0.50528853785E+02  0.29999981564E+02 0.  0.
         12    1    1    2    0    0 -0.24772264661E+02 -0.76994595884E+01 -0.31308455672E+02  0.40659146215E+02  0.00000000000E+00 0. -1.
         11    1    3    3    0    0  0.86221005826E+01 -0.36827491532E+01 -0.11563900306E+01  0.94467188984E+01  0.51100000000E-03 0. -1.
        -11    1    3    3    0    0 -0.89777429918E+00  0.37041458392E+01  0.15070346084E+02  0.15544839222E+02  0.51100000000E-03 0.  1.
        -12    1    3    3    0    0  0.17047938377E+02  0.76780629024E+01  0.17394499619E+02  0.25537295664E+02  0.00000000000E+00 0.  1.
</event>
<event>
 7    1  0.6136531E-013  0.5052885E+02  0.7816164E-02  0.1300439E+00
        -11   -1    0    0    0    0  0.00000000000E+00  0.00000000000E+00  0.45593999997E+02  0.45594000000E+02  0.51100000000E-03 0.  1.
         11   -1    0    0    0    0 -0.00000000000E+00 -0.00000000000E+00 -0.45593999997E+02  0.45594000000E+02  0.51100000000E-03 0. -1.
    9900012    2    1    2    0    0 -0.21279835286E+02 -0.78263201231E+01  0.33750315158E+02  0.50528850356E+02  0.29999971143E+02 0.  0.
         12    1    1    2    0    0  0.21279835286E+02  0.78263201231E+01 -0.33750315158E+02  0.40659149644E+02  0.00000000000E+00 0. -1.
         11    1    3    3    0    0 -0.10560444121E+02 -0.57774766822E+01 -0.20893338075E+01  0.12217509274E+02  0.51100000000E-03 0. -1.
        -11    1    3    3    0    0 -0.59970338768E+01  0.28581023240E+01  0.19837754767E+02  0.20920556366E+02  0.51100000000E-03 0.  1.
         12    1    3    3    0    0 -0.47223572879E+01 -0.49069457649E+01  0.16001894199E+02  0.17390784716E+02  0.00000000000E+00 0. -1.
</event>
<event>
 7    1  0.6136531E-013  0.5052886E+02  0.7816164E-02  0.1300439E+00
        -11   -1    0    0    0    0  0.00000000000E+00  0.00000000000E+00  0.45593999997E+02  0.45594000000E+02  0.51100000000E-03 0.  1.
         11   -1    0    0    0    0 -0.00000000000E+00 -0.00000000000E+00 -0.45593999997E+02  0.45594000000E+02  0.51100000000E-03 0. -1.
    9900012    2    1    2    0    0  0.58964399739E+01  0.18376616231E+02  0.35786841127E+02  0.50528855563E+02  0.29999986970E+02 0.  0.
         12    1    1    2    0    0 -0.58964399739E+01 -0.18376616231E+02 -0.35786841127E+02  0.40659144437E+02  0.00000000000E+00 0. -1.
         11    1    3    3    0    0  0.71375966248E+01 -0.58058504689E+01  0.77245264612E+01  0.12013388138E+02  0.51100000000E-03 0. -1.
        -11    1    3    3    0    0 -0.44466090941E+01  0.59860406127E+01  0.50609393197E+01  0.90121097259E+01  0.51100000000E-03 0.  1.
         12    1    3    3    0    0  0.32054524433E+01  0.18196426087E+02  0.23001375347E+02  0.29503357699E+02  0.00000000000E+00 0. -1.
</event>
<event>
 7    1  0.6136531E-013  0.5052886E+02  0.7816164E-02  0.1300439E+00
        -11   -1    0    0    0    0  0.00000000000E+00  0.00000000000E+00  0.45593999997E+02  0.45594000000E+02  0.51100000000E-03 0. -1.
         11   -1    0    0    0    0 -0.00000000000E+00 -0.00000000000E+00 -0.45593999997E+02  0.45594000000E+02  0.51100000000E-03 0.  1.
    9900012    2    1    2    0    0 -0.53285811268E+01  0.37999576227E+00 -0.40306665191E+02  0.50528862867E+02  0.30000009170E+02 0.  0.
         12    1    1    2    0    0  0.53285811268E+01 -0.37999576227E+00  0.40306665191E+02  0.40659137133E+02  0.00000000000E+00 0. -1.
         11    1    3    3    0    0 -0.28153572597E+01 -0.81498065609E+01 -0.15156419691E+01  0.87545847600E+01  0.51100000000E-03 0. -1.
        -11    1    3    3    0    0  0.59254282477E+00  0.58527021771E+01 -0.49568887155E+01  0.76925922661E+01  0.51100000000E-03 0.  1.
         12    1    3    3    0    0 -0.31057666919E+01  0.26771001461E+01 -0.33834134506E+02  0.34081685841E+02  0.00000000000E+00 0. -1.
</event>
<event>
 7    1  0.6136531E-013  0.5052886E+02  0.7816164E-02  0.1300439E+00
        -11   -1    0    0    0    0  0.00000000000E+00  0.00000000000E+00  0.45593999997E+02  0.45594000000E+02  0.51100000000E-03 0.  1.
         11   -1    0    0    0    0 -0.00000000000E+00 -0.00000000000E+00 -0.45593999997E+02  0.45594000000E+02  0.51100000000E-03 0. -1.
    9900012    2    1    2    0    0  0.47942801339E+01 -0.77655823945E+01  0.39621668472E+02  0.50528855833E+02  0.29999987789E+02 0.  0.
         12    1    1    2    0    0 -0.47942801339E+01  0.77655823945E+01 -0.39621668472E+02  0.40659144167E+02  0.00000000000E+00 0. -1.
         11    1    3    3    0    0  0.31887151863E+01  0.87690383716E+01  0.26302277053E+01  0.96944332761E+01  0.51100000000E-03 0. -1.
        -11    1    3    3    0    0  0.16305591076E+01 -0.83545865667E+01  0.13500618358E+02  0.15960091980E+02  0.51100000000E-03 0.  1.
         12    1    3    3    0    0 -0.24994159948E-01 -0.81800341994E+01  0.23490822408E+02  0.24874330576E+02  0.00000000000E+00 0. -1.
</event>
<event>
 7    1  0.6136531E-013  0.5052885E+02  0.7816164E-02  0.1300439E+00
        -11   -1    0    0    0    0  0.00000000000E+00  0.00000000000E+00  0.45593999997E+02  0.45594000000E+02  0.51100000000E-03 0. -1.
         11   -1    0    0    0    0 -0.00000000000E+00 -0.00000000000E+00 -0.45593999997E+02  0.45594000000E+02  0.51100000000E-03 0.  1.
    9900012    2    1    2    0    0 -0.13744486242E+02  0.35155199081E+02 -0.15111830547E+02  0.50528851620E+02  0.29999974984E+02 0.  0.
         12    1    1    2    0    0  0.13744486242E+02 -0.35155199081E+02  0.15111830547E+02  0.40659148380E+02  0.00000000000E+00 0. -1.
         11    1    3    3    0    0  0.33461920652E+01  0.53266102595E+01  0.35588996174E+00  0.63005107825E+01  0.51100000000E-03 0. -1.
        -11    1    3    3    0    0 -0.68321302906E+01  0.27049575024E+02 -0.18129049191E+02  0.33271909144E+02  0.51100000000E-03 0.  1.
        -12    1    3    3    0    0 -0.10258548016E+02  0.27790137979E+01  0.26613286822E+01  0.10956431693E+02  0.00000000000E+00 0.  1.
</event>
<event>
 7    1  0.6136531E-013  0.5052887E+02  0.7816164E-02  0.1300439E+00
        -11   -1    0    0    0    0  0.00000000000E+00  0.00000000000E+00  0.45593999997E+02  0.45594000000E+02  0.51100000000E-03 0. -1.
         11   -1    0    0    0    0 -0.00000000000E+00 -0.00000000000E+00 -0.45593999997E+02  0.45594000000E+02  0.51100000000E-03 0.  1.
    9900012    2    1    2    0    0  0.21083625523E+02 -0.26157816015E+02 -0.22900096595E+02  0.50528867841E+02  0.30000024290E+02 0.  0.
         12    1    1    2    0    0 -0.21083625523E+02  0.26157816015E+02  0.22900096595E+02  0.40659132159E+02  0.00000000000E+00 0. -1.
         11    1    3    3    0    0  0.12557766531E+02 -0.24205513114E+02 -0.56890109260E+01  0.27856223917E+02  0.51100000000E-03 0. -1.
        -11    1    3    3    0    0  0.64966237637E+00 -0.23142628179E+01 -0.13924691929E+02  0.14130637607E+02  0.51100000000E-03 0.  1.
        -12    1    3    3    0    0  0.78761966156E+01  0.36195991681E+00 -0.32863937395E+01  0.85420063171E+01  0.00000000000E+00 0.  1.
</event>
<event>
 7    1  0.6136531E-013  0.5052888E+02  0.7816164E-02  0.1300439E+00
        -11   -1    0    0    0    0  0.00000000000E+00  0.00000000000E+00  0.45593999997E+02  0.45594000000E+02  0.51100000000E-03 0.  1.
         11   -1    0    0    0    0 -0.00000000000E+00 -0.00000000000E+00 -0.45593999997E+02  0.45594000000E+02  0.51100000000E-03 0. -1.
    9900012    2    1    2    0    0 -0.17252523688E+02 -0.36272356131E+02  0.63111585219E+01  0.50528879070E+02  0.30000058422E+02 0.  0.
         12    1    1    2    0    0  0.17252523688E+02  0.36272356131E+02 -0.63111585219E+01  0.40659120930E+02  0.00000000000E+00 0. -1.
         11    1    3    3    0    0  0.54276833299E+01 -0.17680414194E+01 -0.14993305359E+01  0.59020089044E+01  0.51100000000E-03 0. -1.
        -11    1    3    3    0    0 -0.17255507226E+02 -0.28468606821E+02 -0.10576524316E+00  0.33290017881E+02  0.51100000000E-03 0.  1.
        -12    1    3    3    0    0 -0.54246997920E+01 -0.60357078900E+01  0.79162543009E+01  0.11336852285E+02  0.00000000000E+00 0.  1.
</event>
<event>
 7    1  0.6136531E-013  0.5052886E+02  0.7816164E-02  0.1300439E+00
        -11   -1    0    0    0    0  0.00000000000E+00  0.00000000000E+00  0.45593999997E+02  0.45594000000E+02  0.51100000000E-03 0.  1.
         11   -1    0    0    0    0 -0.00000000000E+00 -0.00000000000E+00 -0.45593999997E+02  0.45594000000E+02  0.51100000000E-03 0. -1.
    9900012    2    1    2    0    0 -0.14214986007E+02 -0.59470246175E+01  0.37626224325E+02  0.50528859750E+02  0.29999999695E+02 0.  0.
         12    1    1    2    0    0  0.14214986007E+02  0.59470246175E+01 -0.37626224325E+02  0.40659140250E+02  0.00000000000E+00 0. -1.
         11    1    3    3    0    0  0.22206938519E+00  0.41706435575E+01  0.29820704833E+02  0.30111758824E+02  0.51100000000E-03 0. -1.
        -11    1    3    3    0    0 -0.84951012660E+01 -0.76414227563E+01  0.80467925940E+01  0.13975298157E+02  0.51100000000E-03 0.  1.
         12    1    3    3    0    0 -0.59419541258E+01 -0.24762454187E+01 -0.24127310197E+00  0.64418027692E+01  0.00000000000E+00 0. -1.
</event>
<event>
 7    1  0.6136531E-013  0.5052886E+02  0.7816164E-02  0.1300439E+00
        -11   -1    0    0    0    0  0.00000000000E+00  0.00000000000E+00  0.45593999997E+02  0.45594000000E+02  0.51100000000E-03 0.  1.
         11   -1    0    0    0    0 -0.00000000000E+00 -0.00000000000E+00 -0.45593999997E+02  0.45594000000E+02  0.51100000000E-03 0. -1.
    9900012    2    1    2    0    0  0.14806358588E+01  0.39959134163E+02  0.73648309245E+01  0.50528863017E+02  0.30000009628E+02 0.  0.
         12    1    1    2    0    0 -0.14806358588E+01 -0.39959134163E+02 -0.73648309245E+01  0.40659136983E+02  0.00000000000E+00 0. -1.
         11    1    3    3    0    0 -0.12937853213E+02  0.25633536610E+02  0.24747274324E+01  0.28819967402E+02  0.51100000000E-03 0. -1.
        -11    1    3    3    0    0  0.46184204149E+00  0.22999309890E+01 -0.71461025057E+00  0.24522741887E+01  0.51100000000E-03 0.  1.
         12    1    3    3    0    0  0.13956647031E+02  0.12025666564E+02  0.56047137426E+01  0.19256621427E+02  0.00000000000E+00 0. -1.
</event>
<event>
 7    1  0.6136531E-013  0.5052888E+02  0.7816164E-02  0.1300439E+00
        -11   -1    0    0    0    0  0.00000000000E+00  0.00000000000E+00  0.45593999997E+02  0.45594000000E+02  0.51100000000E-03 0.  1.
         11   -1    0    0    0    0 -0.00000000000E+00 -0.00000000000E+00 -0.45593999997E+02  0.45594000000E+02  0.51100000000E-03 0. -1.
    9900012    2    1    2    0    0  0.32475312837E+02  0.21207720843E+02 -0.12196340001E+02  0.50528879539E+02  0.30000059848E+02 0.  0.
         12    1    1    2    0    0 -0.32475312837E+02 -0.21207720843E+02  0.12196340001E+02  0.40659120461E+02  0.00000000000E+00 0. -1.
         11    1    3    3    0    0 -0.22118197734E+01 -0.92764292157E+00  0.19670385261E+01  0.31019201995E+01  0.51100000000E-03 0. -1.
        -11    1    3    3    0    0  0.23050531052E+02  0.65895129700E+01 -0.14476710027E+02  0.28005781483E+02  0.51100000000E-03 0.  1.
        -12    1    3    3    0    0  0.11636601558E+02  0.15545850794E+02  0.31333149988E+00  0.19421177857E+02  0.00000000000E+00 0.  1.
</event>
<event>
 7    1  0.6136531E-013  0.5052886E+02  0.7816164E-02  0.1300439E+00
        -11   -1    0    0    0    0  0.00000000000E+00  0.00000000000E+00  0.45593999997E+02  0.45594000000E+02  0.51100000000E-03 0.  1.
         11   -1    0    0    0    0 -0.00000000000E+00 -0.00000000000E+00 -0.45593999997E+02  0.45594000000E+02  0.51100000000E-03 0. -1.
    9900012    2    1    2    0    0 -0.31190965462E+02  0.22834624502E+02  0.12604332432E+02  0.50528860823E+02  0.30000002958E+02 0.  0.
         12    1    1    2    0    0  0.31190965462E+02 -0.22834624502E+02 -0.12604332432E+02  0.40659139177E+02  0.00000000000E+00 0. -1.
         11    1    3    3    0    0  0.11662737799E+01  0.85868861519E+01 -0.41368919694E+01  0.96025352769E+01  0.51100000000E-03 0. -1.
        -11    1    3    3    0    0 -0.32135165317E+02  0.11781574854E+02  0.13374619721E+02  0.36747174163E+02  0.51100000000E-03 0.  1.
         12    1    3    3    0    0 -0.22207392464E+00  0.24661634953E+01  0.33666046803E+01  0.41791513836E+01  0.00000000000E+00 0. -1.
</event>
<event>
 7    1  0.6136531E-013  0.5052886E+02  0.7816164E-02  0.1300439E+00
        -11   -1    0    0    0    0  0.00000000000E+00  0.00000000000E+00  0.45593999997E+02  0.45594000000E+02  0.51100000000E-03 0. -1.
         11   -1    0    0    0    0 -0.00000000000E+00 -0.00000000000E+00 -0.45593999997E+02  0.45594000000E+02  0.51100000000E-03 0.  1.
    9900012    2    1    2    0    0  0.20854520951E+02  0.34648164786E+02 -0.42141909731E+01  0.50528858682E+02  0.29999996451E+02 0.  0.
         12    1    1    2    0    0 -0.20854520951E+02 -0.34648164786E+02  0.42141909731E+01  0.40659141318E+02  0.00000000000E+00 0. -1.
         11    1    3    3    0    0 -0.32329930546E+01 -0.37208640597E+01 -0.43628072412E+00  0.49484759849E+01  0.51100000000E-03 0. -1.
        -11    1    3    3    0    0  0.18376065573E+02  0.26704418249E+02 -0.20917196004E+01  0.32483550161E+02  0.51100000000E-03 0.  1.
         12    1    3    3    0    0  0.57114484326E+01  0.11664610597E+02 -0.16861906486E+01  0.13096832536E+02  0.00000000000E+00 0. -1.
</event>
<event>
 7    1  0.6136531E-013  0.5052886E+02  0.7816164E-02  0.1300439E+00
        -11   -1    0    0    0    0  0.00000000000E+00  0.00000000000E+00  0.45593999997E+02  0.45594000000E+02  0.51100000000E-03 0.  1.
         11   -1    0    0    0    0 -0.00000000000E+00 -0.00000000000E+00 -0.45593999997E+02  0.45594000000E+02  0.51100000000E-03 0. -1.
    9900012    2    1    2    0    0 -0.10160834505E+02  0.39318397597E+02  0.19967095028E+01  0.50528858392E+02  0.29999995568E+02 0.  0.
         12    1    1    2    0    0  0.10160834505E+02 -0.39318397597E+02 -0.19967095028E+01  0.40659141608E+02  0.00000000000E+00 0. -1.
         11    1    3    3    0    0 -0.14575727564E+00  0.50543005635E+01 -0.41649257456E+01  0.65508630040E+01  0.51100000000E-03 0. -1.
        -11    1    3    3    0    0 -0.63887127474E+00 -0.21730959729E+01  0.59355937391E+01  0.63530918387E+01  0.51100000000E-03 0.  1.
        -12    1    3    3    0    0 -0.93762059549E+01  0.36437193007E+02  0.22604150931E+00  0.37624903549E+02  0.00000000000E+00 0.  1.
</event>
<event>
 7    1  0.6136531E-013  0.5052887E+02  0.7816164E-02  0.1300439E+00
        -11   -1    0    0    0    0  0.00000000000E+00  0.00000000000E+00  0.45593999997E+02  0.45594000000E+02  0.51100000000E-03 0. -1.
         11   -1    0    0    0    0 -0.00000000000E+00 -0.00000000000E+00 -0.45593999997E+02  0.45594000000E+02  0.51100000000E-03 0.  1.
    9900012    2    1    2    0    0  0.16227093077E+02 -0.21166952484E+01 -0.37220506480E+02  0.50528867556E+02  0.30000023423E+02 0.  0.
         12    1    1    2    0    0 -0.16227093077E+02  0.21166952484E+01  0.37220506480E+02  0.40659132444E+02  0.00000000000E+00 0. -1.
         11    1    3    3    0    0  0.28207603222E+01  0.97008456827E+00 -0.44407537039E-01  0.29832407136E+01  0.51100000000E-03 0. -1.
        -11    1    3    3    0    0 -0.26673892235E+01 -0.50512600999E+01 -0.28709959024E+02  0.29272716671E+02  0.51100000000E-03 0.  1.
        -12    1    3    3    0    0  0.16073721978E+02  0.19644802833E+01 -0.84661399187E+01  0.18272910171E+02  0.00000000000E+00 0.  1.
</event>
<event>
 7    1  0.6136531E-013  0.5052885E+02  0.7816164E-02  0.1300439E+00
        -11   -1    0    0    0    0  0.00000000000E+00  0.00000000000E+00  0.45593999997E+02  0.45594000000E+02  0.51100000000E-03 0.  1.
         11   -1    0    0    0    0 -0.00000000000E+00 -0.00000000000E+00 -0.45593999997E+02  0.45594000000E+02  0.51100000000E-03 0. -1.
    9900012    2    1    2    0    0 -0.36145888917E+01  0.32684044078E+02  0.23913470914E+02  0.50528854887E+02  0.29999984914E+02 0.  0.
         12    1    1    2    0    0  0.36145888917E+01 -0.32684044078E+02 -0.23913470914E+02  0.40659145113E+02  0.00000000000E+00 0. -1.
         11    1    3    3    0    0  0.71284786312E+01  0.21828802038E+02  0.14307431542E+02  0.27055764701E+02  0.51100000000E-03 0. -1.
        -11    1    3    3    0    0 -0.51358005807E+01 -0.28821204966E+01  0.55469346201E+01  0.80902132298E+01  0.51100000000E-03 0.  1.
        -12    1    3    3    0    0 -0.56072669422E+01  0.13737362537E+02  0.40591047522E+01  0.15382876956E+02  0.00000000000E+00 0.  1.
</event>
<event>
 7    1  0.6136531E-013  0.5052885E+02  0.7816164E-02  0.1300439E+00
        -11   -1    0    0    0    0  0.00000000000E+00  0.00000000000E+00  0.45593999997E+02  0.45594000000E+02  0.51100000000E-03 0.  1.
         11   -1    0    0    0    0 -0.00000000000E+00 -0.00000000000E+00 -0.45593999997E+02  0.45594000000E+02  0.51100000000E-03 0. -1.
    9900012    2    1    2    0    0 -0.75971232694E+01 -0.80286731416E+01  0.39127869839E+02  0.50528854995E+02  0.29999985243E+02 0.  0.
         12    1    1    2    0    0  0.75971232694E+01  0.80286731416E+01 -0.39127869839E+02  0.40659145005E+02  0.00000000000E+00 0. -1.
         11    1    3    3    0    0 -0.34398303860E-02  0.68538991506E+00  0.46594014933E-01  0.68698066309E+00  0.51100000000E-03 0. -1.
        -11    1    3    3    0    0  0.45770320367E+01  0.52822500418E+01  0.46817803316E+00  0.70050395217E+01  0.51100000000E-03 0.  1.
        -12    1    3    3    0    0 -0.12170715476E+02 -0.13996313098E+02  0.38613097791E+02  0.42836834810E+02  0.00000000000E+00 0.  1.
</event>
<event>
 7    1  0.6136531E-013  0.5052888E+02  0.7816164E-02  0.1300439E+00
        -11   -1    0    0    0    0  0.00000000000E+00  0.00000000000E+00  0.45593999997E+02  0.45594000000E+02  0.51100000000E-03 0.  1.
         11   -1    0    0    0    0 -0.00000000000E+00 -0.00000000000E+00 -0.45593999997E+02  0.45594000000E+02  0.51100000000E-03 0. -1.
    9900012    2    1    2    0    0  0.37999412708E+02  0.58376236410E+01 -0.13233694188E+02  0.50528881985E+02  0.30000067282E+02 0.  0.
         12    1    1    2    0    0 -0.37999412708E+02 -0.58376236410E+01  0.13233694188E+02  0.40659118015E+02  0.00000000000E+00 0. -1.
         11    1    3    3    0    0  0.96221435980E+01 -0.91958405127E+01  0.13498808370E+01  0.13378015873E+02  0.51100000000E-03 0. -1.
        -11    1    3    3    0    0  0.21189995642E+02  0.54188176965E+01 -0.70563838354E+01  0.22981994118E+02  0.51100000000E-03 0.  1.
         12    1    3    3    0    0  0.71872734675E+01  0.96146464573E+01 -0.75271911892E+01  0.14168871994E+02  0.00000000000E+00 0. -1.
</event>
<event>
 7    1  0.6136531E-013  0.5052886E+02  0.7816164E-02  0.1300439E+00
        -11   -1    0    0    0    0  0.00000000000E+00  0.00000000000E+00  0.45593999997E+02  0.45594000000E+02  0.51100000000E-03 0. -1.
         11   -1    0    0    0    0 -0.00000000000E+00 -0.00000000000E+00 -0.45593999997E+02  0.45594000000E+02  0.51100000000E-03 0.  1.
    9900012    2    1    2    0    0  0.27844562026E+02  0.28703377124E+02 -0.73458984438E+01  0.50528859371E+02  0.29999998545E+02 0.  0.
         12    1    1    2    0    0 -0.27844562026E+02 -0.28703377124E+02  0.73458984438E+01  0.40659140629E+02  0.00000000000E+00 0. -1.
         11    1    3    3    0    0  0.26862212628E+02  0.26486899037E+02  0.44150819707E+01  0.37981933033E+02  0.51100000000E-03 0. -1.
        -11    1    3    3    0    0  0.39070950041E+00  0.24960171553E+01 -0.38251290550E+01  0.45841431153E+01  0.51100000000E-03 0.  1.
         12    1    3    3    0    0  0.59163989752E+00 -0.27953906828E+00 -0.79358513595E+01  0.79627832231E+01  0.00000000000E+00 0. -1.
</event>
<event>
 7    1  0.6136531E-013  0.5052892E+02  0.7816164E-02  0.1300439E+00
        -11   -1    0    0    0    0  0.00000000000E+00  0.00000000000E+00  0.45593999997E+02  0.45594000000E+02  0.51100000000E-03 0.  1.
         11   -1    0    0    0    0 -0.00000000000E+00 -0.00000000000E+00 -0.45593999997E+02  0.45594000000E+02  0.51100000000E-03 0. -1.
    9900012    2    1    2    0    0 -0.28050164930E+02  0.29415182354E+02 -0.10469857653E+01  0.50528918792E+02  0.30000179158E+02 0.  0.
         12    1    1    2    0    0  0.28050164930E+02 -0.29415182354E+02  0.10469857653E+01  0.40659081208E+02  0.00000000000E+00 0. -1.
         11    1    3    3    0    0 -0.16816128935E+02  0.17336253370E+02  0.84551635204E+01  0.25589405302E+02  0.51100000000E-03 0. -1.
        -11    1    3    3    0    0 -0.11482289846E+02  0.15681069435E+02 -0.83047333730E+01  0.21135456356E+02  0.51100000000E-03 0.  1.
         12    1    3    3    0    0  0.24825385109E+00 -0.36021404514E+01 -0.11974159127E+01  0.38040571333E+01  0.00000000000E+00 0. -1.
</event>
<event>
 7    1  0.6136531E-013  0.5052886E+02  0.7816164E-02  0.1300439E+00
        -11   -1    0    0    0    0  0.00000000000E+00  0.00000000000E+00  0.45593999997E+02  0.45594000000E+02  0.51100000000E-03 0.  1.
         11   -1    0    0    0    0 -0.00000000000E+00 -0.00000000000E+00 -0.45593999997E+02  0.45594000000E+02  0.51100000000E-03 0. -1.
    9900012    2    1    2    0    0 -0.54451735917E+01  0.13252977384E+02  0.38050944447E+02  0.50528859597E+02  0.29999999231E+02 0.  0.
         12    1    1    2    0    0  0.54451735917E+01 -0.13252977384E+02 -0.38050944447E+02  0.40659140403E+02  0.00000000000E+00 0. -1.
         11    1    3    3    0    0 -0.21882156370E+01 -0.20466564973E+01  0.55334963052E+00  0.30468486288E+01  0.51100000000E-03 0. -1.
        -11    1    3    3    0    0  0.79685944492E+01  0.40417901180E+01  0.26976641602E+02  0.28417842234E+02  0.51100000000E-03 0.  1.
        -12    1    3    3    0    0 -0.11225552404E+02  0.11257843764E+02  0.10520953214E+02  0.19064168734E+02  0.00000000000E+00 0.  1.
</event>
<event>
 7    1  0.6136531E-013  0.5052886E+02  0.7816164E-02  0.1300439E+00
        -11   -1    0    0    0    0  0.00000000000E+00  0.00000000000E+00  0.45593999997E+02  0.45594000000E+02  0.51100000000E-03 0. -1.
         11   -1    0    0    0    0 -0.00000000000E+00 -0.00000000000E+00 -0.45593999997E+02  0.45594000000E+02  0.51100000000E-03 0.  1.
    9900012    2    1    2    0    0 -0.59851983499E+01  0.21866812475E+02 -0.33751822003E+02  0.50528861106E+02  0.30000003818E+02 0.  0.
         12    1    1    2    0    0  0.59851983499E+01 -0.21866812475E+02  0.33751822003E+02  0.40659138894E+02  0.00000000000E+00 0. -1.
         11    1    3    3    0    0 -0.11196759551E+02  0.14593274293E+02 -0.73887849365E+01  0.19822341490E+02  0.51100000000E-03 0. -1.
        -11    1    3    3    0    0  0.24303824384E+01  0.10695810501E+02 -0.21536605000E+02  0.24168832745E+02  0.51100000000E-03 0.  1.
         12    1    3    3    0    0  0.27811787627E+01 -0.34222723196E+01 -0.48264320658E+01  0.65376868712E+01  0.00000000000E+00 0. -1.
</event>
<event>
 7    1  0.6136531E-013  0.5052885E+02  0.7816164E-02  0.1300439E+00
        -11   -1    0    0    0    0  0.00000000000E+00  0.00000000000E+00  0.45593999997E+02  0.45594000000E+02  0.51100000000E-03 0. -1.
         11   -1    0    0    0    0 -0.00000000000E+00 -0.00000000000E+00 -0.45593999997E+02  0.45594000000E+02  0.51100000000E-03 0.  1.
    9900012    2    1    2    0    0 -0.14241232386E+02 -0.38074114267E+02 -0.84576991704E+00  0.50528853380E+02  0.29999980335E+02 0.  0.
         12    1    1    2    0    0  0.14241232386E+02  0.38074114267E+02  0.84576991704E+00  0.40659146620E+02  0.00000000000E+00 0. -1.
         11    1    3    3    0    0  0.48311928454E+01  0.46868070906E+00  0.10633568928E+01  0.49689852143E+01  0.51100000000E-03 0. -1.
        -11    1    3    3    0    0 -0.14444742584E+02 -0.23555933416E+02 -0.79479954197E+01  0.28752447181E+02  0.51100000000E-03 0.  1.
        -12    1    3    3    0    0 -0.46276826470E+01 -0.14986861560E+02  0.60388686098E+01  0.16807420986E+02  0.00000000000E+00 0.  1.
</event>
<event>
 7    1  0.6516799E-013  0.5052886E+02  0.7816164E-02  0.1300439E+00
        -11   -1    0    0    0    0  0.00000000000E+00  0.00000000000E+00  0.45593999997E+02  0.45594000000E+02  0.51100000000E-03 0.  1.
         11   -1    0    0    0    0 -0.00000000000E+00 -0.00000000000E+00 -0.45593999997E+02  0.45594000000E+02  0.51100000000E-03 0. -1.
    9900012    2    1    2    0    0 -0.29802522493E+02 -0.21095422077E+02 -0.17887372090E+02  0.50528864989E+02  0.30000015620E+02 0.  0.
         12    1    1    2    0    0  0.29802522493E+02  0.21095422077E+02  0.17887372090E+02  0.40659135011E+02  0.00000000000E+00 0. -1.
         11    1    3    3    0    0 -0.70784267464E+01 -0.12001109953E+01  0.71740897268E+01  0.10149480542E+02  0.51100000000E-03 0. -1.
        -11    1    3    3    0    0 -0.12283698753E+02 -0.98946873165E+01 -0.70331090857E+01  0.17270168379E+02  0.51100000000E-03 0.  1.
         12    1    3    3    0    0 -0.10440396993E+02 -0.10000623766E+02 -0.18028352731E+02  0.23109216068E+02  0.00000000000E+00 0. -1.
</event>
<event>
 7    1  0.6136531E-013  0.5052886E+02  0.7816164E-02  0.1300439E+00
        -11   -1    0    0    0    0  0.00000000000E+00  0.00000000000E+00  0.45593999997E+02  0.45594000000E+02  0.51100000000E-03 0.  1.
         11   -1    0    0    0    0 -0.00000000000E+00 -0.00000000000E+00 -0.45593999997E+02  0.45594000000E+02  0.51100000000E-03 0. -1.
    9900012    2    1    2    0    0 -0.20868320380E+02  0.33981943571E+02 -0.79313478341E+01  0.50528861263E+02  0.30000004297E+02 0.  0.
         12    1    1    2    0    0  0.20868320380E+02 -0.33981943571E+02  0.79313478341E+01  0.40659138737E+02  0.00000000000E+00 0. -1.
         11    1    3    3    0    0 -0.25905946930E+02  0.23681256218E+02 -0.39002193333E+01  0.35314751784E+02  0.51100000000E-03 0. -1.
        -11    1    3    3    0    0  0.75245624581E+01  0.57878456061E+01 -0.30311933765E+01  0.99652561679E+01  0.51100000000E-03 0.  1.
        -12    1    3    3    0    0 -0.24869359076E+01  0.45128417467E+01 -0.99993512438E+00  0.52488533121E+01  0.00000000000E+00 0.  1.
</event>
<event>
 7    1  0.6136531E-013  0.5052886E+02  0.7816164E-02  0.1300439E+00
        -11   -1    0    0    0    0  0.00000000000E+00  0.00000000000E+00  0.45593999997E+02  0.45594000000E+02  0.51100000000E-03 0.  1.
         11   -1    0    0    0    0 -0.00000000000E+00 -0.00000000000E+00 -0.45593999997E+02  0.45594000000E+02  0.51100000000E-03 0. -1.
    9900012    2    1    2    0    0  0.21362216191E+02  0.57860829243E+01  0.34107803919E+02  0.50528864196E+02  0.30000013209E+02 0.  0.
         12    1    1    2    0    0 -0.21362216191E+02 -0.57860829243E+01 -0.34107803919E+02  0.40659135804E+02  0.00000000000E+00 0. -1.
         11    1    3    3    0    0  0.93315300690E+00  0.81049415928E+01  0.22112163336E+00  0.81614795101E+01  0.51100000000E-03 0. -1.
        -11    1    3    3    0    0  0.20691659103E+02 -0.43037947121E+01  0.34332519506E+02  0.40316117140E+02  0.51100000000E-03 0.  1.
        -12    1    3    3    0    0 -0.26259591912E+00  0.19849360436E+01 -0.44583722069E+00  0.20512675451E+01  0.00000000000E+00 0.  1.
</event>
<event>
 7    1  0.6136531E-013  0.5052886E+02  0.7816164E-02  0.1300439E+00
        -11   -1    0    0    0    0  0.00000000000E+00  0.00000000000E+00  0.45593999997E+02  0.45594000000E+02  0.51100000000E-03 0. -1.
         11   -1    0    0    0    0 -0.00000000000E+00 -0.00000000000E+00 -0.45593999997E+02  0.45594000000E+02  0.51100000000E-03 0.  1.
    9900012    2    1    2    0    0 -0.28752833795E+02 -0.18778731216E+02 -0.21766937110E+02  0.50528858979E+02  0.29999997354E+02 0.  0.
         12    1    1    2    0    0  0.28752833795E+02  0.18778731216E+02  0.21766937110E+02  0.40659141021E+02  0.00000000000E+00 0. -1.
         11    1    3    3    0    0 -0.13488121831E+00  0.21187956368E+01  0.47513415088E+01  0.52041074439E+01  0.51100000000E-03 0. -1.
        -11    1    3    3    0    0 -0.24014229448E+02 -0.12360396926E+02 -0.20532888670E+02  0.33927306783E+02  0.51100000000E-03 0.  1.
         12    1    3    3    0    0 -0.46037231293E+01 -0.85371299272E+01 -0.59853899497E+01  0.11397444753E+02  0.00000000000E+00 0. -1.
</event>
<event>
 7    1  0.6136531E-013  0.5052888E+02  0.7816164E-02  0.1300439E+00
        -11   -1    0    0    0    0  0.00000000000E+00  0.00000000000E+00  0.45593999997E+02  0.45594000000E+02  0.51100000000E-03 0. -1.
         11   -1    0    0    0    0 -0.00000000000E+00 -0.00000000000E+00 -0.45593999997E+02  0.45594000000E+02  0.51100000000E-03 0.  1.
    9900012    2    1    2    0    0  0.37494691597E+02 -0.79943253608E+01  0.13542641296E+02  0.50528877172E+02  0.30000052651E+02 0.  0.
         12    1    1    2    0    0 -0.37494691597E+02  0.79943253608E+01 -0.13542641296E+02  0.40659122828E+02  0.00000000000E+00 0. -1.
         11    1    3    3    0    0  0.46351112744E+01 -0.83216032096E+01  0.33579589145E+01  0.10099961625E+02  0.51100000000E-03 0. -1.
        -11    1    3    3    0    0  0.30978548935E+02  0.36428479022E+01  0.18299595993E+01  0.31245633092E+02  0.51100000000E-03 0.  1.
        -12    1    3    3    0    0  0.18810313875E+01 -0.33155700534E+01  0.83547227822E+01  0.91832824539E+01  0.00000000000E+00 0.  1.
</event>
<event>
 7    1  0.6136531E-013  0.5052888E+02  0.7816164E-02  0.1300439E+00
        -11   -1    0    0    0    0  0.00000000000E+00  0.00000000000E+00  0.45593999997E+02  0.45594000000E+02  0.51100000000E-03 0. -1.
         11   -1    0    0    0    0 -0.00000000000E+00 -0.00000000000E+00 -0.45593999997E+02  0.45594000000E+02  0.51100000000E-03 0.  1.
    9900012    2    1    2    0    0 -0.19360395090E+02 -0.15447055589E+02 -0.32244812139E+02  0.50528876371E+02  0.30000050217E+02 0.  0.
         12    1    1    2    0    0  0.19360395090E+02  0.15447055589E+02  0.32244812139E+02  0.40659123629E+02  0.00000000000E+00 0. -1.
         11    1    3    3    0    0 -0.58844232820E+01  0.21391184981E+01 -0.82740917409E+01  0.10376071497E+02  0.51100000000E-03 0. -1.
        -11    1    3    3    0    0  0.25863950846E+01 -0.12574544506E+02 -0.28521977366E+01  0.13150803825E+02  0.51100000000E-03 0.  1.
        -12    1    3    3    0    0 -0.16062366893E+02 -0.50116295814E+01 -0.21118522661E+02  0.27002001049E+02  0.00000000000E+00 0.  1.
</event>
<event>
 7    1  0.6136531E-013  0.5052886E+02  0.7816164E-02  0.1300439E+00
        -11   -1    0    0    0    0  0.00000000000E+00  0.00000000000E+00  0.45593999997E+02  0.45594000000E+02  0.51100000000E-03 0.  1.
         11   -1    0    0    0    0 -0.00000000000E+00 -0.00000000000E+00 -0.45593999997E+02  0.45594000000E+02  0.51100000000E-03 0. -1.
    9900012    2    1    2    0    0 -0.52150694149E+01  0.24080957676E+02  0.32343102789E+02  0.50528858720E+02  0.29999996565E+02 0.  0.
         12    1    1    2    0    0  0.52150694149E+01 -0.24080957676E+02 -0.32343102789E+02  0.40659141280E+02  0.00000000000E+00 0. -1.
         11    1    3    3    0    0 -0.63014305630E+00  0.19260733150E+01 -0.31459162197E+00  0.20508063867E+01  0.51100000000E-03 0. -1.
        -11    1    3    3    0    0  0.87506959916E+01  0.18906114075E+02  0.13187426909E+02  0.24656116047E+02  0.51100000000E-03 0.  1.
        -12    1    3    3    0    0 -0.13335622350E+02  0.32487702859E+01  0.19470267502E+02  0.23821936286E+02  0.00000000000E+00 0.  1.
</event>
<event>
 7    1  0.6136531E-013  0.5052887E+02  0.7816164E-02  0.1300439E+00
        -11   -1    0    0    0    0  0.00000000000E+00  0.00000000000E+00  0.45593999997E+02  0.45594000000E+02  0.51100000000E-03 0.  1.
         11   -1    0    0    0    0 -0.00000000000E+00 -0.00000000000E+00 -0.45593999997E+02  0.45594000000E+02  0.51100000000E-03 0. -1.
    9900012    2    1    2    0    0 -0.11435112206E+02 -0.22769831577E+02  0.31684982744E+02  0.50528866307E+02  0.30000019627E+02 0.  0.
         12    1    1    2    0    0  0.11435112206E+02  0.22769831577E+02 -0.31684982744E+02  0.40659133693E+02  0.00000000000E+00 0. -1.
         11    1    3    3    0    0  0.13749133090E+01 -0.95679641634E+01  0.74594833431E+01  0.12209840984E+02  0.51100000000E-03 0. -1.
        -11    1    3    3    0    0 -0.17118881311E+02 -0.63471293035E+01  0.24082806022E+02  0.30221245737E+02  0.51100000000E-03 0.  1.
        -12    1    3    3    0    0  0.43088557966E+01 -0.68547381099E+01  0.14269337841E+00  0.80977795865E+01  0.00000000000E+00 0.  1.
</event>
<event>
 7    1  0.6136531E-013  0.5052885E+02  0.7816164E-02  0.1300439E+00
        -11   -1    0    0    0    0  0.00000000000E+00  0.00000000000E+00  0.45593999997E+02  0.45594000000E+02  0.51100000000E-03 0.  1.
         11   -1    0    0    0    0 -0.00000000000E+00 -0.00000000000E+00 -0.45593999997E+02  0.45594000000E+02  0.51100000000E-03 0. -1.
    9900012    2    1    2    0    0  0.56719370195E+01  0.33072336387E+02  0.22961181293E+02  0.50528854042E+02  0.29999982347E+02 0.  0.
         12    1    1    2    0    0 -0.56719370195E+01 -0.33072336387E+02 -0.22961181293E+02  0.40659145958E+02  0.00000000000E+00 0. -1.
         11    1    3    3    0    0 -0.46750408386E+01  0.20241018002E+01  0.20376074749E+01  0.54867877144E+01  0.51100000000E-03 0. -1.
        -11    1    3    3    0    0  0.95830087118E+01  0.18031319382E+02  0.24133859071E+02  0.31613378316E+02  0.51100000000E-03 0.  1.
        -12    1    3    3    0    0  0.76396914633E+00  0.13016915205E+02 -0.32102852534E+01  0.13428688011E+02  0.00000000000E+00 0.  1.
</event>
<event>
 7    1  0.6136531E-013  0.5052886E+02  0.7816164E-02  0.1300439E+00
        -11   -1    0    0    0    0  0.00000000000E+00  0.00000000000E+00  0.45593999997E+02  0.45594000000E+02  0.51100000000E-03 0. -1.
         11   -1    0    0    0    0 -0.00000000000E+00 -0.00000000000E+00 -0.45593999997E+02  0.45594000000E+02  0.51100000000E-03 0.  1.
    9900012    2    1    2    0    0 -0.26959542498E+02  0.22769937463E+02 -0.20196006474E+02  0.50528860052E+02  0.30000000615E+02 0.  0.
         12    1    1    2    0    0  0.26959542498E+02 -0.22769937463E+02  0.20196006474E+02  0.40659139948E+02  0.00000000000E+00 0. -1.
         11    1    3    3    0    0 -0.81624122769E+01  0.61710007883E+01  0.62864810345E+01  0.12009415846E+02  0.51100000000E-03 0. -1.
        -11    1    3    3    0    0 -0.16646538030E+02  0.76019236587E+01 -0.20611357841E+02  0.27563101132E+02  0.51100000000E-03 0.  1.
        -12    1    3    3    0    0 -0.21505921909E+01  0.89970130161E+01 -0.58711296679E+01  0.10956343074E+02  0.00000000000E+00 0.  1.
</event>
<event>
 7    1  0.6136531E-013  0.5052886E+02  0.7816164E-02  0.1300439E+00
        -11   -1    0    0    0    0  0.00000000000E+00  0.00000000000E+00  0.45593999997E+02  0.45594000000E+02  0.51100000000E-03 0. -1.
         11   -1    0    0    0    0 -0.00000000000E+00 -0.00000000000E+00 -0.45593999997E+02  0.45594000000E+02  0.51100000000E-03 0.  1.
    9900012    2    1    2    0    0  0.33955865756E+02 -0.22360592505E+02 -0.41056550426E+00  0.50528862276E+02  0.30000007374E+02 0.  0.
         12    1    1    2    0    0 -0.33955865756E+02  0.22360592505E+02  0.41056550426E+00  0.40659137724E+02  0.00000000000E+00 0. -1.
         11    1    3    3    0    0  0.54619280365E+01 -0.89154197880E+01 -0.83715260302E+01  0.13394021659E+02  0.51100000000E-03 0. -1.
        -11    1    3    3    0    0  0.11275316913E+02 -0.14086893141E+02  0.83901008095E+01  0.19898922627E+02  0.51100000000E-03 0.  1.
        -12    1    3    3    0    0  0.17218620806E+02  0.64172042355E+00 -0.42914028355E+00  0.17235917990E+02  0.00000000000E+00 0.  1.
</event>
<event>
 7    1  0.6136531E-013  0.5052888E+02  0.7816164E-02  0.1300439E+00
        -11   -1    0    0    0    0  0.00000000000E+00  0.00000000000E+00  0.45593999997E+02  0.45594000000E+02  0.51100000000E-03 0. -1.
         11   -1    0    0    0    0 -0.00000000000E+00 -0.00000000000E+00 -0.45593999997E+02  0.45594000000E+02  0.51100000000E-03 0.  1.
    9900012    2    1    2    0    0 -0.15708766088E+01 -0.40292400881E+02 -0.52171317734E+01  0.50528884343E+02  0.30000074449E+02 0.  0.
         12    1    1    2    0    0  0.15708766088E+01  0.40292400881E+02  0.52171317734E+01  0.40659115657E+02  0.00000000000E+00 0. -1.
         11    1    3    3    0    0 -0.22003397118E+01  0.23532312361E+01  0.20704175533E+01  0.38295980473E+01  0.51100000000E-03 0. -1.
        -11    1    3    3    0    0 -0.24431087545E+01 -0.30689884921E+02  0.25813330532E+01  0.30895001173E+02  0.51100000000E-03 0.  1.
         12    1    3    3    0    0  0.30725718575E+01 -0.11955747195E+02 -0.98688823798E+01  0.15804285123E+02  0.00000000000E+00 0. -1.
</event>
<event>
 7    1  0.6136531E-013  0.5052886E+02  0.7816164E-02  0.1300439E+00
        -11   -1    0    0    0    0  0.00000000000E+00  0.00000000000E+00  0.45593999997E+02  0.45594000000E+02  0.51100000000E-03 0.  1.
         11   -1    0    0    0    0 -0.00000000000E+00 -0.00000000000E+00 -0.45593999997E+02  0.45594000000E+02  0.51100000000E-03 0. -1.
    9900012    2    1    2    0    0 -0.40445082085E+02 -0.13357223204E+01  0.39467894901E+01  0.50528856302E+02  0.29999989216E+02 0.  0.
         12    1    1    2    0    0  0.40445082085E+02  0.13357223204E+01 -0.39467894901E+01  0.40659143698E+02  0.00000000000E+00 0. -1.
         11    1    3    3    0    0 -0.18239735344E+02 -0.11241989917E+02  0.41036560746E+01  0.21815367889E+02  0.51100000000E-03 0. -1.
        -11    1    3    3    0    0 -0.15505066519E+02  0.13907207957E+02 -0.10733819668E+01  0.20855926497E+02  0.51100000000E-03 0.  1.
        -12    1    3    3    0    0 -0.67002802220E+01 -0.40009403606E+01  0.91651538229E+00  0.78575619163E+01  0.00000000000E+00 0.  1.
</event>
<event>
 7    1  0.6136531E-013  0.5052886E+02  0.7816164E-02  0.1300439E+00
        -11   -1    0    0    0    0  0.00000000000E+00  0.00000000000E+00  0.45593999997E+02  0.45594000000E+02  0.51100000000E-03 0.  1.
         11   -1    0    0    0    0 -0.00000000000E+00 -0.00000000000E+00 -0.45593999997E+02  0.45594000000E+02  0.51100000000E-03 0. -1.
    9900012    2    1    2    0    0 -0.40192054397E+01  0.69731958069E+01  0.39854566122E+02  0.50528856958E+02  0.29999991210E+02 0.  0.
         12    1    1    2    0    0  0.40192054397E+01 -0.69731958069E+01 -0.39854566122E+02  0.40659143042E+02  0.00000000000E+00 0. -1.
         11    1    3    3    0    0 -0.13204071837E+02  0.73578751176E+01  0.33701628426E+02  0.36936236924E+02  0.51100000000E-03 0.  1.
        -11    1    3    3    0    0  0.95047083789E+01  0.71146599646E+00  0.72759640131E+01  0.11991051572E+02  0.51100000000E-03 0. -1.
         12    1    3    3    0    0 -0.31984198149E+00 -0.10961453072E+01 -0.11230263170E+01  0.16015684613E+01  0.00000000000E+00 0. -1.
</event>
<event>
 7    1  0.6136531E-013  0.5052886E+02  0.7816164E-02  0.1300439E+00
        -11   -1    0    0    0    0  0.00000000000E+00  0.00000000000E+00  0.45593999997E+02  0.45594000000E+02  0.51100000000E-03 0.  1.
         11   -1    0    0    0    0 -0.00000000000E+00 -0.00000000000E+00 -0.45593999997E+02  0.45594000000E+02  0.51100000000E-03 0. -1.
    9900012    2    1    2    0    0  0.36751774309E+02  0.52519882847E+01 -0.16579788092E+02  0.50528859957E+02  0.30000000327E+02 0.  0.
         12    1    1    2    0    0 -0.36751774309E+02 -0.52519882847E+01  0.16579788092E+02  0.40659140043E+02  0.00000000000E+00 0. -1.
         11    1    3    3    0    0  0.28023096130E+02 -0.40625069402E+01 -0.21113986762E+02  0.35321357797E+02  0.51100000000E-03 0. -1.
        -11    1    3    3    0    0  0.40450760505E+01  0.61370118527E+01  0.58532847373E+01  0.93960894638E+01  0.51100000000E-03 0.  1.
         12    1    3    3    0    0  0.46836021287E+01  0.31774833722E+01 -0.13190860673E+01  0.58114126969E+01  0.00000000000E+00 0. -1.
</event>
<event>
 7    1  0.6136531E-013  0.5052885E+02  0.7816164E-02  0.1300439E+00
        -11   -1    0    0    0    0  0.00000000000E+00  0.00000000000E+00  0.45593999997E+02  0.45594000000E+02  0.51100000000E-03 0.  1.
         11   -1    0    0    0    0 -0.00000000000E+00 -0.00000000000E+00 -0.45593999997E+02  0.45594000000E+02  0.51100000000E-03 0. -1.
    9900012    2    1    2    0    0  0.31296739092E+02  0.14334458818E+02  0.21638023530E+02  0.50528847898E+02  0.29999963671E+02 0.  0.
         12    1    1    2    0    0 -0.31296739092E+02 -0.14334458818E+02 -0.21638023530E+02  0.40659152102E+02  0.00000000000E+00 0. -1.
         11    1    3    3    0    0  0.11977086304E+02  0.12638224767E+02  0.21579829896E+02  0.27728403852E+02  0.51100000000E-03 0. -1.
        -11    1    3    3    0    0  0.36003217162E+01 -0.44765348429E+01 -0.11893992609E+01  0.58665451096E+01  0.51100000000E-03 0.  1.
         12    1    3    3    0    0  0.15719331072E+02  0.61727688943E+01  0.12475928943E+01  0.16933898936E+02  0.00000000000E+00 0. -1.
</event>
<event>
 7    1  0.6136531E-013  0.5052882E+02  0.7816164E-02  0.1300439E+00
        -11   -1    0    0    0    0  0.00000000000E+00  0.00000000000E+00  0.45593999997E+02  0.45594000000E+02  0.51100000000E-03 0.  1.
         11   -1    0    0    0    0 -0.00000000000E+00 -0.00000000000E+00 -0.45593999997E+02  0.45594000000E+02  0.51100000000E-03 0. -1.
    9900012    2    1    2    0    0 -0.12563670855E+02  0.10949499179E+02  0.37086807947E+02  0.50528822914E+02  0.29999887728E+02 0.  0.
         12    1    1    2    0    0  0.12563670855E+02 -0.10949499179E+02 -0.37086807947E+02  0.40659177086E+02  0.00000000000E+00 0. -1.
         11    1    3    3    0    0 -0.14202902117E+02  0.77860891831E+01  0.11182890595E+02  0.19682546980E+02  0.51100000000E-03 0. -1.
        -11    1    3    3    0    0 -0.34097371768E+01 -0.53245999361E+01  0.14119950421E+02  0.15470962228E+02  0.51100000000E-03 0.  1.
         12    1    3    3    0    0  0.50489684394E+01  0.84880099320E+01  0.11783966931E+02  0.15375313705E+02  0.00000000000E+00 0. -1.
</event>
<event>
 7    1  0.6136531E-013  0.5052886E+02  0.7816164E-02  0.1300439E+00
        -11   -1    0    0    0    0  0.00000000000E+00  0.00000000000E+00  0.45593999997E+02  0.45594000000E+02  0.51100000000E-03 0.  1.
         11   -1    0    0    0    0 -0.00000000000E+00 -0.00000000000E+00 -0.45593999997E+02  0.45594000000E+02  0.51100000000E-03 0. -1.
    9900012    2    1    2    0    0 -0.16844593909E+02  0.29613153948E+02  0.22192029332E+02  0.50528863307E+02  0.30000010508E+02 0.  0.
         12    1    1    2    0    0  0.16844593909E+02 -0.29613153948E+02 -0.22192029332E+02  0.40659136693E+02  0.00000000000E+00 0. -1.
         11    1    3    3    0    0 -0.15942763368E+02  0.95848948812E+01 -0.17178150374E+01  0.18681349053E+02  0.51100000000E-03 0. -1.
        -11    1    3    3    0    0 -0.17307127228E+01  0.14285195937E+02  0.20718171098E+02  0.25225082822E+02  0.51100000000E-03 0.  1.
        -12    1    3    3    0    0  0.82888218150E+00  0.57430631304E+01  0.31916732715E+01  0.66224314313E+01  0.00000000000E+00 0.  1.
</event>
<event>
 7    1  0.6136531E-013  0.5052887E+02  0.7816164E-02  0.1300439E+00
        -11   -1    0    0    0    0  0.00000000000E+00  0.00000000000E+00  0.45593999997E+02  0.45594000000E+02  0.51100000000E-03 0.  1.
         11   -1    0    0    0    0 -0.00000000000E+00 -0.00000000000E+00 -0.45593999997E+02  0.45594000000E+02  0.51100000000E-03 0. -1.
    9900012    2    1    2    0    0  0.28434929011E+02 -0.20239340595E+02  0.20856392929E+02  0.50528865459E+02  0.30000017050E+02 0.  0.
         12    1    1    2    0    0 -0.28434929011E+02  0.20239340595E+02 -0.20856392929E+02  0.40659134541E+02  0.00000000000E+00 0. -1.
         11    1    3    3    0    0  0.22822075204E+02 -0.21654631315E+02  0.23219567926E+02  0.39101387557E+02  0.51100000000E-03 0. -1.
        -11    1    3    3    0    0  0.79438928551E+01  0.14397075737E+01  0.48296181980E-01  0.80734456321E+01  0.51100000000E-03 0.  1.
         12    1    3    3    0    0 -0.23310390476E+01 -0.24416854135E-01 -0.24114711785E+01  0.33540322701E+01  0.00000000000E+00 0. -1.
</event>
<event>
 7    1  0.6136531E-013  0.5052885E+02  0.7816164E-02  0.1300439E+00
        -11   -1    0    0    0    0  0.00000000000E+00  0.00000000000E+00  0.45593999997E+02  0.45594000000E+02  0.51100000000E-03 0.  1.
         11   -1    0    0    0    0 -0.00000000000E+00 -0.00000000000E+00 -0.45593999997E+02  0.45594000000E+02  0.51100000000E-03 0. -1.
    9900012    2    1    2    0    0  0.10730659906E+02 -0.30056442501E+02  0.25191860452E+02  0.50528848129E+02  0.29999964373E+02 0.  0.
         12    1    1    2    0    0 -0.10730659906E+02  0.30056442501E+02 -0.25191860452E+02  0.40659151871E+02  0.00000000000E+00 0. -1.
         11    1    3    3    0    0  0.51406097947E+01  0.41966542105E+01  0.20715336684E+01  0.69519082002E+01  0.51100000000E-03 0. -1.
        -11    1    3    3    0    0  0.74944356040E+01 -0.14342555885E+02  0.14745293600E+02  0.21892902000E+02  0.51100000000E-03 0.  1.
         12    1    3    3    0    0 -0.19043854925E+01 -0.19910540826E+02  0.83750331836E+01  0.21684037929E+02  0.00000000000E+00 0. -1.
</event>
<event>
 7    1  0.6136531E-013  0.5052886E+02  0.7816164E-02  0.1300439E+00
        -11   -1    0    0    0    0  0.00000000000E+00  0.00000000000E+00  0.45593999997E+02  0.45594000000E+02  0.51100000000E-03 0.  1.
         11   -1    0    0    0    0 -0.00000000000E+00 -0.00000000000E+00 -0.45593999997E+02  0.45594000000E+02  0.51100000000E-03 0. -1.
    9900012    2    1    2    0    0 -0.36186704890E+02 -0.79496961594E+01 -0.16747858535E+02  0.50528855330E+02  0.29999986260E+02 0.  0.
         12    1    1    2    0    0  0.36186704890E+02  0.79496961594E+01  0.16747858535E+02  0.40659144670E+02  0.00000000000E+00 0. -1.
         11    1    3    3    0    0 -0.24191120619E+02 -0.64854807766E+01 -0.20688961330E+02  0.32485456728E+02  0.51100000000E-03 0. -1.
        -11    1    3    3    0    0 -0.18031829147E+01  0.44203259113E+01  0.40702053192E+01  0.62735413753E+01  0.51100000000E-03 0.  1.
         12    1    3    3    0    0 -0.10192401357E+02 -0.58845412941E+01 -0.12910252469E+00  0.11769857226E+02  0.00000000000E+00 0. -1.
</event>
<event>
 7    1  0.6136531E-013  0.5052887E+02  0.7816164E-02  0.1300439E+00
        -11   -1    0    0    0    0  0.00000000000E+00  0.00000000000E+00  0.45593999997E+02  0.45594000000E+02  0.51100000000E-03 0. -1.
         11   -1    0    0    0    0 -0.00000000000E+00 -0.00000000000E+00 -0.45593999997E+02  0.45594000000E+02  0.51100000000E-03 0.  1.
    9900012    2    1    2    0    0 -0.10651010137E+02 -0.14814267902E+02 -0.36335357115E+02  0.50528871541E+02  0.30000035535E+02 0.  0.
         12    1    1    2    0    0  0.10651010137E+02  0.14814267902E+02  0.36335357115E+02  0.40659128459E+02  0.00000000000E+00 0. -1.
         11    1    3    3    0    0 -0.11785134519E+02 -0.59094385789E+01 -0.28996083655E+02  0.31852530944E+02  0.51100000000E-03 0. -1.
        -11    1    3    3    0    0 -0.33629834483E+01 -0.10963869048E+02 -0.24606356423E+01  0.11729058368E+02  0.51100000000E-03 0.  1.
        -12    1    3    3    0    0  0.44971078300E+01  0.20590397244E+01 -0.48786378172E+01  0.69472822292E+01  0.00000000000E+00 0.  1.
</event>
<event>
 7    1  0.6136531E-013  0.5052885E+02  0.7816164E-02  0.1300439E+00
        -11   -1    0    0    0    0  0.00000000000E+00  0.00000000000E+00  0.45593999997E+02  0.45594000000E+02  0.51100000000E-03 0. -1.
         11   -1    0    0    0    0 -0.00000000000E+00 -0.00000000000E+00 -0.45593999997E+02  0.45594000000E+02  0.51100000000E-03 0.  1.
    9900012    2    1    2    0    0  0.24079563197E+02  0.57388426096E+01 -0.32255331260E+02  0.50528854990E+02  0.29999985226E+02 0.  0.
         12    1    1    2    0    0 -0.24079563197E+02 -0.57388426096E+01  0.32255331260E+02  0.40659145010E+02  0.00000000000E+00 0. -1.
         11    1    3    3    0    0 -0.24525376418E+01  0.58027622522E+01 -0.27112328538E+00  0.63055926555E+01  0.51100000000E-03 0. -1.
        -11    1    3    3    0    0  0.14072025282E+02  0.62396563139E+01 -0.22799773102E+02  0.27509723012E+02  0.51100000000E-03 0.  1.
         12    1    3    3    0    0  0.12460075557E+02 -0.63035759564E+01 -0.91844348732E+01  0.16713539322E+02  0.00000000000E+00 0. -1.
</event>
<event>
 7    1  0.6136531E-013  0.5052886E+02  0.7816164E-02  0.1300439E+00
        -11   -1    0    0    0    0  0.00000000000E+00  0.00000000000E+00  0.45593999997E+02  0.45594000000E+02  0.51100000000E-03 0.  1.
         11   -1    0    0    0    0 -0.00000000000E+00 -0.00000000000E+00 -0.45593999997E+02  0.45594000000E+02  0.51100000000E-03 0. -1.
    9900012    2    1    2    0    0 -0.40211507586E+02 -0.34262122137E+01  0.49458365656E+01  0.50528861153E+02  0.30000003960E+02 0.  0.
         12    1    1    2    0    0  0.40211507586E+02  0.34262122137E+01 -0.49458365656E+01  0.40659138847E+02  0.00000000000E+00 0. -1.
         11    1    3    3    0    0 -0.19524630762E+02 -0.15022693117E+02 -0.16360743679E+01  0.24689456342E+02  0.51100000000E-03 0. -1.
        -11    1    3    3    0    0 -0.11867748967E+02  0.86408528343E+01  0.75142573814E+01  0.16491569589E+02  0.51100000000E-03 0.  1.
        -12    1    3    3    0    0 -0.88191278570E+01  0.29556280686E+01 -0.93234644797E+00  0.93478352220E+01  0.00000000000E+00 0.  1.
</event>
<event>
 7    1  0.6136531E-013  0.5052895E+02  0.7816164E-02  0.1300438E+00
        -11   -1    0    0    0    0  0.00000000000E+00  0.00000000000E+00  0.45593999997E+02  0.45594000000E+02  0.51100000000E-03 0.  1.
         11   -1    0    0    0    0 -0.00000000000E+00 -0.00000000000E+00 -0.45593999997E+02  0.45594000000E+02  0.51100000000E-03 0. -1.
    9900012    2    1    2    0    0 -0.20424832756E+02  0.27727934658E+02  0.21613559863E+02  0.50528952748E+02  0.30000282371E+02 0.  0.
         12    1    1    2    0    0  0.20424832756E+02 -0.27727934658E+02 -0.21613559863E+02  0.40659047252E+02  0.00000000000E+00 0. -1.
         11    1    3    3    0    0 -0.62085598643E+01  0.22533999294E+02  0.17025376453E+01  0.23435570709E+02  0.51100000000E-03 0. -1.
        -11    1    3    3    0    0 -0.61049080051E+01  0.37877711683E+01  0.16837074963E+02  0.18305851681E+02  0.51100000000E-03 0.  1.
        -12    1    3    3    0    0 -0.81113648870E+01  0.14061641956E+01  0.30739472541E+01  0.87875303582E+01  0.00000000000E+00 0.  1.
</event>
<event>
 7    1  0.6136531E-013  0.5052887E+02  0.7816164E-02  0.1300439E+00
        -11   -1    0    0    0    0  0.00000000000E+00  0.00000000000E+00  0.45593999997E+02  0.45594000000E+02  0.51100000000E-03 0.  1.
         11   -1    0    0    0    0 -0.00000000000E+00 -0.00000000000E+00 -0.45593999997E+02  0.45594000000E+02  0.51100000000E-03 0. -1.
    9900012    2    1    2    0    0 -0.15408884001E+02  0.19629803134E+02  0.32099876782E+02  0.50528868595E+02  0.30000026582E+02 0.  0.
         12    1    1    2    0    0  0.15408884001E+02 -0.19629803134E+02 -0.32099876782E+02  0.40659131405E+02  0.00000000000E+00 0. -1.
         11    1    3    3    0    0 -0.82885249317E+01  0.11224195952E+02 -0.14720359890E+00  0.13953633558E+02  0.51100000000E-03 0. -1.
        -11    1    3    3    0    0 -0.62782416919E+01  0.11945059047E+02  0.27076716338E+02  0.30253087814E+02  0.51100000000E-03 0.  1.
         12    1    3    3    0    0 -0.84211737700E+00 -0.35394518649E+01  0.51703640423E+01  0.63221472231E+01  0.00000000000E+00 0. -1.
</event>
<event>
 7    1  0.6136531E-013  0.5052886E+02  0.7816164E-02  0.1300439E+00
        -11   -1    0    0    0    0  0.00000000000E+00  0.00000000000E+00  0.45593999997E+02  0.45594000000E+02  0.51100000000E-03 0.  1.
         11   -1    0    0    0    0 -0.00000000000E+00 -0.00000000000E+00 -0.45593999997E+02  0.45594000000E+02  0.51100000000E-03 0. -1.
    9900012    2    1    2    0    0 -0.20586000697E+02 -0.87941630870E+01  0.33941793249E+02  0.50528855173E+02  0.29999985784E+02 0.  0.
         12    1    1    2    0    0  0.20586000697E+02  0.87941630870E+01 -0.33941793249E+02  0.40659144827E+02  0.00000000000E+00 0. -1.
         11    1    3    3    0    0  0.50910670654E+00 -0.13299182853E+02  0.67718668531E+01  0.14932703544E+02  0.51100000000E-03 0. -1.
        -11    1    3    3    0    0 -0.17648245526E+02  0.54000092651E+00  0.22187118926E+02  0.28355253793E+02  0.51100000000E-03 0.  1.
        -12    1    3    3    0    0 -0.34468618776E+01  0.39650188390E+01  0.49828074697E+01  0.72408978364E+01  0.00000000000E+00 0.  1.
</event>
<event>
 7    1  0.6136531E-013  0.5052886E+02  0.7816164E-02  0.1300439E+00
        -11   -1    0    0    0    0  0.00000000000E+00  0.00000000000E+00  0.45593999997E+02  0.45594000000E+02  0.51100000000E-03 0.  1.
         11   -1    0    0    0    0 -0.00000000000E+00 -0.00000000000E+00 -0.45593999997E+02  0.45594000000E+02  0.51100000000E-03 0. -1.
    9900012    2    1    2    0    0  0.20438198710E+02 -0.15344327849E+02  0.31622735926E+02  0.50528858456E+02  0.29999995763E+02 0.  0.
         12    1    1    2    0    0 -0.20438198710E+02  0.15344327849E+02 -0.31622735926E+02  0.40659141544E+02  0.00000000000E+00 0. -1.
         11    1    3    3    0    0  0.11868158481E+02 -0.60381866763E+01 -0.25413213108E+01  0.13556223602E+02  0.51100000000E-03 0. -1.
        -11    1    3    3    0    0  0.32881603882E+01 -0.80181899027E+01  0.19766769549E+02  0.21583061570E+02  0.51100000000E-03 0.  1.
         12    1    3    3    0    0  0.52818798400E+01 -0.12879512699E+01  0.14397287688E+02  0.15389573284E+02  0.00000000000E+00 0. -1.
</event>
<event>
 7    1  0.6136531E-013  0.5052886E+02  0.7816164E-02  0.1300439E+00
        -11   -1    0    0    0    0  0.00000000000E+00  0.00000000000E+00  0.45593999997E+02  0.45594000000E+02  0.51100000000E-03 0. -1.
         11   -1    0    0    0    0 -0.00000000000E+00 -0.00000000000E+00 -0.45593999997E+02  0.45594000000E+02  0.51100000000E-03 0.  1.
    9900012    2    1    2    0    0 -0.71432136884E+01 -0.25862008546E+02 -0.30549903878E+02  0.50528860624E+02  0.30000002353E+02 0.  0.
         12    1    1    2    0    0  0.71432136884E+01  0.25862008546E+02  0.30549903878E+02  0.40659139376E+02  0.00000000000E+00 0. -1.
         11    1    3    3    0    0 -0.42238292358E+01 -0.17577255928E+01  0.30216085993E+01  0.54827412360E+01  0.51100000000E-03 0. -1.
        -11    1    3    3    0    0 -0.34993059217E+01 -0.26657017719E+02 -0.27622660095E+02  0.38546764930E+02  0.51100000000E-03 0.  1.
        -12    1    3    3    0    0  0.57992146909E+00  0.25527347661E+01 -0.59488523828E+01  0.64993544578E+01  0.00000000000E+00 0.  1.
</event>
<event>
 7    1  0.6136531E-013  0.5052886E+02  0.7816164E-02  0.1300439E+00
        -11   -1    0    0    0    0  0.00000000000E+00  0.00000000000E+00  0.45593999997E+02  0.45594000000E+02  0.51100000000E-03 0.  1.
         11   -1    0    0    0    0 -0.00000000000E+00 -0.00000000000E+00 -0.45593999997E+02  0.45594000000E+02  0.51100000000E-03 0. -1.
    9900012    2    1    2    0    0  0.14918633708E+02 -0.37718411756E+02 -0.28145223554E+01  0.50528858922E+02  0.29999997178E+02 0.  0.
         12    1    1    2    0    0 -0.14918633708E+02  0.37718411756E+02  0.28145223554E+01  0.40659141078E+02  0.00000000000E+00 0. -1.
         11    1    3    3    0    0  0.78681290048E+01 -0.39711160504E+01  0.41365597869E+01  0.97359305592E+01  0.51100000000E-03 0. -1.
        -11    1    3    3    0    0  0.66069719235E+01 -0.33875024034E+02 -0.69548610609E+00  0.34520327816E+02  0.51100000000E-03 0.  1.
        -12    1    3    3    0    0  0.44353277957E+00  0.12772832825E+00 -0.62555960361E+01  0.62726005468E+01  0.00000000000E+00 0.  1.
</event>
<event>
 7    1  0.6136531E-013  0.5052886E+02  0.7816164E-02  0.1300439E+00
        -11   -1    0    0    0    0  0.00000000000E+00  0.00000000000E+00  0.45593999997E+02  0.45594000000E+02  0.51100000000E-03 0. -1.
         11   -1    0    0    0    0 -0.00000000000E+00 -0.00000000000E+00 -0.45593999997E+02  0.45594000000E+02  0.51100000000E-03 0.  1.
    9900012    2    1    2    0    0 -0.35265389685E+02 -0.17208023869E+02 -0.10649028301E+02  0.50528860820E+02  0.30000002949E+02 0.  0.
         12    1    1    2    0    0  0.35265389685E+02  0.17208023869E+02  0.10649028301E+02  0.40659139180E+02  0.00000000000E+00 0. -1.
         11    1    3    3    0    0 -0.37239788456E+01 -0.14872335475E+02 -0.10656669145E+01  0.15368475108E+02  0.51100000000E-03 0. -1.
        -11    1    3    3    0    0 -0.17245899650E+02  0.82172326342E+00 -0.10968545706E+02  0.20454957322E+02  0.51100000000E-03 0.  1.
         12    1    3    3    0    0 -0.14295511189E+02 -0.31574116569E+01  0.13851843198E+01  0.14705428390E+02  0.00000000000E+00 0. -1.
</event>
<event>
 7    1  0.6136531E-013  0.5052886E+02  0.7816164E-02  0.1300439E+00
        -11   -1    0    0    0    0  0.00000000000E+00  0.00000000000E+00  0.45593999997E+02  0.45594000000E+02  0.51100000000E-03 0.  1.
         11   -1    0    0    0    0 -0.00000000000E+00 -0.00000000000E+00 -0.45593999997E+02  0.45594000000E+02  0.51100000000E-03 0. -1.
    9900012    2    1    2    0    0  0.58569671429E+01 -0.28990432577E+02  0.27900110149E+02  0.50528863371E+02  0.30000010701E+02 0.  0.
         12    1    1    2    0    0 -0.58569671429E+01  0.28990432577E+02 -0.27900110149E+02  0.40659136629E+02  0.00000000000E+00 0. -1.
         11    1    3    3    0    0  0.13451960651E+01 -0.36929074671E+01 -0.55750981386E+01  0.68212049911E+01  0.51100000000E-03 0. -1.
        -11    1    3    3    0    0  0.77644305926E+01 -0.17377284568E+02  0.19023831180E+02  0.26910268568E+02  0.51100000000E-03 0.  1.
         12    1    3    3    0    0 -0.32526595148E+01 -0.79202405421E+01  0.14451377108E+02  0.16797389811E+02  0.00000000000E+00 0. -1.
</event>
<event>
 7    1  0.6136531E-013  0.5052887E+02  0.7816164E-02  0.1300439E+00
        -11   -1    0    0    0    0  0.00000000000E+00  0.00000000000E+00  0.45593999997E+02  0.45594000000E+02  0.51100000000E-03 0.  1.
         11   -1    0    0    0    0 -0.00000000000E+00 -0.00000000000E+00 -0.45593999997E+02  0.45594000000E+02  0.51100000000E-03 0. -1.
    9900012    2    1    2    0    0  0.34111169334E+01  0.26969714488E+02  0.30235141962E+02  0.50528867843E+02  0.30000024297E+02 0.  0.
         12    1    1    2    0    0 -0.34111169334E+01 -0.26969714488E+02 -0.30235141962E+02  0.40659132157E+02  0.00000000000E+00 0. -1.
         11    1    3    3    0    0 -0.29565500417E+00  0.40441509674E+01 -0.38924824856E+01  0.56208530572E+01  0.51100000000E-03 0. -1.
        -11    1    3    3    0    0  0.69670361938E+01  0.24205596041E+02  0.32291034837E+02  0.40953161101E+02  0.51100000000E-03 0.  1.
        -12    1    3    3    0    0 -0.32602642562E+01 -0.12800325210E+01  0.18365896100E+01  0.39548536851E+01  0.00000000000E+00 0.  1.
</event>
<event>
 7    1  0.6136531E-013  0.5052886E+02  0.7816164E-02  0.1300439E+00
        -11   -1    0    0    0    0  0.00000000000E+00  0.00000000000E+00  0.45593999997E+02  0.45594000000E+02  0.51100000000E-03 0.  1.
         11   -1    0    0    0    0 -0.00000000000E+00 -0.00000000000E+00 -0.45593999997E+02  0.45594000000E+02  0.51100000000E-03 0. -1.
    9900012    2    1    2    0    0  0.92925650674E+01  0.93802000716E+01  0.38455501941E+02  0.50528861440E+02  0.30000004832E+02 0.  0.
         12    1    1    2    0    0 -0.92925650674E+01 -0.93802000716E+01 -0.38455501941E+02  0.40659138560E+02  0.00000000000E+00 0. -1.
         11    1    3    3    0    0 -0.57316999014E+01 -0.47533290349E+01  0.12877018209E+01  0.75567649768E+01  0.51100000000E-03 0. -1.
        -11    1    3    3    0    0  0.68010358324E+01  0.23675779631E+01  0.11765663855E+02  0.13794577196E+02  0.51100000000E-03 0.  1.
         12    1    3    3    0    0  0.82232291365E+01  0.11765951143E+02  0.25402136265E+02  0.29177519267E+02  0.00000000000E+00 0. -1.
</event>
<event>
 7    1  0.6136531E-013  0.5052887E+02  0.7816164E-02  0.1300439E+00
        -11   -1    0    0    0    0  0.00000000000E+00  0.00000000000E+00  0.45593999997E+02  0.45594000000E+02  0.51100000000E-03 0. -1.
         11   -1    0    0    0    0 -0.00000000000E+00 -0.00000000000E+00 -0.45593999997E+02  0.45594000000E+02  0.51100000000E-03 0.  1.
    9900012    2    1    2    0    0 -0.33304051263E+02 -0.19937403276E+02  0.12103940547E+02  0.50528865028E+02  0.30000015740E+02 0.  0.
         12    1    1    2    0    0  0.33304051263E+02  0.19937403276E+02 -0.12103940547E+02  0.40659134972E+02  0.00000000000E+00 0. -1.
         11    1    3    3    0    0 -0.11775382797E+00  0.23960087598E+01 -0.53164383024E+01  0.58326015143E+01  0.51100000000E-03 0. -1.
        -11    1    3    3    0    0 -0.22055661491E+02 -0.11662023102E+02  0.14934517726E+02  0.29077393394E+02  0.51100000000E-03 0.  1.
         12    1    3    3    0    0 -0.11130635944E+02 -0.10671388934E+02  0.24858611234E+01  0.15618870120E+02  0.00000000000E+00 0. -1.
</event>
<event>
 7    1  0.6136531E-013  0.5052886E+02  0.7816164E-02  0.1300439E+00
        -11   -1    0    0    0    0  0.00000000000E+00  0.00000000000E+00  0.45593999997E+02  0.45594000000E+02  0.51100000000E-03 0.  1.
         11   -1    0    0    0    0 -0.00000000000E+00 -0.00000000000E+00 -0.45593999997E+02  0.45594000000E+02  0.51100000000E-03 0. -1.
    9900012    2    1    2    0    0 -0.27274760923E+02 -0.95390512722E+01  0.28605242059E+02  0.50528856430E+02  0.29999989605E+02 0.  0.
         12    1    1    2    0    0  0.27274760923E+02  0.95390512722E+01 -0.28605242059E+02  0.40659143570E+02  0.00000000000E+00 0. -1.
         11    1    3    3    0    0 -0.94808082597E+00  0.72659152799E+01  0.95279498932E+01  0.12019742574E+02  0.51100000000E-03 0.  1.
        -11    1    3    3    0    0 -0.25050331543E+02 -0.11215626309E+02  0.13816143508E+02  0.30727759528E+02  0.51100000000E-03 0. -1.
         12    1    3    3    0    0 -0.12763485544E+01 -0.55893402432E+01  0.52611486583E+01  0.77813543289E+01  0.00000000000E+00 0. -1.
</event>
<event>
 7    1  0.6136531E-013  0.5052886E+02  0.7816164E-02  0.1300439E+00
        -11   -1    0    0    0    0  0.00000000000E+00  0.00000000000E+00  0.45593999997E+02  0.45594000000E+02  0.51100000000E-03 0.  1.
         11   -1    0    0    0    0 -0.00000000000E+00 -0.00000000000E+00 -0.45593999997E+02  0.45594000000E+02  0.51100000000E-03 0. -1.
    9900012    2    1    2    0    0 -0.20363064629E+02 -0.45743300503E+01  0.34893933273E+02  0.50528862334E+02  0.30000007550E+02 0.  0.
         12    1    1    2    0    0  0.20363064629E+02  0.45743300503E+01 -0.34893933273E+02  0.40659137666E+02  0.00000000000E+00 0. -1.
         11    1    3    3    0    0  0.11766450881E+01  0.44235271228E+01  0.22685514746E+02  0.23142702207E+02  0.51100000000E-03 0. -1.
        -11    1    3    3    0    0 -0.18456191809E+02 -0.10311696541E+02  0.10921630154E+02  0.23795884248E+02  0.51100000000E-03 0.  1.
         12    1    3    3    0    0 -0.30835179078E+01  0.13138393678E+01  0.12867883734E+01  0.35902758794E+01  0.00000000000E+00 0. -1.
</event>
<event>
 7    1  0.6136531E-013  0.5052886E+02  0.7816164E-02  0.1300439E+00
        -11   -1    0    0    0    0  0.00000000000E+00  0.00000000000E+00  0.45593999997E+02  0.45594000000E+02  0.51100000000E-03 0. -1.
         11   -1    0    0    0    0 -0.00000000000E+00 -0.00000000000E+00 -0.45593999997E+02  0.45594000000E+02  0.51100000000E-03 0.  1.
    9900012    2    1    2    0    0 -0.20498567634E+02 -0.17262469398E+02 -0.30577473554E+02  0.50528855718E+02  0.29999987441E+02 0.  0.
         12    1    1    2    0    0  0.20498567634E+02  0.17262469398E+02  0.30577473554E+02  0.40659144282E+02  0.00000000000E+00 0. -1.
         11    1    3    3    0    0 -0.20498391146E+00 -0.13853047354E+02 -0.48371401187E+01  0.14674701502E+02  0.51100000000E-03 0. -1.
        -11    1    3    3    0    0  0.10995135750E+01 -0.32515602582E+01 -0.23745868304E+01  0.41737557536E+01  0.51100000000E-03 0.  1.
         12    1    3    3    0    0 -0.21393097298E+02 -0.15786178629E+00 -0.23365746605E+02  0.31680398463E+02  0.00000000000E+00 0. -1.
</event>
<event>
 7    1  0.6136531E-013  0.5052882E+02  0.7816164E-02  0.1300439E+00
        -11   -1    0    0    0    0  0.00000000000E+00  0.00000000000E+00  0.45593999997E+02  0.45594000000E+02  0.51100000000E-03 0.  1.
         11   -1    0    0    0    0 -0.00000000000E+00 -0.00000000000E+00 -0.45593999997E+02  0.45594000000E+02  0.51100000000E-03 0. -1.
    9900012    2    1    2    0    0 -0.35200692098E+02 -0.46015315492E+01  0.19821857675E+02  0.50528820735E+02  0.29999881107E+02 0.  0.
         12    1    1    2    0    0  0.35200692098E+02  0.46015315492E+01 -0.19821857675E+02  0.40659179265E+02  0.00000000000E+00 0. -1.
         11    1    3    3    0    0 -0.27694303189E+00 -0.80030547065E+00  0.80325862439E+01  0.80771051940E+01  0.51100000000E-03 0. -1.
        -11    1    3    3    0    0 -0.23699969216E+02 -0.11517353246E+02  0.36957578592E+01  0.26608205371E+02  0.51100000000E-03 0.  1.
        -12    1    3    3    0    0 -0.11223779850E+02  0.77161271672E+01  0.80935135722E+01  0.15843510170E+02  0.00000000000E+00 0.  1.
</event>
<event>
 7    1  0.6136531E-013  0.5052887E+02  0.7816164E-02  0.1300439E+00
        -11   -1    0    0    0    0  0.00000000000E+00  0.00000000000E+00  0.45593999997E+02  0.45594000000E+02  0.51100000000E-03 0. -1.
         11   -1    0    0    0    0 -0.00000000000E+00 -0.00000000000E+00 -0.45593999997E+02  0.45594000000E+02  0.51100000000E-03 0.  1.
    9900012    2    1    2    0    0 -0.14902905636E+02  0.19649832114E+02 -0.32325728867E+02  0.50528865168E+02  0.30000016164E+02 0.  0.
         12    1    1    2    0    0  0.14902905636E+02 -0.19649832114E+02  0.32325728867E+02  0.40659134832E+02  0.00000000000E+00 0. -1.
         11    1    3    3    0    0 -0.10067348826E+02  0.10340332950E+02 -0.38366896906E+01  0.14932989853E+02  0.51100000000E-03 0. -1.
        -11    1    3    3    0    0 -0.84858824539E+00 -0.46583927982E+01 -0.15156833102E+02  0.15879241651E+02  0.51100000000E-03 0.  1.
        -12    1    3    3    0    0 -0.39869685644E+01  0.13967891963E+02 -0.13332206075E+02  0.19716633664E+02  0.00000000000E+00 0.  1.
</event>
<event>
 7    1  0.6136531E-013  0.5052886E+02  0.7816164E-02  0.1300439E+00
        -11   -1    0    0    0    0  0.00000000000E+00  0.00000000000E+00  0.45593999997E+02  0.45594000000E+02  0.51100000000E-03 0.  1.
         11   -1    0    0    0    0 -0.00000000000E+00 -0.00000000000E+00 -0.45593999997E+02  0.45594000000E+02  0.51100000000E-03 0. -1.
    9900012    2    1    2    0    0 -0.23273076784E+02 -0.20711603680E+02  0.26125828778E+02  0.50528861306E+02  0.30000004426E+02 0.  0.
         12    1    1    2    0    0  0.23273076784E+02  0.20711603680E+02 -0.26125828778E+02  0.40659138694E+02  0.00000000000E+00 0. -1.
         11    1    3    3    0    0 -0.19814630390E+02 -0.22806163404E+02  0.16638735756E+02  0.34490407283E+02  0.51100000000E-03 0.  1.
        -11    1    3    3    0    0  0.41423648586E+01  0.18094165331E+01  0.63870659869E+01  0.78248186557E+01  0.51100000000E-03 0. -1.
         12    1    3    3    0    0 -0.76008112525E+01  0.28514319107E+00  0.31000270357E+01  0.82136353679E+01  0.00000000000E+00 0. -1.
</event>
<event>
 7    1  0.6136531E-013  0.5052885E+02  0.7816164E-02  0.1300439E+00
        -11   -1    0    0    0    0  0.00000000000E+00  0.00000000000E+00  0.45593999997E+02  0.45594000000E+02  0.51100000000E-03 0.  1.
         11   -1    0    0    0    0 -0.00000000000E+00 -0.00000000000E+00 -0.45593999997E+02  0.45594000000E+02  0.51100000000E-03 0. -1.
    9900012    2    1    2    0    0 -0.29384151609E+02 -0.16909074427E+02  0.22445962034E+02  0.50528851271E+02  0.29999973922E+02 0.  0.
         12    1    1    2    0    0  0.29384151609E+02  0.16909074427E+02 -0.22445962034E+02  0.40659148729E+02  0.00000000000E+00 0. -1.
         11    1    3    3    0    0 -0.12348672893E+01 -0.94004917454E+00 -0.48021520193E+01  0.50467072385E+01  0.51100000000E-03 0. -1.
        -11    1    3    3    0    0 -0.17218996874E+02 -0.18413565312E+02  0.18481397216E+02  0.31258843295E+02  0.51100000000E-03 0.  1.
         12    1    3    3    0    0 -0.10930287446E+02  0.24445400593E+01  0.87667168378E+01  0.14223300737E+02  0.00000000000E+00 0. -1.
</event>
<event>
 7    1  0.6136531E-013  0.5052886E+02  0.7816164E-02  0.1300439E+00
        -11   -1    0    0    0    0  0.00000000000E+00  0.00000000000E+00  0.45593999997E+02  0.45594000000E+02  0.51100000000E-03 0.  1.
         11   -1    0    0    0    0 -0.00000000000E+00 -0.00000000000E+00 -0.45593999997E+02  0.45594000000E+02  0.51100000000E-03 0. -1.
    9900012    2    1    2    0    0  0.26616802397E+02  0.45023655821E+01  0.30404604903E+02  0.50528862466E+02  0.30000007953E+02 0.  0.
         12    1    1    2    0    0 -0.26616802397E+02 -0.45023655821E+01 -0.30404604903E+02  0.40659137534E+02  0.00000000000E+00 0. -1.
         11    1    3    3    0    0 -0.42559532411E+01  0.26359366731E+01 -0.41175140278E+00  0.50230309191E+01  0.51100000000E-03 0. -1.
        -11    1    3    3    0    0  0.24073027103E+02  0.21376766579E+01  0.30190033786E+02  0.38671933436E+02  0.51100000000E-03 0.  1.
        -12    1    3    3    0    0  0.67997285360E+01 -0.27124774891E+00  0.62632251926E+00  0.68338981118E+01  0.00000000000E+00 0.  1.
</event>
<event>
 7    1  0.6136531E-013  0.5052889E+02  0.7816164E-02  0.1300439E+00
        -11   -1    0    0    0    0  0.00000000000E+00  0.00000000000E+00  0.45593999997E+02  0.45594000000E+02  0.51100000000E-03 0.  1.
         11   -1    0    0    0    0 -0.00000000000E+00 -0.00000000000E+00 -0.45593999997E+02  0.45594000000E+02  0.51100000000E-03 0. -1.
    9900012    2    1    2    0    0 -0.23412888652E+02 -0.31997746585E+02  0.90079854171E+01  0.50528893483E+02  0.30000102230E+02 0.  0.
         12    1    1    2    0    0  0.23412888652E+02  0.31997746585E+02 -0.90079854171E+01  0.40659106517E+02  0.00000000000E+00 0. -1.
         11    1    3    3    0    0  0.25667387893E+01 -0.14560809624E+02  0.19543771194E+01  0.14913916826E+02  0.51100000000E-03 0. -1.
        -11    1    3    3    0    0 -0.19390163643E+02 -0.12405980142E+02  0.12001762389E+02  0.25960144262E+02  0.51100000000E-03 0.  1.
         12    1    3    3    0    0 -0.65894637978E+01 -0.50309568183E+01 -0.49481540910E+01  0.96548323941E+01  0.00000000000E+00 0. -1.
</event>
<event>
 7    1  0.6136531E-013  0.5052890E+02  0.7816164E-02  0.1300439E+00
        -11   -1    0    0    0    0  0.00000000000E+00  0.00000000000E+00  0.45593999997E+02  0.45594000000E+02  0.51100000000E-03 0.  1.
         11   -1    0    0    0    0 -0.00000000000E+00 -0.00000000000E+00 -0.45593999997E+02  0.45594000000E+02  0.51100000000E-03 0. -1.
    9900012    2    1    2    0    0  0.84382722924E+01 -0.14230963522E+02  0.37140782049E+02  0.50528899502E+02  0.30000120527E+02 0.  0.
         12    1    1    2    0    0 -0.84382722924E+01  0.14230963522E+02 -0.37140782049E+02  0.40659100498E+02  0.00000000000E+00 0. -1.
         11    1    3    3    0    0 -0.94728971450E+00  0.62167032514E+01  0.16521214020E+02  0.17677535747E+02  0.51100000000E-03 0. -1.
        -11    1    3    3    0    0  0.68312108014E+01 -0.11062833303E+02  0.40148332315E+01  0.13607740733E+02  0.51100000000E-03 0.  1.
        -12    1    3    3    0    0  0.25543512055E+01 -0.93848334702E+01  0.16604734798E+02  0.19243623023E+02  0.00000000000E+00 0.  1.
</event>
<event>
 7    1  0.6136531E-013  0.5052883E+02  0.7816164E-02  0.1300439E+00
        -11   -1    0    0    0    0  0.00000000000E+00  0.00000000000E+00  0.45593999997E+02  0.45594000000E+02  0.51100000000E-03 0.  1.
         11   -1    0    0    0    0 -0.00000000000E+00 -0.00000000000E+00 -0.45593999997E+02  0.45594000000E+02  0.51100000000E-03 0. -1.
    9900012    2    1    2    0    0  0.18487445304E+02 -0.33292999951E+02  0.14246347810E+02  0.50528832454E+02  0.29999916726E+02 0.  0.
         12    1    1    2    0    0 -0.18487445304E+02  0.33292999951E+02 -0.14246347810E+02  0.40659167546E+02  0.00000000000E+00 0. -1.
         11    1    3    3    0    0  0.13019224989E+02 -0.22132154868E+02  0.13069745000E+01  0.25710711407E+02  0.51100000000E-03 0.  1.
        -11    1    3    3    0    0  0.23259200374E+01  0.41164297345E+00  0.12602418979E+02  0.12821868754E+02  0.51100000000E-03 0. -1.
         12    1    3    3    0    0  0.31423002774E+01 -0.11572488056E+02  0.33695433024E+00  0.11996252293E+02  0.00000000000E+00 0. -1.
</event>
<event>
 7    1  0.6136531E-013  0.5052886E+02  0.7816164E-02  0.1300439E+00
        -11   -1    0    0    0    0  0.00000000000E+00  0.00000000000E+00  0.45593999997E+02  0.45594000000E+02  0.51100000000E-03 0.  1.
         11   -1    0    0    0    0 -0.00000000000E+00 -0.00000000000E+00 -0.45593999997E+02  0.45594000000E+02  0.51100000000E-03 0. -1.
    9900012    2    1    2    0    0 -0.34990913782E+01  0.40427477785E+02 -0.25575407725E+01  0.50528860617E+02  0.30000002332E+02 0.  0.
         12    1    1    2    0    0  0.34990913782E+01 -0.40427477785E+02  0.25575407725E+01  0.40659139383E+02  0.00000000000E+00 0. -1.
         11    1    3    3    0    0 -0.16283269932E+01  0.94535014285E+01 -0.11810872969E+02  0.15215678053E+02  0.51100000000E-03 0. -1.
        -11    1    3    3    0    0  0.56189576760E+01  0.19108430220E+02  0.69412995967E+01  0.21092331099E+02  0.51100000000E-03 0.  1.
         12    1    3    3    0    0 -0.74897220609E+01  0.11865546137E+02  0.23120325995E+01  0.14220851466E+02  0.00000000000E+00 0. -1.
</event>
<event>
 7    1  0.6136531E-013  0.5052888E+02  0.7816164E-02  0.1300439E+00
        -11   -1    0    0    0    0  0.00000000000E+00  0.00000000000E+00  0.45593999997E+02  0.45594000000E+02  0.51100000000E-03 0. -1.
         11   -1    0    0    0    0 -0.00000000000E+00 -0.00000000000E+00 -0.45593999997E+02  0.45594000000E+02  0.51100000000E-03 0.  1.
    9900012    2    1    2    0    0  0.62730420862E+01  0.39625175974E+02 -0.66074753028E+01  0.50528876081E+02  0.30000049337E+02 0.  0.
         12    1    1    2    0    0 -0.62730420862E+01 -0.39625175974E+02  0.66074753028E+01  0.40659123919E+02  0.00000000000E+00 0. -1.
         11    1    3    3    0    0 -0.11777382060E+01  0.15463741211E+02  0.13191232068E+01  0.15564525236E+02  0.51100000000E-03 0. -1.
        -11    1    3    3    0    0  0.37664141283E+01 -0.19154357621E+01 -0.75194222040E+01  0.86253394187E+01  0.51100000000E-03 0.  1.
        -12    1    3    3    0    0  0.36843661640E+01  0.26076870525E+02 -0.40717630561E+00  0.26339011427E+02  0.00000000000E+00 0.  1.
</event>
<event>
 7    1  0.6136531E-013  0.5052887E+02  0.7816164E-02  0.1300439E+00
        -11   -1    0    0    0    0  0.00000000000E+00  0.00000000000E+00  0.45593999997E+02  0.45594000000E+02  0.51100000000E-03 0.  1.
         11   -1    0    0    0    0 -0.00000000000E+00 -0.00000000000E+00 -0.45593999997E+02  0.45594000000E+02  0.51100000000E-03 0. -1.
    9900012    2    1    2    0    0  0.30330270954E+02 -0.24622594148E+02  0.11267983091E+02  0.50528869147E+02  0.30000028260E+02 0.  0.
         12    1    1    2    0    0 -0.30330270954E+02  0.24622594148E+02 -0.11267983091E+02  0.40659130853E+02  0.00000000000E+00 0. -1.
         11    1    3    3    0    0 -0.19877795331E+01  0.36994304301E+01 -0.17622470786E+01  0.45544009492E+01  0.51100000000E-03 0. -1.
        -11    1    3    3    0    0  0.68494112034E+01 -0.53551458599E+01 -0.13282463880E+01  0.87952407439E+01  0.51100000000E-03 0.  1.
         12    1    3    3    0    0  0.25468639284E+02 -0.22966878718E+02  0.14358476558E+02  0.37179227454E+02  0.00000000000E+00 0. -1.
</event>
<event>
 7    1  0.6136531E-013  0.5052887E+02  0.7816164E-02  0.1300439E+00
        -11   -1    0    0    0    0  0.00000000000E+00  0.00000000000E+00  0.45593999997E+02  0.45594000000E+02  0.51100000000E-03 0.  1.
         11   -1    0    0    0    0 -0.00000000000E+00 -0.00000000000E+00 -0.45593999997E+02  0.45594000000E+02  0.51100000000E-03 0. -1.
    9900012    2    1    2    0    0  0.20110531631E+02  0.14628837181E+02  0.32167193027E+02  0.50528872279E+02  0.30000037781E+02 0.  0.
         12    1    1    2    0    0 -0.20110531631E+02 -0.14628837181E+02 -0.32167193027E+02  0.40659127721E+02  0.00000000000E+00 0. -1.
         11    1    3    3    0    0  0.34232870285E+01  0.65164136718E+01  0.27905697745E+01  0.78720912818E+01  0.51100000000E-03 0. -1.
        -11    1    3    3    0    0  0.22969690511E+02  0.43329738228E+01  0.24436740258E+02  0.33816203498E+02  0.51100000000E-03 0.  1.
        -12    1    3    3    0    0 -0.62824459085E+01  0.37794496861E+01  0.49398829944E+01  0.88405774993E+01  0.00000000000E+00 0.  1.
</event>
<event>
 7    1  0.6136531E-013  0.5052887E+02  0.7816164E-02  0.1300439E+00
        -11   -1    0    0    0    0  0.00000000000E+00  0.00000000000E+00  0.45593999997E+02  0.45594000000E+02  0.51100000000E-03 0.  1.
         11   -1    0    0    0    0 -0.00000000000E+00 -0.00000000000E+00 -0.45593999997E+02  0.45594000000E+02  0.51100000000E-03 0. -1.
    9900012    2    1    2    0    0  0.85054000024E+00  0.38641318446E+02  0.12621007604E+02  0.50528871351E+02  0.30000034958E+02 0.  0.
         12    1    1    2    0    0 -0.85054000024E+00 -0.38641318446E+02 -0.12621007604E+02  0.40659128649E+02  0.00000000000E+00 0. -1.
         11    1    3    3    0    0 -0.11267159197E+01 -0.20103824792E+01 -0.11078375753E+01  0.25570355552E+01  0.51100000000E-03 0. -1.
        -11    1    3    3    0    0 -0.78188492837E+01  0.31710180627E+02  0.88269707542E+01  0.33831721394E+02  0.51100000000E-03 0.  1.
        -12    1    3    3    0    0  0.97961052037E+01  0.89415202987E+01  0.49018744255E+01  0.14140114402E+02  0.00000000000E+00 0.  1.
</event>
<event>
 7    1  0.6136531E-013  0.5052883E+02  0.7816164E-02  0.1300439E+00
        -11   -1    0    0    0    0  0.00000000000E+00  0.00000000000E+00  0.45593999997E+02  0.45594000000E+02  0.51100000000E-03 0.  1.
         11   -1    0    0    0    0 -0.00000000000E+00 -0.00000000000E+00 -0.45593999997E+02  0.45594000000E+02  0.51100000000E-03 0. -1.
    9900012    2    1    2    0    0 -0.58094314743E+01 -0.20066668093E+02  0.34881911786E+02  0.50528825977E+02  0.29999897040E+02 0.  0.
         12    1    1    2    0    0  0.58094314743E+01  0.20066668093E+02 -0.34881911786E+02  0.40659174023E+02  0.00000000000E+00 0. -1.
         11    1    3    3    0    0  0.40637382989E+01  0.29462000205E+01 -0.88453991975E+00  0.50967121415E+01  0.51100000000E-03 0. -1.
        -11    1    3    3    0    0 -0.99084657144E+01 -0.23949698118E+02  0.36096816648E+02  0.44438113204E+02  0.51100000000E-03 0.  1.
        -12    1    3    3    0    0  0.35295941285E-01  0.93683000473E+00 -0.33036494245E+00  0.99400063200E+00  0.00000000000E+00 0.  1.
</event>
<event>
 7    1  0.6136531E-013  0.5052886E+02  0.7816164E-02  0.1300439E+00
        -11   -1    0    0    0    0  0.00000000000E+00  0.00000000000E+00  0.45593999997E+02  0.45594000000E+02  0.51100000000E-03 0.  1.
         11   -1    0    0    0    0 -0.00000000000E+00 -0.00000000000E+00 -0.45593999997E+02  0.45594000000E+02  0.51100000000E-03 0. -1.
    9900012    2    1    2    0    0 -0.49833987317E+01 -0.12021067411E+02  0.38520448311E+02  0.50528864954E+02  0.30000015515E+02 0.  0.
         12    1    1    2    0    0  0.49833987317E+01  0.12021067411E+02 -0.38520448311E+02  0.40659135046E+02  0.00000000000E+00 0. -1.
         11    1    3    3    0    0  0.77041941803E+01  0.17914179709E+01  0.27493827689E+01  0.83739412576E+01  0.51100000000E-03 0. -1.
        -11    1    3    3    0    0 -0.98765026974E+01 -0.14280897756E+02  0.35198348707E+02  0.39248096746E+02  0.51100000000E-03 0.  1.
         12    1    3    3    0    0 -0.28110902146E+01  0.46841237327E+00  0.57271683446E+00  0.29068269502E+01  0.00000000000E+00 0. -1.
</event>
<event>
 7    1  0.6136531E-013  0.5052886E+02  0.7816164E-02  0.1300439E+00
        -11   -1    0    0    0    0  0.00000000000E+00  0.00000000000E+00  0.45593999997E+02  0.45594000000E+02  0.51100000000E-03 0. -1.
         11   -1    0    0    0    0 -0.00000000000E+00 -0.00000000000E+00 -0.45593999997E+02  0.45594000000E+02  0.51100000000E-03 0.  1.
    9900012    2    1    2    0    0 -0.15111212002E+02  0.37307220758E+02 -0.57435677674E+01  0.50528855647E+02  0.29999987224E+02 0.  0.
         12    1    1    2    0    0  0.15111212002E+02 -0.37307220758E+02  0.57435677674E+01  0.40659144353E+02  0.00000000000E+00 0. -1.
         11    1    3    3    0    0  0.37094001519E+01  0.17468037114E+02 -0.11783329639E+02  0.21394831800E+02  0.51100000000E-03 0.  1.
        -11    1    3    3    0    0 -0.43652639353E+01  0.35296312514E+01  0.46617304332E+01  0.72969553163E+01  0.51100000000E-03 0. -1.
         12    1    3    3    0    0 -0.14455348218E+02  0.16309552393E+02  0.13780314386E+01  0.21837068530E+02  0.00000000000E+00 0. -1.
</event>
<event>
 7    1  0.6136531E-013  0.5052885E+02  0.7816164E-02  0.1300439E+00
        -11   -1    0    0    0    0  0.00000000000E+00  0.00000000000E+00  0.45593999997E+02  0.45594000000E+02  0.51100000000E-03 0.  1.
         11   -1    0    0    0    0 -0.00000000000E+00 -0.00000000000E+00 -0.45593999997E+02  0.45594000000E+02  0.51100000000E-03 0. -1.
    9900012    2    1    2    0    0  0.36407080473E+02 -0.15363661733E+01  0.18036915668E+02  0.50528852734E+02  0.29999978371E+02 0.  0.
         12    1    1    2    0    0 -0.36407080473E+02  0.15363661733E+01 -0.18036915668E+02  0.40659147266E+02  0.00000000000E+00 0. -1.
         11    1    3    3    0    0  0.21165576842E+01 -0.41212017853E+01  0.96678080722E+01  0.10720570590E+02  0.51100000000E-03 0. -1.
        -11    1    3    3    0    0  0.57238498003E+01  0.24928321302E+01 -0.52536846612E+01  0.81595264168E+01  0.51100000000E-03 0.  1.
        -12    1    3    3    0    0  0.28566672988E+02  0.92003481798E-01  0.13622792257E+02  0.31648755728E+02  0.00000000000E+00 0.  1.
</event>
<event>
 7    1  0.6136531E-013  0.5052888E+02  0.7816164E-02  0.1300439E+00
        -11   -1    0    0    0    0  0.00000000000E+00  0.00000000000E+00  0.45593999997E+02  0.45594000000E+02  0.51100000000E-03 0. -1.
         11   -1    0    0    0    0 -0.00000000000E+00 -0.00000000000E+00 -0.45593999997E+02  0.45594000000E+02  0.51100000000E-03 0.  1.
    9900012    2    1    2    0    0 -0.33910021263E+02  0.13759705402E+02 -0.17718497821E+02  0.50528878024E+02  0.30000055242E+02 0.  0.
         12    1    1    2    0    0  0.33910021263E+02 -0.13759705402E+02  0.17718497821E+02  0.40659121976E+02  0.00000000000E+00 0. -1.
         11    1    3    3    0    0 -0.84781981610E+01  0.24846528942E+01  0.20689076155E+01  0.90737932004E+01  0.51100000000E-03 0. -1.
        -11    1    3    3    0    0 -0.24026971143E+01  0.13104796860E+02 -0.69890354593E+01  0.15045107879E+02  0.51100000000E-03 0.  1.
        -12    1    3    3    0    0 -0.23029125988E+02 -0.18297443526E+01 -0.12798369977E+02  0.26409976945E+02  0.00000000000E+00 0.  1.
</event>
<event>
 7    1  0.6136531E-013  0.5052886E+02  0.7816164E-02  0.1300439E+00
        -11   -1    0    0    0    0  0.00000000000E+00  0.00000000000E+00  0.45593999997E+02  0.45594000000E+02  0.51100000000E-03 0.  1.
         11   -1    0    0    0    0 -0.00000000000E+00 -0.00000000000E+00 -0.45593999997E+02  0.45594000000E+02  0.51100000000E-03 0. -1.
    9900012    2    1    2    0    0  0.18398214959E+01 -0.39993706301E+02 -0.70911364825E+01  0.50528859534E+02  0.29999999040E+02 0.  0.
         12    1    1    2    0    0 -0.18398214959E+01  0.39993706301E+02  0.70911364825E+01  0.40659140466E+02  0.00000000000E+00 0. -1.
         11    1    3    3    0    0 -0.26433547876E+01 -0.81774384627E+01  0.83857053214E+01  0.12007409310E+02  0.51100000000E-03 0. -1.
        -11    1    3    3    0    0  0.71195336241E+01 -0.30633092013E+02 -0.11249793428E+02  0.33401076895E+02  0.51100000000E-03 0.  1.
         12    1    3    3    0    0 -0.26363573406E+01 -0.11831758250E+01 -0.42270483754E+01  0.51203733290E+01  0.00000000000E+00 0. -1.
</event>
<event>
 7    1  0.6136531E-013  0.5052885E+02  0.7816164E-02  0.1300439E+00
        -11   -1    0    0    0    0  0.00000000000E+00  0.00000000000E+00  0.45593999997E+02  0.45594000000E+02  0.51100000000E-03 0. -1.
         11   -1    0    0    0    0 -0.00000000000E+00 -0.00000000000E+00 -0.45593999997E+02  0.45594000000E+02  0.51100000000E-03 0.  1.
    9900012    2    1    2    0    0  0.73727734333E+01 -0.38447457746E+02 -0.10981863496E+02  0.50528854398E+02  0.29999983428E+02 0.  0.
         12    1    1    2    0    0 -0.73727734333E+01  0.38447457746E+02  0.10981863496E+02  0.40659145602E+02  0.00000000000E+00 0. -1.
         11    1    3    3    0    0  0.50229784513E+01 -0.27571422112E+01 -0.35297835959E+01  0.67298973388E+01  0.51100000000E-03 0. -1.
        -11    1    3    3    0    0 -0.98219211508E+01 -0.74640392441E+01 -0.89538197475E+00  0.12368659025E+02  0.51100000000E-03 0.  1.
        -12    1    3    3    0    0  0.12171716133E+02 -0.28226276291E+02 -0.65566979255E+01  0.31430298035E+02  0.00000000000E+00 0.  1.
</event>
<event>
 7    1  0.6136531E-013  0.5052886E+02  0.7816164E-02  0.1300439E+00
        -11   -1    0    0    0    0  0.00000000000E+00  0.00000000000E+00  0.45593999997E+02  0.45594000000E+02  0.51100000000E-03 0.  1.
         11   -1    0    0    0    0 -0.00000000000E+00 -0.00000000000E+00 -0.45593999997E+02  0.45594000000E+02  0.51100000000E-03 0. -1.
    9900012    2    1    2    0    0  0.25951673875E+02  0.13453863269E+02  0.28260750806E+02  0.50528857733E+02  0.29999993564E+02 0.  0.
         12    1    1    2    0    0 -0.25951673875E+02 -0.13453863269E+02 -0.28260750806E+02  0.40659142267E+02  0.00000000000E+00 0. -1.
         11    1    3    3    0    0  0.28545326898E+01 -0.26268371369E+01  0.11997252973E+02  0.12608834576E+02  0.51100000000E-03 0. -1.
        -11    1    3    3    0    0  0.16989021365E+02  0.14273453301E+02  0.19760930625E+01  0.22276967032E+02  0.51100000000E-03 0.  1.
        -12    1    3    3    0    0  0.61081198204E+01  0.18072471053E+01  0.14287404770E+02  0.15643056125E+02  0.00000000000E+00 0.  1.
</event>
<event>
 7    1  0.6136531E-013  0.5052886E+02  0.7816164E-02  0.1300439E+00
        -11   -1    0    0    0    0  0.00000000000E+00  0.00000000000E+00  0.45593999997E+02  0.45594000000E+02  0.51100000000E-03 0.  1.
         11   -1    0    0    0    0 -0.00000000000E+00 -0.00000000000E+00 -0.45593999997E+02  0.45594000000E+02  0.51100000000E-03 0. -1.
    9900012    2    1    2    0    0  0.29813242452E+02  0.27442193396E+02  0.33559600340E+01  0.50528857466E+02  0.29999992753E+02 0.  0.
         12    1    1    2    0    0 -0.29813242452E+02 -0.27442193396E+02 -0.33559600340E+01  0.40659142534E+02  0.00000000000E+00 0. -1.
         11    1    3    3    0    0  0.24795360196E+02  0.22749568604E+02 -0.69681726653E+01  0.34364344741E+02  0.51100000000E-03 0. -1.
        -11    1    3    3    0    0  0.19144743083E+01  0.74246972272E+01  0.41074394726E+01  0.86984136528E+01  0.51100000000E-03 0.  1.
         12    1    3    3    0    0  0.31034079479E+01 -0.27320724356E+01  0.62166932267E+01  0.74660990724E+01  0.00000000000E+00 0. -1.
</event>
<event>
 7    1  0.6136531E-013  0.5052886E+02  0.7816164E-02  0.1300439E+00
        -11   -1    0    0    0    0  0.00000000000E+00  0.00000000000E+00  0.45593999997E+02  0.45594000000E+02  0.51100000000E-03 0. -1.
         11   -1    0    0    0    0 -0.00000000000E+00 -0.00000000000E+00 -0.45593999997E+02  0.45594000000E+02  0.51100000000E-03 0.  1.
    9900012    2    1    2    0    0  0.60885263532E+01  0.34110958904E+02 -0.21272945015E+02  0.50528857607E+02  0.29999993183E+02 0.  0.
         12    1    1    2    0    0 -0.60885263532E+01 -0.34110958904E+02  0.21272945015E+02  0.40659142393E+02  0.00000000000E+00 0. -1.
         11    1    3    3    0    0  0.73264744895E+01  0.22056178171E+01  0.18184345529E+00  0.76534335892E+01  0.51100000000E-03 0. -1.
        -11    1    3    3    0    0 -0.36572025241E+01  0.30996424380E+02 -0.12612938295E+02  0.33663625285E+02  0.51100000000E-03 0.  1.
        -12    1    3    3    0    0  0.24192543878E+01  0.90891670681E+00 -0.88418501754E+01  0.92117987330E+01  0.00000000000E+00 0.  1.
</event>
<event>
 7    1  0.6136531E-013  0.5052886E+02  0.7816164E-02  0.1300439E+00
        -11   -1    0    0    0    0  0.00000000000E+00  0.00000000000E+00  0.45593999997E+02  0.45594000000E+02  0.51100000000E-03 0.  1.
         11   -1    0    0    0    0 -0.00000000000E+00 -0.00000000000E+00 -0.45593999997E+02  0.45594000000E+02  0.51100000000E-03 0. -1.
    9900012    2    1    2    0    0  0.36654955783E+02 -0.12834826313E+02  0.12035233785E+02  0.50528863238E+02  0.30000010299E+02 0.  0.
         12    1    1    2    0    0 -0.36654955783E+02  0.12834826313E+02 -0.12035233785E+02  0.40659136762E+02  0.00000000000E+00 0. -1.
         11    1    3    3    0    0  0.42314622482E+01 -0.90123172418E+01 -0.48698834731E+01  0.11083451634E+02  0.51100000000E-03 0. -1.
        -11    1    3    3    0    0  0.32539182573E+02 -0.23698677621E+01  0.12725985460E+02  0.35019500023E+02  0.51100000000E-03 0.  1.
        -12    1    3    3    0    0 -0.11568903755E+00 -0.14526413087E+01  0.41791317990E+01  0.44259115805E+01  0.00000000000E+00 0.  1.
</event>
<event>
 7    1  0.6136531E-013  0.5052886E+02  0.7816164E-02  0.1300439E+00
        -11   -1    0    0    0    0  0.00000000000E+00  0.00000000000E+00  0.45593999997E+02  0.45594000000E+02  0.51100000000E-03 0. -1.
         11   -1    0    0    0    0 -0.00000000000E+00 -0.00000000000E+00 -0.45593999997E+02  0.45594000000E+02  0.51100000000E-03 0.  1.
    9900012    2    1    2    0    0  0.65688072378E+01  0.40030078261E+02 -0.27584213814E+01  0.50528864708E+02  0.30000014768E+02 0.  0.
         12    1    1    2    0    0 -0.65688072378E+01 -0.40030078261E+02  0.27584213814E+01  0.40659135292E+02  0.00000000000E+00 0. -1.
         11    1    3    3    0    0  0.14550644083E+01  0.29884393341E+01 -0.35988610725E+01  0.48989573754E+01  0.51100000000E-03 0. -1.
        -11    1    3    3    0    0  0.12907491632E+02  0.23726994004E+02  0.86183343594E+01  0.28352235751E+02  0.51100000000E-03 0.  1.
        -12    1    3    3    0    0 -0.77937488022E+01  0.13314644923E+02 -0.77778946684E+01  0.17277671582E+02  0.00000000000E+00 0.  1.
</event>
<event>
 7    1  0.6136531E-013  0.5052886E+02  0.7816164E-02  0.1300439E+00
        -11   -1    0    0    0    0  0.00000000000E+00  0.00000000000E+00  0.45593999997E+02  0.45594000000E+02  0.51100000000E-03 0.  1.
         11   -1    0    0    0    0 -0.00000000000E+00 -0.00000000000E+00 -0.45593999997E+02  0.45594000000E+02  0.51100000000E-03 0. -1.
    9900012    2    1    2    0    0 -0.63447577755E+01  0.16324290526E+02  0.36693698935E+02  0.50528856454E+02  0.29999989677E+02 0.  0.
         12    1    1    2    0    0  0.63447577755E+01 -0.16324290526E+02 -0.36693698935E+02  0.40659143546E+02  0.00000000000E+00 0. -1.
         11    1    3    3    0    0 -0.15824338586E+02  0.14641636588E+02  0.14341188788E+02  0.25893182690E+02  0.51100000000E-03 0.  1.
        -11    1    3    3    0    0  0.79567153934E+01  0.89360010922E-01  0.15280910421E+02  0.17228567225E+02  0.51100000000E-03 0. -1.
        -12    1    3    3    0    0  0.15228654170E+01  0.15932939264E+01  0.70715997250E+01  0.74071065393E+01  0.00000000000E+00 0.  1.
</event>
<event>
 7    1  0.6136531E-013  0.5052886E+02  0.7816164E-02  0.1300439E+00
        -11   -1    0    0    0    0  0.00000000000E+00  0.00000000000E+00  0.45593999997E+02  0.45594000000E+02  0.51100000000E-03 0. -1.
         11   -1    0    0    0    0 -0.00000000000E+00 -0.00000000000E+00 -0.45593999997E+02  0.45594000000E+02  0.51100000000E-03 0.  1.
    9900012    2    1    2    0    0 -0.32882293882E+02  0.22523974592E+02  0.80368613984E+01  0.50528858057E+02  0.29999994551E+02 0.  0.
         12    1    1    2    0    0  0.32882293882E+02 -0.22523974592E+02 -0.80368613984E+01  0.40659141943E+02  0.00000000000E+00 0. -1.
         11    1    3    3    0    0 -0.17707762361E+02  0.69442206420E+01 -0.74984072847E+01  0.20445370141E+02  0.51100000000E-03 0. -1.
        -11    1    3    3    0    0 -0.16053087339E+02  0.82596101809E+01  0.13148990261E+02  0.22334249900E+02  0.51100000000E-03 0.  1.
        -12    1    3    3    0    0  0.87855581720E+00  0.73201437689E+01  0.23862784218E+01  0.77492380159E+01  0.00000000000E+00 0.  1.
</event>
<event>
 7    1  0.6136531E-013  0.5052886E+02  0.7816164E-02  0.1300439E+00
        -11   -1    0    0    0    0  0.00000000000E+00  0.00000000000E+00  0.45593999997E+02  0.45594000000E+02  0.51100000000E-03 0.  1.
         11   -1    0    0    0    0 -0.00000000000E+00 -0.00000000000E+00 -0.45593999997E+02  0.45594000000E+02  0.51100000000E-03 0. -1.
    9900012    2    1    2    0    0 -0.34149342650E+01 -0.38063344797E+02  0.13881116218E+02  0.50528863503E+02  0.30000011104E+02 0.  0.
         12    1    1    2    0    0  0.34149342650E+01  0.38063344797E+02 -0.13881116218E+02  0.40659136497E+02  0.00000000000E+00 0. -1.
         11    1    3    3    0    0 -0.54056723673E+01 -0.18860352709E+02 -0.11363320729E+01  0.19652619390E+02  0.51100000000E-03 0. -1.
        -11    1    3    3    0    0  0.22610328802E+01 -0.55397102769E+01  0.16091736628E+02  0.17168128832E+02  0.51100000000E-03 0.  1.
        -12    1    3    3    0    0 -0.27029477787E+00 -0.13663281811E+02 -0.10742883367E+01  0.13708115281E+02  0.00000000000E+00 0.  1.
</event>
<event>
 7    1  0.6136531E-013  0.5052887E+02  0.7816164E-02  0.1300439E+00
        -11   -1    0    0    0    0  0.00000000000E+00  0.00000000000E+00  0.45593999997E+02  0.45594000000E+02  0.51100000000E-03 0.  1.
         11   -1    0    0    0    0 -0.00000000000E+00 -0.00000000000E+00 -0.45593999997E+02  0.45594000000E+02  0.51100000000E-03 0. -1.
    9900012    2    1    2    0    0 -0.37305931256E+02  0.21518329733E+01  0.16025043932E+02  0.50528869106E+02  0.30000028136E+02 0.  0.
         12    1    1    2    0    0  0.37305931256E+02 -0.21518329733E+01 -0.16025043932E+02  0.40659130894E+02  0.00000000000E+00 0. -1.
         11    1    3    3    0    0  0.11022996155E+01  0.16182128739E+01  0.11237882786E+02  0.11407177000E+02  0.51100000000E-03 0. -1.
        -11    1    3    3    0    0 -0.23590891416E+02  0.27176820154E+01  0.43220920610E+01  0.24137034478E+02  0.51100000000E-03 0.  1.
         12    1    3    3    0    0 -0.14817339455E+02 -0.21840619159E+01  0.46506908546E+00  0.14984657628E+02  0.00000000000E+00 0. -1.
</event>
<event>
 7    1  0.6136531E-013  0.5052886E+02  0.7816164E-02  0.1300439E+00
        -11   -1    0    0    0    0  0.00000000000E+00  0.00000000000E+00  0.45593999997E+02  0.45594000000E+02  0.51100000000E-03 0. -1.
         11   -1    0    0    0    0 -0.00000000000E+00 -0.00000000000E+00 -0.45593999997E+02  0.45594000000E+02  0.51100000000E-03 0.  1.
    9900012    2    1    2    0    0  0.27176235819E+02 -0.10372745537E+02 -0.28408171869E+02  0.50528857458E+02  0.29999992730E+02 0.  0.
         12    1    1    2    0    0 -0.27176235819E+02  0.10372745537E+02  0.28408171869E+02  0.40659142542E+02  0.00000000000E+00 0. -1.
         11    1    3    3    0    0  0.91067471101E+01 -0.10167657239E+02 -0.70754434006E+01  0.15374524261E+02  0.51100000000E-03 0. -1.
        -11    1    3    3    0    0  0.27864996579E+01  0.40421658153E+01  0.32574905193E+01  0.58919376750E+01  0.51100000000E-03 0.  1.
        -12    1    3    3    0    0  0.15282989051E+02 -0.42472541130E+01 -0.24590218988E+02  0.29262395523E+02  0.00000000000E+00 0.  1.
</event>
<event>
 7    1  0.6136531E-013  0.5052885E+02  0.7816164E-02  0.1300439E+00
        -11   -1    0    0    0    0  0.00000000000E+00  0.00000000000E+00  0.45593999997E+02  0.45594000000E+02  0.51100000000E-03 0. -1.
         11   -1    0    0    0    0 -0.00000000000E+00 -0.00000000000E+00 -0.45593999997E+02  0.45594000000E+02  0.51100000000E-03 0.  1.
    9900012    2    1    2    0    0  0.21375846093E+02 -0.12437613248E+02 -0.32272983409E+02  0.50528850014E+02  0.29999970102E+02 0.  0.
         12    1    1    2    0    0 -0.21375846093E+02  0.12437613248E+02  0.32272983409E+02  0.40659149986E+02  0.00000000000E+00 0. -1.
         11    1    3    3    0    0  0.60173388807E+01 -0.52416189948E+00  0.47182367318E+01  0.76645202733E+01  0.51100000000E-03 0. -1.
        -11    1    3    3    0    0  0.12106755900E+02 -0.75598734753E+01 -0.33477744050E+02  0.36393468814E+02  0.51100000000E-03 0.  1.
        -12    1    3    3    0    0  0.32517513116E+01 -0.43535778727E+01 -0.35134760908E+01  0.64708609262E+01  0.00000000000E+00 0.  1.
</event>
<event>
 7    1  0.6136531E-013  0.5052886E+02  0.7816164E-02  0.1300439E+00
        -11   -1    0    0    0    0  0.00000000000E+00  0.00000000000E+00  0.45593999997E+02  0.45594000000E+02  0.51100000000E-03 0.  1.
         11   -1    0    0    0    0 -0.00000000000E+00 -0.00000000000E+00 -0.45593999997E+02  0.45594000000E+02  0.51100000000E-03 0. -1.
    9900012    2    1    2    0    0  0.20816543483E+02 -0.32284139536E+02  0.13325583759E+02  0.50528864117E+02  0.30000012971E+02 0.  0.
         12    1    1    2    0    0 -0.20816543483E+02  0.32284139536E+02 -0.13325583759E+02  0.40659135883E+02  0.00000000000E+00 0. -1.
         11    1    3    3    0    0  0.12590738765E+02 -0.94730766615E+00 -0.67969732969E+00  0.12644606881E+02  0.51100000000E-03 0. -1.
        -11    1    3    3    0    0  0.15635651743E+01 -0.23435340066E+02  0.14384065081E+02  0.27541990280E+02  0.51100000000E-03 0.  1.
        -12    1    3    3    0    0  0.66622395440E+01 -0.79014918043E+01 -0.37878399213E+00  0.10342266956E+02  0.00000000000E+00 0.  1.
</event>
<event>
 7    1  0.6136531E-013  0.5052886E+02  0.7816164E-02  0.1300439E+00
        -11   -1    0    0    0    0  0.00000000000E+00  0.00000000000E+00  0.45593999997E+02  0.45594000000E+02  0.51100000000E-03 0.  1.
         11   -1    0    0    0    0 -0.00000000000E+00 -0.00000000000E+00 -0.45593999997E+02  0.45594000000E+02  0.51100000000E-03 0. -1.
    9900012    2    1    2    0    0  0.23048572699E+02 -0.26642782078E+02  0.20300026412E+02  0.50528860651E+02  0.30000002434E+02 0.  0.
         12    1    1    2    0    0 -0.23048572699E+02  0.26642782078E+02 -0.20300026412E+02  0.40659139349E+02  0.00000000000E+00 0. -1.
         11    1    3    3    0    0  0.67472051727E+00 -0.17656952660E+02  0.18525117949E+02  0.25600844133E+02  0.51100000000E-03 0. -1.
        -11    1    3    3    0    0  0.90164377047E+01 -0.39762603837E+01  0.37139698638E+01  0.10530924363E+02  0.51100000000E-03 0.  1.
         12    1    3    3    0    0  0.13357414477E+02 -0.50095690349E+01 -0.19390614014E+01  0.14397092155E+02  0.00000000000E+00 0. -1.
</event>
<event>
 7    1  0.6136531E-013  0.5052888E+02  0.7816164E-02  0.1300439E+00
        -11   -1    0    0    0    0  0.00000000000E+00  0.00000000000E+00  0.45593999997E+02  0.45594000000E+02  0.51100000000E-03 0. -1.
         11   -1    0    0    0    0 -0.00000000000E+00 -0.00000000000E+00 -0.45593999997E+02  0.45594000000E+02  0.51100000000E-03 0.  1.
    9900012    2    1    2    0    0 -0.18132002102E+02 -0.17239490008E+02 -0.32049873044E+02  0.50528881981E+02  0.30000067269E+02 0.  0.
         12    1    1    2    0    0  0.18132002102E+02  0.17239490008E+02  0.32049873044E+02  0.40659118019E+02  0.00000000000E+00 0. -1.
         11    1    3    3    0    0  0.14368454685E+01 -0.17006683449E+02 -0.21405683484E+02  0.27376908016E+02  0.51100000000E-03 0. -1.
        -11    1    3    3    0    0 -0.80534996068E+01 -0.83948585112E+00 -0.78700700129E+01  0.11291660404E+02  0.51100000000E-03 0.  1.
         12    1    3    3    0    0 -0.11515347964E+02  0.60667929220E+00 -0.27741195466E+01  0.11860313560E+02  0.00000000000E+00 0. -1.
</event>
<event>
 7    1  0.6136531E-013  0.5052886E+02  0.7816164E-02  0.1300439E+00
        -11   -1    0    0    0    0  0.00000000000E+00  0.00000000000E+00  0.45593999997E+02  0.45594000000E+02  0.51100000000E-03 0.  1.
         11   -1    0    0    0    0 -0.00000000000E+00 -0.00000000000E+00 -0.45593999997E+02  0.45594000000E+02  0.51100000000E-03 0. -1.
    9900012    2    1    2    0    0  0.21353195015E+01 -0.28207278565E+02  0.29205395227E+02  0.50528864940E+02  0.30000015472E+02 0.  0.
         12    1    1    2    0    0 -0.21353195015E+01  0.28207278565E+02 -0.29205395227E+02  0.40659135060E+02  0.00000000000E+00 0. -1.
         11    1    3    3    0    0 -0.93030507994E+01 -0.84047822745E+01  0.20230882668E+01  0.12699606516E+02  0.51100000000E-03 0. -1.
        -11    1    3    3    0    0  0.60547683464E+00 -0.13516385408E+02  0.16728734892E+02  0.21515339831E+02  0.51100000000E-03 0.  1.
         12    1    3    3    0    0  0.10832893466E+02 -0.62861108823E+01  0.10453572069E+02  0.16313918593E+02  0.00000000000E+00 0. -1.
</event>
<event>
 7    1  0.6136531E-013  0.5052886E+02  0.7816164E-02  0.1300439E+00
        -11   -1    0    0    0    0  0.00000000000E+00  0.00000000000E+00  0.45593999997E+02  0.45594000000E+02  0.51100000000E-03 0.  1.
         11   -1    0    0    0    0 -0.00000000000E+00 -0.00000000000E+00 -0.45593999997E+02  0.45594000000E+02  0.51100000000E-03 0. -1.
    9900012    2    1    2    0    0  0.36518888576E+02 -0.89023374381E+01  0.15501117202E+02  0.50528862415E+02  0.30000007796E+02 0.  0.
         12    1    1    2    0    0 -0.36518888576E+02  0.89023374381E+01 -0.15501117202E+02  0.40659137585E+02  0.00000000000E+00 0. -1.
         11    1    3    3    0    0  0.30828477971E+01 -0.72423794396E+01 -0.61154005281E+01  0.99676544065E+01  0.51100000000E-03 0. -1.
        -11    1    3    3    0    0  0.26053371902E+02  0.14738561541E+01  0.18351372020E+02  0.31901775730E+02  0.51100000000E-03 0.  1.
         12    1    3    3    0    0  0.73826688767E+01 -0.31338141526E+01  0.32651457097E+01  0.86594322788E+01  0.00000000000E+00 0. -1.
</event>
<event>
 7    1  0.6136531E-013  0.5052885E+02  0.7816164E-02  0.1300439E+00
        -11   -1    0    0    0    0  0.00000000000E+00  0.00000000000E+00  0.45593999997E+02  0.45594000000E+02  0.51100000000E-03 0.  1.
         11   -1    0    0    0    0 -0.00000000000E+00 -0.00000000000E+00 -0.45593999997E+02  0.45594000000E+02  0.51100000000E-03 0. -1.
    9900012    2    1    2    0    0  0.14890811427E+02 -0.21678844834E+02  0.31007383423E+02  0.50528850906E+02  0.29999972814E+02 0.  0.
         12    1    1    2    0    0 -0.14890811427E+02  0.21678844834E+02 -0.31007383423E+02  0.40659149094E+02  0.00000000000E+00 0. -1.
         11    1    3    3    0    0  0.87177798799E+01  0.50630496689E+01  0.50945798337E+01  0.11295525748E+02  0.51100000000E-03 0. -1.
        -11    1    3    3    0    0  0.14396385269E+01 -0.22566056500E+02  0.16898137352E+02  0.28228469871E+02  0.51100000000E-03 0.  1.
         12    1    3    3    0    0  0.47333930206E+01 -0.41758380034E+01  0.90146662374E+01  0.11004855287E+02  0.00000000000E+00 0. -1.
</event>
<event>
 7    1  0.6136531E-013  0.5052886E+02  0.7816164E-02  0.1300439E+00
        -11   -1    0    0    0    0  0.00000000000E+00  0.00000000000E+00  0.45593999997E+02  0.45594000000E+02  0.51100000000E-03 0. -1.
         11   -1    0    0    0    0 -0.00000000000E+00 -0.00000000000E+00 -0.45593999997E+02  0.45594000000E+02  0.51100000000E-03 0.  1.
    9900012    2    1    2    0    0 -0.19531929990E+02 -0.18240891587E+02 -0.30642114549E+02  0.50528860818E+02  0.30000002941E+02 0.  0.
         12    1    1    2    0    0  0.19531929990E+02  0.18240891587E+02  0.30642114549E+02  0.40659139182E+02  0.00000000000E+00 0. -1.
         11    1    3    3    0    0 -0.67555227384E+01 -0.14998861376E+02 -0.22161427472E+01  0.16598620996E+02  0.51100000000E-03 0. -1.
        -11    1    3    3    0    0 -0.13000865320E+02  0.17105130735E+01 -0.16957395679E+02  0.21435988956E+02  0.51100000000E-03 0.  1.
         12    1    3    3    0    0  0.22445806836E+00 -0.49525432846E+01 -0.11468576122E+02  0.12494250865E+02  0.00000000000E+00 0. -1.
</event>
<event>
 7    1  0.6136531E-013  0.5052886E+02  0.7816164E-02  0.1300439E+00
        -11   -1    0    0    0    0  0.00000000000E+00  0.00000000000E+00  0.45593999997E+02  0.45594000000E+02  0.51100000000E-03 0. -1.
         11   -1    0    0    0    0 -0.00000000000E+00 -0.00000000000E+00 -0.45593999997E+02  0.45594000000E+02  0.51100000000E-03 0.  1.
    9900012    2    1    2    0    0  0.34347328931E+01  0.21310610503E+02 -0.34456146195E+02  0.50528861782E+02  0.30000005873E+02 0.  0.
         12    1    1    2    0    0 -0.34347328931E+01 -0.21310610503E+02  0.34456146195E+02  0.40659138218E+02  0.00000000000E+00 0. -1.
         11    1    3    3    0    0 -0.10761032814E+02  0.62888552203E+01 -0.40104312827E+01  0.13093245836E+02  0.51100000000E-03 0. -1.
        -11    1    3    3    0    0  0.74504644722E+01  0.12544740529E+02 -0.20826582112E+02  0.25428850908E+02  0.51100000000E-03 0.  1.
         12    1    3    3    0    0  0.67453012347E+01  0.24770147537E+01 -0.96191328003E+01  0.12006765038E+02  0.00000000000E+00 0. -1.
</event>
<event>
 7    1  0.6136531E-013  0.5052886E+02  0.7816164E-02  0.1300439E+00
        -11   -1    0    0    0    0  0.00000000000E+00  0.00000000000E+00  0.45593999997E+02  0.45594000000E+02  0.51100000000E-03 0.  1.
         11   -1    0    0    0    0 -0.00000000000E+00 -0.00000000000E+00 -0.45593999997E+02  0.45594000000E+02  0.51100000000E-03 0. -1.
    9900012    2    1    2    0    0  0.30295164422E+02 -0.95934397871E+01  0.25364037872E+02  0.50528862140E+02  0.30000006962E+02 0.  0.
         12    1    1    2    0    0 -0.30295164422E+02  0.95934397871E+01 -0.25364037872E+02  0.40659137860E+02  0.00000000000E+00 0. -1.
         11    1    3    3    0    0  0.21192407955E+02  0.22603978188E-01  0.68310864626E+01  0.22266171839E+02  0.51100000000E-03 0. -1.
        -11    1    3    3    0    0  0.60180531582E+01 -0.68702434676E+01  0.21378349393E+02  0.23247602718E+02  0.51100000000E-03 0.  1.
         12    1    3    3    0    0  0.30847033091E+01 -0.27458002977E+01 -0.28453979835E+01  0.50150875829E+01  0.00000000000E+00 0. -1.
</event>
<event>
 7    1  0.6136531E-013  0.5052886E+02  0.7816164E-02  0.1300439E+00
        -11   -1    0    0    0    0  0.00000000000E+00  0.00000000000E+00  0.45593999997E+02  0.45594000000E+02  0.51100000000E-03 0. -1.
         11   -1    0    0    0    0 -0.00000000000E+00 -0.00000000000E+00 -0.45593999997E+02  0.45594000000E+02  0.51100000000E-03 0.  1.
    9900012    2    1    2    0    0 -0.25717487402E+02 -0.22615804024E+02 -0.21915792583E+02  0.50528859398E+02  0.29999998627E+02 0.  0.
         12    1    1    2    0    0  0.25717487402E+02  0.22615804024E+02  0.21915792583E+02  0.40659140602E+02  0.00000000000E+00 0. -1.
         11    1    3    3    0    0  0.12081484962E+01  0.23317327520E+01 -0.10874067480E+02  0.11186686025E+02  0.51100000000E-03 0. -1.
        -11    1    3    3    0    0 -0.25528322119E+02 -0.20875619468E+02 -0.11691835777E+02  0.34988365816E+02  0.51100000000E-03 0.  1.
         12    1    3    3    0    0 -0.13973137798E+01 -0.40719173072E+01  0.65011067313E+00  0.43538075570E+01  0.00000000000E+00 0. -1.
</event>
<event>
 7    1  0.6136531E-013  0.5052886E+02  0.7816164E-02  0.1300439E+00
        -11   -1    0    0    0    0  0.00000000000E+00  0.00000000000E+00  0.45593999997E+02  0.45594000000E+02  0.51100000000E-03 0. -1.
         11   -1    0    0    0    0 -0.00000000000E+00 -0.00000000000E+00 -0.45593999997E+02  0.45594000000E+02  0.51100000000E-03 0.  1.
    9900012    2    1    2    0    0  0.11940336115E+02  0.84805331913E+01 -0.37929865035E+02  0.50528859191E+02  0.29999997998E+02 0.  0.
         12    1    1    2    0    0 -0.11940336115E+02 -0.84805331913E+01  0.37929865035E+02  0.40659140809E+02  0.00000000000E+00 0. -1.
         11    1    3    3    0    0 -0.81916778640E+00  0.15827412905E+02 -0.10337503342E+02  0.18921998064E+02  0.51100000000E-03 0. -1.
        -11    1    3    3    0    0  0.30041685936E+01 -0.33373720363E+01 -0.53080600478E+01  0.69525953988E+01  0.51100000000E-03 0.  1.
         12    1    3    3    0    0  0.97553353077E+01 -0.40095076778E+01 -0.22284301645E+02  0.24654265728E+02  0.00000000000E+00 0. -1.
</event>
<event>
 7    1  0.6136531E-013  0.5052885E+02  0.7816164E-02  0.1300439E+00
        -11   -1    0    0    0    0  0.00000000000E+00  0.00000000000E+00  0.45593999997E+02  0.45594000000E+02  0.51100000000E-03 0. -1.
         11   -1    0    0    0    0 -0.00000000000E+00 -0.00000000000E+00 -0.45593999997E+02  0.45594000000E+02  0.51100000000E-03 0.  1.
    9900012    2    1    2    0    0  0.32569538493E+02 -0.21406580615E+01 -0.24244772444E+02  0.50528852869E+02  0.29999978780E+02 0.  0.
         12    1    1    2    0    0 -0.32569538493E+02  0.21406580615E+01  0.24244772444E+02  0.40659147131E+02  0.00000000000E+00 0. -1.
         11    1    3    3    0    0 -0.78273359048E+00  0.19533724132E+01 -0.35511648087E+01  0.41278453723E+01  0.51100000000E-03 0. -1.
        -11    1    3    3    0    0  0.37286765062E+02 -0.31378934831E+01 -0.17884242087E+02  0.41472826521E+02  0.51100000000E-03 0.  1.
        -12    1    3    3    0    0 -0.39344929788E+01 -0.95613699162E+00 -0.28093655481E+01  0.49281809758E+01  0.00000000000E+00 0.  1.
</event>
<event>
 7    1  0.6136531E-013  0.5052887E+02  0.7816164E-02  0.1300439E+00
        -11   -1    0    0    0    0  0.00000000000E+00  0.00000000000E+00  0.45593999997E+02  0.45594000000E+02  0.51100000000E-03 0.  1.
         11   -1    0    0    0    0 -0.00000000000E+00 -0.00000000000E+00 -0.45593999997E+02  0.45594000000E+02  0.51100000000E-03 0. -1.
    9900012    2    1    2    0    0  0.25597914076E+01 -0.10874189204E+02  0.39094296404E+02  0.50528873912E+02  0.30000042743E+02 0.  0.
         12    1    1    2    0    0 -0.25597914076E+01  0.10874189204E+02 -0.39094296404E+02  0.40659126088E+02  0.00000000000E+00 0. -1.
         11    1    3    3    0    0  0.52175232314E+01 -0.43250008785E+01 -0.88030724233E+00  0.68339682740E+01  0.51100000000E-03 0. -1.
        -11    1    3    3    0    0 -0.21382096048E+01 -0.95447244909E+01  0.39406169158E+02  0.40601968842E+02  0.51100000000E-03 0.  1.
        -12    1    3    3    0    0 -0.51952221894E+00  0.29955361654E+01  0.56843448874E+00  0.30929367957E+01  0.00000000000E+00 0.  1.
</event>
<event>
 7    1  0.6136531E-013  0.5052886E+02  0.7816164E-02  0.1300439E+00
        -11   -1    0    0    0    0  0.00000000000E+00  0.00000000000E+00  0.45593999997E+02  0.45594000000E+02  0.51100000000E-03 0.  1.
         11   -1    0    0    0    0 -0.00000000000E+00 -0.00000000000E+00 -0.45593999997E+02  0.45594000000E+02  0.51100000000E-03 0. -1.
    9900012    2    1    2    0    0 -0.31029344063E+02 -0.47995503569E+01  0.25832342957E+02  0.50528858110E+02  0.29999994711E+02 0.  0.
         12    1    1    2    0    0  0.31029344063E+02  0.47995503569E+01 -0.25832342957E+02  0.40659141890E+02  0.00000000000E+00 0. -1.
         11    1    3    3    0    0 -0.80882615104E+01 -0.27830763928E+01  0.55642853355E+01  0.10204252056E+02  0.51100000000E-03 0. -1.
        -11    1    3    3    0    0 -0.71205641371E+01 -0.32425790400E+00 -0.61969002435E+01  0.94450595396E+01  0.51100000000E-03 0.  1.
        -12    1    3    3    0    0 -0.15820518415E+02 -0.16922160601E+01  0.26464957865E+02  0.30879546514E+02  0.00000000000E+00 0.  1.
</event>
<event>
 7    1  0.6136531E-013  0.5052886E+02  0.7816164E-02  0.1300439E+00
        -11   -1    0    0    0    0  0.00000000000E+00  0.00000000000E+00  0.45593999997E+02  0.45594000000E+02  0.51100000000E-03 0.  1.
         11   -1    0    0    0    0 -0.00000000000E+00 -0.00000000000E+00 -0.45593999997E+02  0.45594000000E+02  0.51100000000E-03 0. -1.
    9900012    2    1    2    0    0  0.21468504744E+02 -0.63244527916E+01  0.33945110791E+02  0.50528856555E+02  0.29999989985E+02 0.  0.
         12    1    1    2    0    0 -0.21468504744E+02  0.63244527916E+01 -0.33945110791E+02  0.40659143445E+02  0.00000000000E+00 0. -1.
         11    1    3    3    0    0  0.12421935865E+02 -0.29846810967E+01  0.21508513318E+01  0.12955268179E+02  0.51100000000E-03 0. -1.
        -11    1    3    3    0    0  0.68425469256E+01 -0.81890135358E+01  0.30174791529E+02  0.32006224945E+02  0.51100000000E-03 0.  1.
         12    1    3    3    0    0  0.22040219537E+01  0.48492418408E+01  0.16194679300E+01  0.55673634316E+01  0.00000000000E+00 0. -1.
</event>
<event>
 7    1  0.6136531E-013  0.5052885E+02  0.7816164E-02  0.1300439E+00
        -11   -1    0    0    0    0  0.00000000000E+00  0.00000000000E+00  0.45593999997E+02  0.45594000000E+02  0.51100000000E-03 0. -1.
         11   -1    0    0    0    0 -0.00000000000E+00 -0.00000000000E+00 -0.45593999997E+02  0.45594000000E+02  0.51100000000E-03 0.  1.
    9900012    2    1    2    0    0 -0.17449113233E+02  0.35748124290E+02  0.84122939658E+01  0.50528848107E+02  0.29999964307E+02 0.  0.
         12    1    1    2    0    0  0.17449113233E+02 -0.35748124290E+02 -0.84122939658E+01  0.40659151893E+02  0.00000000000E+00 0. -1.
         11    1    3    3    0    0 -0.11856262899E+02  0.18047764588E+01  0.93024086312E+00  0.12028862637E+02  0.51100000000E-03 0. -1.
        -11    1    3    3    0    0  0.35847429272E+01  0.21303382568E+02  0.75356925356E+01  0.22879491973E+02  0.51100000000E-03 0.  1.
        -12    1    3    3    0    0 -0.91775932610E+01  0.12639965263E+02 -0.53639432919E-01  0.15620493498E+02  0.00000000000E+00 0.  1.
</event>
<event>
 7    1  0.6136531E-013  0.5052885E+02  0.7816164E-02  0.1300439E+00
        -11   -1    0    0    0    0  0.00000000000E+00  0.00000000000E+00  0.45593999997E+02  0.45594000000E+02  0.51100000000E-03 0.  1.
         11   -1    0    0    0    0 -0.00000000000E+00 -0.00000000000E+00 -0.45593999997E+02  0.45594000000E+02  0.51100000000E-03 0. -1.
    9900012    2    1    2    0    0 -0.89659969974E+01  0.14109544446E+02  0.37063430013E+02  0.50528853539E+02  0.29999980816E+02 0.  0.
         12    1    1    2    0    0  0.89659969974E+01 -0.14109544446E+02 -0.37063430013E+02  0.40659146461E+02  0.00000000000E+00 0. -1.
         11    1    3    3    0    0 -0.19660570377E+01  0.98891073867E+01  0.72981994219E+00  0.10109028766E+02  0.51100000000E-03 0. -1.
        -11    1    3    3    0    0 -0.11214565106E+02  0.36381425257E+01  0.32912008834E+02  0.34960018268E+02  0.51100000000E-03 0.  1.
        -12    1    3    3    0    0  0.42146251460E+01  0.58229453376E+00  0.34216012363E+01  0.54598065044E+01  0.00000000000E+00 0.  1.
</event>
<event>
 7    1  0.6136531E-013  0.5052886E+02  0.7816164E-02  0.1300439E+00
        -11   -1    0    0    0    0  0.00000000000E+00  0.00000000000E+00  0.45593999997E+02  0.45594000000E+02  0.51100000000E-03 0.  1.
         11   -1    0    0    0    0 -0.00000000000E+00 -0.00000000000E+00 -0.45593999997E+02  0.45594000000E+02  0.51100000000E-03 0. -1.
    9900012    2    1    2    0    0  0.27320854510E+01 -0.12824798344E+02  0.38486697320E+02  0.50528860633E+02  0.30000002380E+02 0.  0.
         12    1    1    2    0    0 -0.27320854510E+01  0.12824798344E+02 -0.38486697320E+02  0.40659139367E+02  0.00000000000E+00 0. -1.
         11    1    3    3    0    0 -0.85312903390E+01 -0.46602040112E+01  0.19149805258E+02  0.21475927406E+02  0.51100000000E-03 0. -1.
        -11    1    3    3    0    0  0.13672264958E+02 -0.11278901725E+02  0.16312234258E+02  0.24088035203E+02  0.51100000000E-03 0.  1.
        -12    1    3    3    0    0 -0.24088891679E+01  0.31143073924E+01  0.30246578040E+01  0.49648980240E+01  0.00000000000E+00 0.  1.
</event>
<event>
 7    1  0.6136531E-013  0.5052886E+02  0.7816164E-02  0.1300439E+00
        -11   -1    0    0    0    0  0.00000000000E+00  0.00000000000E+00  0.45593999997E+02  0.45594000000E+02  0.51100000000E-03 0.  1.
         11   -1    0    0    0    0 -0.00000000000E+00 -0.00000000000E+00 -0.45593999997E+02  0.45594000000E+02  0.51100000000E-03 0. -1.
    9900012    2    1    2    0    0  0.10687197626E+02 -0.54405022637E+01  0.38850354929E+02  0.50528864051E+02  0.30000012769E+02 0.  0.
         12    1    1    2    0    0 -0.10687197626E+02  0.54405022637E+01 -0.38850354929E+02  0.40659135949E+02  0.00000000000E+00 0. -1.
         11    1    3    3    0    0  0.32916465413E+01  0.51082643766E+01  0.11395934707E+02  0.12914976965E+02  0.51100000000E-03 0. -1.
        -11    1    3    3    0    0 -0.60363528778E+01 -0.83668583636E+01  0.52616963493E+01  0.11581335142E+02  0.51100000000E-03 0.  1.
        -12    1    3    3    0    0  0.13431903963E+02 -0.21819082766E+01  0.22192723873E+02  0.26032551944E+02  0.00000000000E+00 0.  1.
</event>
<event>
 7    1  0.6136531E-013  0.5052885E+02  0.7816164E-02  0.1300439E+00
        -11   -1    0    0    0    0  0.00000000000E+00  0.00000000000E+00  0.45593999997E+02  0.45594000000E+02  0.51100000000E-03 0.  1.
         11   -1    0    0    0    0 -0.00000000000E+00 -0.00000000000E+00 -0.45593999997E+02  0.45594000000E+02  0.51100000000E-03 0. -1.
    9900012    2    1    2    0    0 -0.35748895309E+02 -0.18002639764E+02 -0.71476049062E+01  0.50528845924E+02  0.29999957669E+02 0.  0.
         12    1    1    2    0    0  0.35748895309E+02  0.18002639764E+02  0.71476049062E+01  0.40659154076E+02  0.00000000000E+00 0. -1.
         11    1    3    3    0    0 -0.44268156566E+01  0.13186147954E+01  0.84794349434E+01  0.96558924527E+01  0.51100000000E-03 0. -1.
        -11    1    3    3    0    0 -0.28815575524E+02 -0.15385326055E+02 -0.11462074640E+02  0.34618272717E+02  0.51100000000E-03 0.  1.
        -12    1    3    3    0    0 -0.25065041291E+01 -0.39359285048E+01 -0.41649652092E+01  0.62546807543E+01  0.00000000000E+00 0.  1.
</event>
<event>
 7    1  0.6136531E-013  0.5052887E+02  0.7816164E-02  0.1300439E+00
        -11   -1    0    0    0    0  0.00000000000E+00  0.00000000000E+00  0.45593999997E+02  0.45594000000E+02  0.51100000000E-03 0.  1.
         11   -1    0    0    0    0 -0.00000000000E+00 -0.00000000000E+00 -0.45593999997E+02  0.45594000000E+02  0.51100000000E-03 0. -1.
    9900012    2    1    2    0    0 -0.27929254183E+01 -0.29793375451E+02  0.27526700803E+02  0.50528869289E+02  0.30000028690E+02 0.  0.
         12    1    1    2    0    0  0.27929254183E+01  0.29793375451E+02 -0.27526700803E+02  0.40659130711E+02  0.00000000000E+00 0. -1.
         11    1    3    3    0    0 -0.11429967082E+02 -0.23425412373E+02  0.25889301681E+02  0.36737583400E+02  0.51100000000E-03 0.  1.
        -11    1    3    3    0    0  0.47520119302E+01 -0.78818072167E+01 -0.26707469527E+00  0.92073791895E+01  0.51100000000E-03 0. -1.
        -12    1    3    3    0    0  0.38850297331E+01  0.15138441387E+01  0.19044738172E+01  0.45839066988E+01  0.00000000000E+00 0.  1.
</event>
<event>
 7    1  0.6136531E-013  0.5052888E+02  0.7816164E-02  0.1300439E+00
        -11   -1    0    0    0    0  0.00000000000E+00  0.00000000000E+00  0.45593999997E+02  0.45594000000E+02  0.51100000000E-03 0. -1.
         11   -1    0    0    0    0 -0.00000000000E+00 -0.00000000000E+00 -0.45593999997E+02  0.45594000000E+02  0.51100000000E-03 0.  1.
    9900012    2    1    2    0    0 -0.23916021938E+02  0.19773526784E+02 -0.26271568460E+02  0.50528883235E+02  0.30000071080E+02 0.  0.
         12    1    1    2    0    0  0.23916021938E+02 -0.19773526784E+02  0.26271568460E+02  0.40659116765E+02  0.00000000000E+00 0. -1.
         11    1    3    3    0    0 -0.11006777042E+02 -0.12510166839E+01  0.28295006874E+01  0.11433296025E+02  0.51100000000E-03 0. -1.
        -11    1    3    3    0    0 -0.97252829194E+01  0.17657396753E+02 -0.17842619014E+02  0.26920695412E+02  0.51100000000E-03 0.  1.
        -12    1    3    3    0    0 -0.31839619764E+01  0.33671467148E+01 -0.11258450134E+02  0.12174891797E+02  0.00000000000E+00 0.  1.
</event>
<event>
 7    1  0.6136531E-013  0.5052885E+02  0.7816164E-02  0.1300439E+00
        -11   -1    0    0    0    0  0.00000000000E+00  0.00000000000E+00  0.45593999997E+02  0.45594000000E+02  0.51100000000E-03 0. -1.
         11   -1    0    0    0    0 -0.00000000000E+00 -0.00000000000E+00 -0.45593999997E+02  0.45594000000E+02  0.51100000000E-03 0.  1.
    9900012    2    1    2    0    0 -0.21862729051E+02  0.19993242777E+02 -0.27847039852E+02  0.50528852114E+02  0.29999976487E+02 0.  0.
         12    1    1    2    0    0  0.21862729051E+02 -0.19993242777E+02  0.27847039852E+02  0.40659147886E+02  0.00000000000E+00 0. -1.
         11    1    3    3    0    0 -0.91646321065E+01 -0.32527686128E+01  0.20208631590E+00  0.97268609754E+01  0.51100000000E-03 0. -1.
        -11    1    3    3    0    0 -0.27456535963E+01  0.18114335264E+02 -0.15654762998E+02  0.24098534406E+02  0.51100000000E-03 0.  1.
        -12    1    3    3    0    0 -0.99524433479E+01  0.51316761264E+01 -0.12394363169E+02  0.16703456733E+02  0.00000000000E+00 0.  1.
</event>
<event>
 7    1  0.6136531E-013  0.5052884E+02  0.7816164E-02  0.1300439E+00
        -11   -1    0    0    0    0  0.00000000000E+00  0.00000000000E+00  0.45593999997E+02  0.45594000000E+02  0.51100000000E-03 0.  1.
         11   -1    0    0    0    0 -0.00000000000E+00 -0.00000000000E+00 -0.45593999997E+02  0.45594000000E+02  0.51100000000E-03 0. -1.
    9900012    2    1    2    0    0  0.25379585508E+02 -0.21955442620E+02  0.22956532940E+02  0.50528840812E+02  0.29999942133E+02 0.  0.
         12    1    1    2    0    0 -0.25379585508E+02  0.21955442620E+02 -0.22956532940E+02  0.40659159188E+02  0.00000000000E+00 0. -1.
         11    1    3    3    0    0  0.30097991008E+02 -0.14314247070E+02  0.14013658423E+02  0.36154797117E+02  0.51100000000E-03 0. -1.
        -11    1    3    3    0    0 -0.43794063388E+01 -0.31210511725E+01  0.81620919023E+01  0.97744516360E+01  0.51100000000E-03 0.  1.
         12    1    3    3    0    0 -0.33899916051E+00 -0.45201443776E+01  0.78078261470E+00  0.45995920598E+01  0.00000000000E+00 0. -1.
</event>
<event>
 7    1  0.6136531E-013  0.5052886E+02  0.7816164E-02  0.1300439E+00
        -11   -1    0    0    0    0  0.00000000000E+00  0.00000000000E+00  0.45593999997E+02  0.45594000000E+02  0.51100000000E-03 0.  1.
         11   -1    0    0    0    0 -0.00000000000E+00 -0.00000000000E+00 -0.45593999997E+02  0.45594000000E+02  0.51100000000E-03 0. -1.
    9900012    2    1    2    0    0 -0.16663651458E+02  0.31031166462E+02  0.20311459064E+02  0.50528856610E+02  0.29999990152E+02 0.  0.
         12    1    1    2    0    0  0.16663651458E+02 -0.31031166462E+02 -0.20311459064E+02  0.40659143390E+02  0.00000000000E+00 0. -1.
         11    1    3    3    0    0 -0.89736431815E+01  0.41724881714E+01  0.10186309610E+01  0.99485445561E+01  0.51100000000E-03 0. -1.
        -11    1    3    3    0    0 -0.95060875630E+01  0.29514271754E+02  0.13220043274E+02  0.33707973573E+02  0.51100000000E-03 0.  1.
        -12    1    3    3    0    0  0.18160792868E+01 -0.26555934641E+01  0.60727848291E+01  0.68723384814E+01  0.00000000000E+00 0.  1.
</event>
<event>
 7    1  0.6136531E-013  0.5052886E+02  0.7816164E-02  0.1300439E+00
        -11   -1    0    0    0    0  0.00000000000E+00  0.00000000000E+00  0.45593999997E+02  0.45594000000E+02  0.51100000000E-03 0. -1.
         11   -1    0    0    0    0 -0.00000000000E+00 -0.00000000000E+00 -0.45593999997E+02  0.45594000000E+02  0.51100000000E-03 0.  1.
    9900012    2    1    2    0    0 -0.25331190171E+02 -0.10545506958E+01 -0.31786545760E+02  0.50528858789E+02  0.29999996776E+02 0.  0.
         12    1    1    2    0    0  0.25331190171E+02  0.10545506958E+01  0.31786545760E+02  0.40659141211E+02  0.00000000000E+00 0. -1.
         11    1    3    3    0    0 -0.12796323190E+02 -0.69631686373E+01 -0.86545095908E+00  0.14593855223E+02  0.51100000000E-03 0. -1.
        -11    1    3    3    0    0 -0.89417044908E+01  0.25726388855E+01 -0.29345200968E+02  0.30784953633E+02  0.51100000000E-03 0.  1.
        -12    1    3    3    0    0 -0.35931624908E+01  0.33359790560E+01 -0.15758938326E+01  0.51500499336E+01  0.00000000000E+00 0.  1.
</event>
<event>
 7    1  0.6136531E-013  0.5052886E+02  0.7816164E-02  0.1300439E+00
        -11   -1    0    0    0    0  0.00000000000E+00  0.00000000000E+00  0.45593999997E+02  0.45594000000E+02  0.51100000000E-03 0. -1.
         11   -1    0    0    0    0 -0.00000000000E+00 -0.00000000000E+00 -0.45593999997E+02  0.45594000000E+02  0.51100000000E-03 0.  1.
    9900012    2    1    2    0    0 -0.58151709010E+01 -0.37741834415E+02 -0.13960775834E+02  0.50528861550E+02  0.30000005166E+02 0.  0.
         12    1    1    2    0    0  0.58151709010E+01  0.37741834415E+02  0.13960775834E+02  0.40659138450E+02  0.00000000000E+00 0. -1.
         11    1    3    3    0    0  0.84302445753E+01 -0.24307918583E+01 -0.58346721155E+01  0.10536658465E+02  0.51100000000E-03 0. -1.
        -11    1    3    3    0    0 -0.11637136895E+02 -0.17177178859E+02 -0.29660528624E+01  0.20958909764E+02  0.51100000000E-03 0.  1.
        -12    1    3    3    0    0 -0.26082785816E+01 -0.18133863698E+02 -0.51600508558E+01  0.19033293320E+02  0.00000000000E+00 0.  1.
</event>
<event>
 7    1  0.6136531E-013  0.5052886E+02  0.7816164E-02  0.1300439E+00
        -11   -1    0    0    0    0  0.00000000000E+00  0.00000000000E+00  0.45593999997E+02  0.45594000000E+02  0.51100000000E-03 0.  1.
         11   -1    0    0    0    0 -0.00000000000E+00 -0.00000000000E+00 -0.45593999997E+02  0.45594000000E+02  0.51100000000E-03 0. -1.
    9900012    2    1    2    0    0 -0.24126267306E+02  0.29779264537E+02  0.13575134026E+02  0.50528860384E+02  0.30000001623E+02 0.  0.
         12    1    1    2    0    0  0.24126267306E+02 -0.29779264537E+02 -0.13575134026E+02  0.40659139616E+02  0.00000000000E+00 0. -1.
         11    1    3    3    0    0 -0.11995940765E+02  0.17404529938E+01  0.14523872415E+02  0.18917574941E+02  0.51100000000E-03 0. -1.
        -11    1    3    3    0    0 -0.85331188420E+01  0.10202652143E+02  0.84683265555E+00  0.13327616206E+02  0.51100000000E-03 0.  1.
         12    1    3    3    0    0 -0.35972076988E+01  0.17836159400E+02 -0.17955710445E+01  0.18283669237E+02  0.00000000000E+00 0. -1.
</event>
<event>
 7    1  0.6136531E-013  0.5052890E+02  0.7816164E-02  0.1300439E+00
        -11   -1    0    0    0    0  0.00000000000E+00  0.00000000000E+00  0.45593999997E+02  0.45594000000E+02  0.51100000000E-03 0.  1.
         11   -1    0    0    0    0 -0.00000000000E+00 -0.00000000000E+00 -0.45593999997E+02  0.45594000000E+02  0.51100000000E-03 0. -1.
    9900012    2    1    2    0    0 -0.34579394236E+02 -0.21385871682E+02  0.26931227745E+00  0.50528898406E+02  0.30000117194E+02 0.  0.
         12    1    1    2    0    0  0.34579394236E+02  0.21385871682E+02 -0.26931227745E+00  0.40659101594E+02  0.00000000000E+00 0. -1.
         11    1    3    3    0    0 -0.11480874106E+02 -0.15555762690E+02 -0.10010390743E+02  0.21771544414E+02  0.51100000000E-03 0.  1.
        -11    1    3    3    0    0 -0.24521591849E+02 -0.61705208047E+01  0.10275486090E+02  0.27294127728E+02  0.51100000000E-03 0. -1.
         12    1    3    3    0    0  0.14230717177E+01  0.34041181290E+00  0.42169301597E-02  0.14632262637E+01  0.00000000000E+00 0. -1.
</event>
<event>
 7    1  0.6136531E-013  0.5052885E+02  0.7816164E-02  0.1300439E+00
        -11   -1    0    0    0    0  0.00000000000E+00  0.00000000000E+00  0.45593999997E+02  0.45594000000E+02  0.51100000000E-03 0.  1.
         11   -1    0    0    0    0 -0.00000000000E+00 -0.00000000000E+00 -0.45593999997E+02  0.45594000000E+02  0.51100000000E-03 0. -1.
    9900012    2    1    2    0    0  0.21829739767E+02 -0.31374958263E+02  0.13865104124E+02  0.50528847812E+02  0.29999963409E+02 0.  0.
         12    1    1    2    0    0 -0.21829739767E+02  0.31374958263E+02 -0.13865104124E+02  0.40659152188E+02  0.00000000000E+00 0. -1.
         11    1    3    3    0    0 -0.49853686917E+00 -0.27395618397E+01 -0.15153556414E+01  0.31701799735E+01  0.51100000000E-03 0. -1.
        -11    1    3    3    0    0  0.10405633296E+02 -0.20387583512E+02 -0.39169589355E+01  0.23222259436E+02  0.51100000000E-03 0.  1.
        -12    1    3    3    0    0  0.11922643340E+02 -0.82478129112E+01  0.19297418701E+02  0.24136408402E+02  0.00000000000E+00 0.  1.
</event>
<event>
 7    1  0.6136531E-013  0.5052886E+02  0.7816164E-02  0.1300439E+00
        -11   -1    0    0    0    0  0.00000000000E+00  0.00000000000E+00  0.45593999997E+02  0.45594000000E+02  0.51100000000E-03 0.  1.
         11   -1    0    0    0    0 -0.00000000000E+00 -0.00000000000E+00 -0.45593999997E+02  0.45594000000E+02  0.51100000000E-03 0. -1.
    9900012    2    1    2    0    0  0.15917906378E+02 -0.34715096022E+02  0.13951625659E+02  0.50528862112E+02  0.30000006876E+02 0.  0.
         12    1    1    2    0    0 -0.15917906378E+02  0.34715096022E+02 -0.13951625659E+02  0.40659137888E+02  0.00000000000E+00 0. -1.
         11    1    3    3    0    0  0.73089707560E+01 -0.15826854538E+02 -0.13391559937E+00  0.17433539850E+02  0.51100000000E-03 0. -1.
        -11    1    3    3    0    0 -0.53994683794E+01  0.85257954510E+00  0.92874489756E+00  0.55447017961E+01  0.51100000000E-03 0.  1.
        -12    1    3    3    0    0  0.14008404001E+02 -0.19740821029E+02  0.13156796361E+02  0.27550620466E+02  0.00000000000E+00 0.  1.
</event>
<event>
 7    1  0.6136531E-013  0.5052886E+02  0.7816164E-02  0.1300439E+00
        -11   -1    0    0    0    0  0.00000000000E+00  0.00000000000E+00  0.45593999997E+02  0.45594000000E+02  0.51100000000E-03 0.  1.
         11   -1    0    0    0    0 -0.00000000000E+00 -0.00000000000E+00 -0.45593999997E+02  0.45594000000E+02  0.51100000000E-03 0. -1.
    9900012    2    1    2    0    0 -0.65416428713E+01 -0.27033707126E+02  0.29657232267E+02  0.50528857877E+02  0.29999994003E+02 0.  0.
         12    1    1    2    0    0  0.65416428713E+01  0.27033707126E+02 -0.29657232267E+02  0.40659142123E+02  0.00000000000E+00 0. -1.
         11    1    3    3    0    0 -0.32214914131E+01 -0.40670733894E+01 -0.53947642804E+01  0.74848229626E+01  0.51100000000E-03 0. -1.
        -11    1    3    3    0    0 -0.33976070257E+01 -0.88886845887E+01  0.21460358936E+02  0.23475507516E+02  0.51100000000E-03 0.  1.
         12    1    3    3    0    0  0.77455567509E-01 -0.14077949148E+02  0.13591637611E+02  0.19568527398E+02  0.00000000000E+00 0. -1.
</event>
<event>
 7    1  0.6136531E-013  0.5052886E+02  0.7816164E-02  0.1300439E+00
        -11   -1    0    0    0    0  0.00000000000E+00  0.00000000000E+00  0.45593999997E+02  0.45594000000E+02  0.51100000000E-03 0. -1.
         11   -1    0    0    0    0 -0.00000000000E+00 -0.00000000000E+00 -0.45593999997E+02  0.45594000000E+02  0.51100000000E-03 0.  1.
    9900012    2    1    2    0    0 -0.38483547388E+02  0.11256429745E+02 -0.67435057165E+01  0.50528862042E+02  0.30000006662E+02 0.  0.
         12    1    1    2    0    0  0.38483547388E+02 -0.11256429745E+02  0.67435057165E+01  0.40659137958E+02  0.00000000000E+00 0. -1.
         11    1    3    3    0    0 -0.52394162197E+01 -0.61346770861E+01 -0.69475156904E+01  0.10646770393E+02  0.51100000000E-03 0. -1.
        -11    1    3    3    0    0 -0.18310635136E+02  0.98789511786E+01 -0.66096770648E+01  0.21830274085E+02  0.51100000000E-03 0.  1.
         12    1    3    3    0    0 -0.14933496032E+02  0.75121556521E+01  0.68136870386E+01  0.18051817563E+02  0.00000000000E+00 0. -1.
</event>
<event>
 7    1  0.6136531E-013  0.5052889E+02  0.7816164E-02  0.1300439E+00
        -11   -1    0    0    0    0  0.00000000000E+00  0.00000000000E+00  0.45593999997E+02  0.45594000000E+02  0.51100000000E-03 0.  1.
         11   -1    0    0    0    0 -0.00000000000E+00 -0.00000000000E+00 -0.45593999997E+02  0.45594000000E+02  0.51100000000E-03 0. -1.
    9900012    2    1    2    0    0 -0.20923688499E+02 -0.31217219178E+02 -0.15519276612E+02  0.50528887120E+02  0.30000082891E+02 0.  0.
         12    1    1    2    0    0  0.20923688499E+02  0.31217219178E+02  0.15519276612E+02  0.40659112880E+02  0.00000000000E+00 0. -1.
         11    1    3    3    0    0 -0.11413617576E+01 -0.45970045311E+01 -0.15227055026E+02  0.15946735163E+02  0.51100000000E-03 0. -1.
        -11    1    3    3    0    0 -0.15975257350E+02 -0.14785254638E+02  0.22809972694E+01  0.21886423895E+02  0.51100000000E-03 0.  1.
         12    1    3    3    0    0 -0.38070693915E+01 -0.11834960008E+02 -0.25732188553E+01  0.12695728062E+02  0.00000000000E+00 0. -1.
</event>
<event>
 7    1  0.6136531E-013  0.5052887E+02  0.7816164E-02  0.1300439E+00
        -11   -1    0    0    0    0  0.00000000000E+00  0.00000000000E+00  0.45593999997E+02  0.45594000000E+02  0.51100000000E-03 0. -1.
         11   -1    0    0    0    0 -0.00000000000E+00 -0.00000000000E+00 -0.45593999997E+02  0.45594000000E+02  0.51100000000E-03 0.  1.
    9900012    2    1    2    0    0 -0.39492939736E+02 -0.91387725834E+01 -0.31552636115E+01  0.50528866441E+02  0.30000020033E+02 0.  0.
         12    1    1    2    0    0  0.39492939736E+02  0.91387725834E+01  0.31552636115E+01  0.40659133559E+02  0.00000000000E+00 0. -1.
         11    1    3    3    0    0 -0.30376130710E+02 -0.35409533893E+01  0.33949790980E+01  0.30769685588E+02  0.51100000000E-03 0. -1.
        -11    1    3    3    0    0 -0.94774764582E+01 -0.10258861481E+02 -0.48614986933E+01  0.14788541805E+02  0.51100000000E-03 0.  1.
         12    1    3    3    0    0  0.36066743194E+00  0.46610422870E+01 -0.16887440162E+01  0.49706390484E+01  0.00000000000E+00 0. -1.
</event>
<event>
 7    1  0.6136531E-013  0.5052887E+02  0.7816164E-02  0.1300439E+00
        -11   -1    0    0    0    0  0.00000000000E+00  0.00000000000E+00  0.45593999997E+02  0.45594000000E+02  0.51100000000E-03 0.  1.
         11   -1    0    0    0    0 -0.00000000000E+00 -0.00000000000E+00 -0.45593999997E+02  0.45594000000E+02  0.51100000000E-03 0. -1.
    9900012    2    1    2    0    0 -0.20811567867E+02 -0.23832455574E+02  0.25535424366E+02  0.50528865807E+02  0.30000018107E+02 0.  0.
         12    1    1    2    0    0  0.20811567867E+02  0.23832455574E+02 -0.25535424366E+02  0.40659134193E+02  0.00000000000E+00 0. -1.
         11    1    3    3    0    0 -0.10411533370E+02 -0.18161533645E+02  0.79326612281E+01  0.22386791773E+02  0.51100000000E-03 0. -1.
        -11    1    3    3    0    0 -0.11704439184E+02 -0.93306367364E+01  0.18842008187E+02  0.24063996993E+02  0.51100000000E-03 0.  1.
         12    1    3    3    0    0  0.13044046867E+01  0.36597148076E+01 -0.12392450491E+01  0.40780770409E+01  0.00000000000E+00 0. -1.
</event>
<event>
 7    1  0.6136531E-013  0.5052886E+02  0.7816164E-02  0.1300439E+00
        -11   -1    0    0    0    0  0.00000000000E+00  0.00000000000E+00  0.45593999997E+02  0.45594000000E+02  0.51100000000E-03 0.  1.
         11   -1    0    0    0    0 -0.00000000000E+00 -0.00000000000E+00 -0.45593999997E+02  0.45594000000E+02  0.51100000000E-03 0. -1.
    9900012    2    1    2    0    0 -0.36952610950E+02 -0.16958437529E+02  0.28524622948E+00  0.50528862959E+02  0.30000009452E+02 0.  0.
         12    1    1    2    0    0  0.36952610950E+02  0.16958437529E+02 -0.28524622948E+00  0.40659137041E+02  0.00000000000E+00 0. -1.
         11    1    3    3    0    0 -0.73607221820E+01  0.64693263571E+00 -0.49633343881E+01  0.89013168343E+01  0.51100000000E-03 0. -1.
        -11    1    3    3    0    0 -0.11810357113E+02 -0.15797694599E+01  0.11841393479E+02  0.16798773957E+02  0.51100000000E-03 0.  1.
        -12    1    3    3    0    0 -0.17781531655E+02 -0.16025600705E+02 -0.65928128611E+01  0.24828772168E+02  0.00000000000E+00 0.  1.
</event>
<event>
 7    1  0.6136531E-013  0.5052885E+02  0.7816164E-02  0.1300439E+00
        -11   -1    0    0    0    0  0.00000000000E+00  0.00000000000E+00  0.45593999997E+02  0.45594000000E+02  0.51100000000E-03 0.  1.
         11   -1    0    0    0    0 -0.00000000000E+00 -0.00000000000E+00 -0.45593999997E+02  0.45594000000E+02  0.51100000000E-03 0. -1.
    9900012    2    1    2    0    0 -0.28596603965E+02  0.28593693296E+02 -0.42191482447E+01  0.50528852609E+02  0.29999977991E+02 0.  0.
         12    1    1    2    0    0  0.28596603965E+02 -0.28593693296E+02  0.42191482447E+01  0.40659147391E+02  0.00000000000E+00 0. -1.
         11    1    3    3    0    0  0.24961200127E+01  0.11222245774E+02  0.50930734850E+01  0.12574132698E+02  0.51100000000E-03 0. -1.
        -11    1    3    3    0    0 -0.67006389407E+01  0.25953659469E+00  0.10382792415E+00  0.67064671741E+01  0.51100000000E-03 0.  1.
         12    1    3    3    0    0 -0.24392085037E+02  0.17111910927E+02 -0.94160496539E+01  0.31248252737E+02  0.00000000000E+00 0. -1.
</event>
<event>
 7    1  0.6136531E-013  0.5052886E+02  0.7816164E-02  0.1300439E+00
        -11   -1    0    0    0    0  0.00000000000E+00  0.00000000000E+00  0.45593999997E+02  0.45594000000E+02  0.51100000000E-03 0. -1.
         11   -1    0    0    0    0 -0.00000000000E+00 -0.00000000000E+00 -0.45593999997E+02  0.45594000000E+02  0.51100000000E-03 0.  1.
    9900012    2    1    2    0    0  0.89747764370E+01  0.12555797786E+02 -0.37616096767E+02  0.50528863190E+02  0.30000010152E+02 0.  0.
         12    1    1    2    0    0 -0.89747764370E+01 -0.12555797786E+02  0.37616096767E+02  0.40659136810E+02  0.00000000000E+00 0. -1.
         11    1    3    3    0    0  0.99637199383E+01  0.88468308268E+01 -0.15732304320E+02  0.20616680872E+02  0.51100000000E-03 0. -1.
        -11    1    3    3    0    0 -0.34201190291E+01 -0.55919725459E+01 -0.62977915172E+00  0.65851342560E+01  0.51100000000E-03 0.  1.
        -12    1    3    3    0    0  0.24311755278E+01  0.93009395052E+01 -0.21254013295E+02  0.23327048062E+02  0.00000000000E+00 0.  1.
</event>
<event>
 7    1  0.6136531E-013  0.5052887E+02  0.7816164E-02  0.1300439E+00
        -11   -1    0    0    0    0  0.00000000000E+00  0.00000000000E+00  0.45593999997E+02  0.45594000000E+02  0.51100000000E-03 0. -1.
         11   -1    0    0    0    0 -0.00000000000E+00 -0.00000000000E+00 -0.45593999997E+02  0.45594000000E+02  0.51100000000E-03 0.  1.
    9900012    2    1    2    0    0 -0.15349528994E+02 -0.36352184227E+02 -0.98018311923E+01  0.50528865317E+02  0.30000016619E+02 0.  0.
         12    1    1    2    0    0  0.15349528994E+02  0.36352184227E+02  0.98018311923E+01  0.40659134683E+02  0.00000000000E+00 0. -1.
         11    1    3    3    0    0 -0.11687276625E+02 -0.37948695194E+02 -0.51932664263E+01  0.40045797761E+02  0.51100000000E-03 0. -1.
        -11    1    3    3    0    0 -0.69973854754E+00  0.47998917218E+01 -0.13430176050E+01  0.50331194228E+01  0.51100000000E-03 0.  1.
        -12    1    3    3    0    0 -0.29625138214E+01 -0.32033807546E+01 -0.32655471610E+01  0.54499481338E+01  0.00000000000E+00 0.  1.
</event>
<event>
 7    1  0.6136531E-013  0.5052891E+02  0.7816164E-02  0.1300439E+00
        -11   -1    0    0    0    0  0.00000000000E+00  0.00000000000E+00  0.45593999997E+02  0.45594000000E+02  0.51100000000E-03 0.  1.
         11   -1    0    0    0    0 -0.00000000000E+00 -0.00000000000E+00 -0.45593999997E+02  0.45594000000E+02  0.51100000000E-03 0. -1.
    9900012    2    1    2    0    0 -0.32100276430E+02  0.78321906258E+01  0.23693689160E+02  0.50528906763E+02  0.30000142595E+02 0.  0.
         12    1    1    2    0    0  0.32100276430E+02 -0.78321906258E+01 -0.23693689160E+02  0.40659093237E+02  0.00000000000E+00 0. -1.
         11    1    3    3    0    0 -0.98036789546E+01 -0.37134090816E+01 -0.49711461811E+01  0.11602319711E+02  0.51100000000E-03 0. -1.
        -11    1    3    3    0    0 -0.12781281214E+02  0.21874357800E+01  0.14944249374E+02  0.19785767975E+02  0.51100000000E-03 0.  1.
         12    1    3    3    0    0 -0.95153162611E+01  0.93581639274E+01  0.13720585968E+02  0.19140819077E+02  0.00000000000E+00 0. -1.
</event>
<event>
 7    1  0.6136531E-013  0.5052886E+02  0.7816164E-02  0.1300439E+00
        -11   -1    0    0    0    0  0.00000000000E+00  0.00000000000E+00  0.45593999997E+02  0.45594000000E+02  0.51100000000E-03 0.  1.
         11   -1    0    0    0    0 -0.00000000000E+00 -0.00000000000E+00 -0.45593999997E+02  0.45594000000E+02  0.51100000000E-03 0. -1.
    9900012    2    1    2    0    0  0.45713873740E+00 -0.35779590434E+02  0.19307443233E+02  0.50528862876E+02  0.30000009198E+02 0.  0.
         12    1    1    2    0    0 -0.45713873740E+00  0.35779590434E+02 -0.19307443233E+02  0.40659137124E+02  0.00000000000E+00 0. -1.
         11    1    3    3    0    0  0.10687783256E+02 -0.10501269216E+02  0.40456424995E+01  0.15520070540E+02  0.51100000000E-03 0. -1.
        -11    1    3    3    0    0 -0.11674378918E+02 -0.25786761591E+02  0.10808360291E+02  0.30299650970E+02  0.51100000000E-03 0.  1.
        -12    1    3    3    0    0  0.14437343991E+01  0.50844037291E+00  0.44534404425E+01  0.47091413658E+01  0.00000000000E+00 0.  1.
</event>
<event>
 7    1  0.6136531E-013  0.5052885E+02  0.7816164E-02  0.1300439E+00
        -11   -1    0    0    0    0  0.00000000000E+00  0.00000000000E+00  0.45593999997E+02  0.45594000000E+02  0.51100000000E-03 0.  1.
         11   -1    0    0    0    0 -0.00000000000E+00 -0.00000000000E+00 -0.45593999997E+02  0.45594000000E+02  0.51100000000E-03 0. -1.
    9900012    2    1    2    0    0 -0.18594181909E+02 -0.31829682593E+02  0.17154997200E+02  0.50528853135E+02  0.29999979590E+02 0.  0.
         12    1    1    2    0    0  0.18594181909E+02  0.31829682593E+02 -0.17154997200E+02  0.40659146865E+02  0.00000000000E+00 0. -1.
         11    1    3    3    0    0 -0.43153646635E+01 -0.48984919199E+01 -0.22760181884E+01  0.69135992307E+01  0.51100000000E-03 0. -1.
        -11    1    3    3    0    0 -0.18736547797E+01 -0.43151665193E+01  0.17077126862E+02  0.17713257929E+02  0.51100000000E-03 0.  1.
        -12    1    3    3    0    0 -0.12405162466E+02 -0.22616024154E+02  0.23538885262E+01  0.25901995976E+02  0.00000000000E+00 0.  1.
</event>
<event>
 7    1  0.6136531E-013  0.5052886E+02  0.7816164E-02  0.1300439E+00
        -11   -1    0    0    0    0  0.00000000000E+00  0.00000000000E+00  0.45593999997E+02  0.45594000000E+02  0.51100000000E-03 0.  1.
         11   -1    0    0    0    0 -0.00000000000E+00 -0.00000000000E+00 -0.45593999997E+02  0.45594000000E+02  0.51100000000E-03 0. -1.
    9900012    2    1    2    0    0 -0.19031390723E+02  0.28236186279E+02  0.22219136375E+02  0.50528855030E+02  0.29999985349E+02 0.  0.
         12    1    1    2    0    0  0.19031390723E+02 -0.28236186279E+02 -0.22219136375E+02  0.40659144970E+02  0.00000000000E+00 0. -1.
         11    1    3    3    0    0  0.17882324564E+01  0.58041770760E+01 -0.58357389206E+01  0.84227130936E+01  0.51100000000E-03 0. -1.
        -11    1    3    3    0    0 -0.92259696255E+01  0.67193766207E+01  0.69950435841E+01  0.13386529524E+02  0.51100000000E-03 0.  1.
         12    1    3    3    0    0 -0.11593653554E+02  0.15712632583E+02  0.21059831711E+02  0.28719612412E+02  0.00000000000E+00 0. -1.
</event>
<event>
 7    1  0.6136531E-013  0.5052886E+02  0.7816164E-02  0.1300439E+00
        -11   -1    0    0    0    0  0.00000000000E+00  0.00000000000E+00  0.45593999997E+02  0.45594000000E+02  0.51100000000E-03 0.  1.
         11   -1    0    0    0    0 -0.00000000000E+00 -0.00000000000E+00 -0.45593999997E+02  0.45594000000E+02  0.51100000000E-03 0. -1.
    9900012    2    1    2    0    0  0.24840523657E+02  0.30374468808E+02  0.10653888821E+02  0.50528864275E+02  0.30000013450E+02 0.  0.
         12    1    1    2    0    0 -0.24840523657E+02 -0.30374468808E+02 -0.10653888821E+02  0.40659135725E+02  0.00000000000E+00 0. -1.
         11    1    3    3    0    0 -0.27175503367E+01  0.11785967447E+02 -0.24982933732E+01  0.12350529484E+02  0.51100000000E-03 0. -1.
        -11    1    3    3    0    0  0.26815575139E+02  0.15183942391E+02  0.77933785899E+01  0.31786222277E+02  0.51100000000E-03 0.  1.
        -12    1    3    3    0    0  0.74249885497E+00  0.34045589702E+01  0.53588036040E+01  0.63921125144E+01  0.00000000000E+00 0.  1.
</event>
<event>
 7    1  0.6136531E-013  0.5052886E+02  0.7816164E-02  0.1300439E+00
        -11   -1    0    0    0    0  0.00000000000E+00  0.00000000000E+00  0.45593999997E+02  0.45594000000E+02  0.51100000000E-03 0.  1.
         11   -1    0    0    0    0 -0.00000000000E+00 -0.00000000000E+00 -0.45593999997E+02  0.45594000000E+02  0.51100000000E-03 0. -1.
    9900012    2    1    2    0    0 -0.28716221677E+01 -0.76187980499E+00  0.40550453017E+02  0.50528856937E+02  0.29999991147E+02 0.  0.
         12    1    1    2    0    0  0.28716221677E+01  0.76187980499E+00 -0.40550453017E+02  0.40659143063E+02  0.00000000000E+00 0. -1.
         11    1    3    3    0    0  0.69702076221E+01  0.65372773096E+01  0.86965695725E+01  0.12920917595E+02  0.51100000000E-03 0. -1.
        -11    1    3    3    0    0 -0.11944732978E+02  0.13137897574E+00  0.15939403013E+02  0.19918797028E+02  0.51100000000E-03 0.  1.
        -12    1    3    3    0    0  0.21029031885E+01 -0.74305360903E+01  0.15914480431E+02  0.17689142314E+02  0.00000000000E+00 0.  1.
</event>
<event>
 7    1  0.6136531E-013  0.5052886E+02  0.7816164E-02  0.1300439E+00
        -11   -1    0    0    0    0  0.00000000000E+00  0.00000000000E+00  0.45593999997E+02  0.45594000000E+02  0.51100000000E-03 0.  1.
         11   -1    0    0    0    0 -0.00000000000E+00 -0.00000000000E+00 -0.45593999997E+02  0.45594000000E+02  0.51100000000E-03 0. -1.
    9900012    2    1    2    0    0 -0.13627589763E+02 -0.57222505899E+01  0.37877570369E+02  0.50528859679E+02  0.29999999481E+02 0.  0.
         12    1    1    2    0    0  0.13627589763E+02  0.57222505899E+01 -0.37877570369E+02  0.40659140321E+02  0.00000000000E+00 0. -1.
         11    1    3    3    0    0 -0.83565714554E+01  0.17495145194E+01  0.24111432149E+01  0.88716796271E+01  0.51100000000E-03 0. -1.
        -11    1    3    3    0    0  0.36458081728E+01  0.50992964808E+01  0.12723656440E+02  0.14184011256E+02  0.51100000000E-03 0.  1.
        -12    1    3    3    0    0 -0.89168264803E+01 -0.12571061590E+02  0.22742770714E+02  0.27473168796E+02  0.00000000000E+00 0.  1.
</event>
<event>
 7    1  0.6136531E-013  0.5052885E+02  0.7816164E-02  0.1300439E+00
        -11   -1    0    0    0    0  0.00000000000E+00  0.00000000000E+00  0.45593999997E+02  0.45594000000E+02  0.51100000000E-03 0.  1.
         11   -1    0    0    0    0 -0.00000000000E+00 -0.00000000000E+00 -0.45593999997E+02  0.45594000000E+02  0.51100000000E-03 0. -1.
    9900012    2    1    2    0    0  0.32087284955E+02  0.72713489921E+01  0.23889338413E+02  0.50528845290E+02  0.29999955742E+02 0.  0.
         12    1    1    2    0    0 -0.32087284955E+02 -0.72713489921E+01 -0.23889338413E+02  0.40659154710E+02  0.00000000000E+00 0. -1.
         11    1    3    3    0    0  0.27711832347E+02  0.60791019396E+01  0.14917759515E+02  0.32053715567E+02  0.51100000000E-03 0. -1.
        -11    1    3    3    0    0  0.21001111465E+01  0.81179728239E+01  0.25612924589E+01  0.87676775099E+01  0.51100000000E-03 0.  1.
         12    1    3    3    0    0  0.22753414611E+01 -0.69257257715E+01  0.64102864393E+01  0.97074522126E+01  0.00000000000E+00 0. -1.
</event>
<event>
 7    1  0.6136531E-013  0.5052884E+02  0.7816164E-02  0.1300439E+00
        -11   -1    0    0    0    0  0.00000000000E+00  0.00000000000E+00  0.45593999997E+02  0.45594000000E+02  0.51100000000E-03 0.  1.
         11   -1    0    0    0    0 -0.00000000000E+00 -0.00000000000E+00 -0.45593999997E+02  0.45594000000E+02  0.51100000000E-03 0. -1.
    9900012    2    1    2    0    0 -0.34894433426E+02 -0.15714172669E+02  0.13733553171E+02  0.50528841259E+02  0.29999943491E+02 0.  0.
         12    1    1    2    0    0  0.34894433426E+02  0.15714172669E+02 -0.13733553171E+02  0.40659158741E+02  0.00000000000E+00 0. -1.
         11    1    3    3    0    0 -0.17936425290E+02 -0.12845485640E+02 -0.44817167429E+00  0.22066325286E+02  0.51100000000E-03 0. -1.
        -11    1    3    3    0    0  0.24901696124E+01 -0.23760186562E+01  0.68616779591E+01  0.76765248667E+01  0.51100000000E-03 0.  1.
        -12    1    3    3    0    0 -0.19448177748E+02 -0.49266837280E+00  0.73200468863E+01  0.20785991106E+02  0.00000000000E+00 0.  1.
</event>
<event>
 7    1  0.6136531E-013  0.5052886E+02  0.7816164E-02  0.1300439E+00
        -11   -1    0    0    0    0  0.00000000000E+00  0.00000000000E+00  0.45593999997E+02  0.45594000000E+02  0.51100000000E-03 0. -1.
         11   -1    0    0    0    0 -0.00000000000E+00 -0.00000000000E+00 -0.45593999997E+02  0.45594000000E+02  0.51100000000E-03 0.  1.
    9900012    2    1    2    0    0 -0.10772109233E+02  0.27508204895E+02 -0.27936110433E+02  0.50528856625E+02  0.29999990197E+02 0.  0.
         12    1    1    2    0    0  0.10772109233E+02 -0.27508204895E+02  0.27936110433E+02  0.40659143375E+02  0.00000000000E+00 0. -1.
         11    1    3    3    0    0  0.37069160290E+01 -0.11562678343E+01 -0.49983419341E+01  0.63294236785E+01  0.51100000000E-03 0. -1.
        -11    1    3    3    0    0 -0.17347651350E+02  0.17950314776E+02 -0.93433210462E+01  0.26654314029E+02  0.51100000000E-03 0.  1.
        -12    1    3    3    0    0  0.28686260883E+01  0.10714157954E+02 -0.13594447453E+02  0.17545118918E+02  0.00000000000E+00 0.  1.
</event>
<event>
 7    1  0.6136531E-013  0.5052883E+02  0.7816164E-02  0.1300439E+00
        -11   -1    0    0    0    0  0.00000000000E+00  0.00000000000E+00  0.45593999997E+02  0.45594000000E+02  0.51100000000E-03 0.  1.
         11   -1    0    0    0    0 -0.00000000000E+00 -0.00000000000E+00 -0.45593999997E+02  0.45594000000E+02  0.51100000000E-03 0. -1.
    9900012    2    1    2    0    0 -0.28273846255E+02 -0.25334677166E+02  0.14557187337E+02  0.50528831879E+02  0.29999914979E+02 0.  0.
         12    1    1    2    0    0  0.28273846255E+02  0.25334677166E+02 -0.14557187337E+02  0.40659168121E+02  0.00000000000E+00 0. -1.
         11    1    3    3    0    0  0.12797338464E+00 -0.10126315047E+01 -0.41117019254E+01  0.42364953364E+01  0.51100000000E-03 0. -1.
        -11    1    3    3    0    0 -0.20699981755E+02 -0.18747695763E+02  0.22676411606E+02  0.35974782622E+02  0.51100000000E-03 0.  1.
        -12    1    3    3    0    0 -0.77018378839E+01 -0.55743498976E+01 -0.40075223435E+01  0.10317553921E+02  0.00000000000E+00 0.  1.
</event>
<event>
 7    1  0.6136531E-013  0.5052886E+02  0.7816164E-02  0.1300439E+00
        -11   -1    0    0    0    0  0.00000000000E+00  0.00000000000E+00  0.45593999997E+02  0.45594000000E+02  0.51100000000E-03 0.  1.
         11   -1    0    0    0    0 -0.00000000000E+00 -0.00000000000E+00 -0.45593999997E+02  0.45594000000E+02  0.51100000000E-03 0. -1.
    9900012    2    1    2    0    0 -0.31972658634E+02  0.76844986504E+01  0.23913660190E+02  0.50528861258E+02  0.30000004279E+02 0.  0.
         12    1    1    2    0    0  0.31972658634E+02 -0.76844986504E+01 -0.23913660190E+02  0.40659138742E+02  0.00000000000E+00 0. -1.
         11    1    3    3    0    0  0.24151365787E+01  0.73329084921E+01  0.32098517628E+01  0.83610753045E+01  0.51100000000E-03 0. -1.
        -11    1    3    3    0    0 -0.26481751278E+02  0.53467479230E+01  0.17887258201E+02  0.32401001069E+02  0.51100000000E-03 0.  1.
         12    1    3    3    0    0 -0.79060439345E+01 -0.49951577648E+01  0.28165502260E+01  0.97667848837E+01  0.00000000000E+00 0. -1.
</event>
<event>
 7    1  0.6136531E-013  0.5052886E+02  0.7816164E-02  0.1300439E+00
        -11   -1    0    0    0    0  0.00000000000E+00  0.00000000000E+00  0.45593999997E+02  0.45594000000E+02  0.51100000000E-03 0.  1.
         11   -1    0    0    0    0 -0.00000000000E+00 -0.00000000000E+00 -0.45593999997E+02  0.45594000000E+02  0.51100000000E-03 0. -1.
    9900012    2    1    2    0    0  0.19380555866E+02 -0.24690775937E+02  0.25844244684E+02  0.50528863938E+02  0.30000012426E+02 0.  0.
         12    1    1    2    0    0 -0.19380555866E+02  0.24690775937E+02 -0.25844244684E+02  0.40659136062E+02  0.00000000000E+00 0. -1.
         11    1    3    3    0    0 -0.46833988019E+01 -0.14955037463E+02  0.54098736173E+01  0.16578724398E+02  0.51100000000E-03 0. -1.
        -11    1    3    3    0    0  0.10292239780E+02 -0.43929026747E+01  0.13772297113E+02  0.17745533568E+02  0.51100000000E-03 0.  1.
         12    1    3    3    0    0  0.13771714888E+02 -0.53428357994E+01  0.66620739533E+01  0.16204605971E+02  0.00000000000E+00 0. -1.
</event>
<event>
 7    1  0.6136531E-013  0.5052886E+02  0.7816164E-02  0.1300439E+00
        -11   -1    0    0    0    0  0.00000000000E+00  0.00000000000E+00  0.45593999997E+02  0.45594000000E+02  0.51100000000E-03 0.  1.
         11   -1    0    0    0    0 -0.00000000000E+00 -0.00000000000E+00 -0.45593999997E+02  0.45594000000E+02  0.51100000000E-03 0. -1.
    9900012    2    1    2    0    0 -0.54691761290E+01 -0.18037483386E+02  0.36026420812E+02  0.50528859687E+02  0.29999999506E+02 0.  0.
         12    1    1    2    0    0  0.54691761290E+01  0.18037483386E+02 -0.36026420812E+02  0.40659140313E+02  0.00000000000E+00 0. -1.
         11    1    3    3    0    0 -0.59820293406E+01  0.13609649773E+01  0.26198264135E+02  0.26906986912E+02  0.51100000000E-03 0. -1.
        -11    1    3    3    0    0 -0.32814815239E+01 -0.12836479407E+02  0.89550442727E+01  0.15991752335E+02  0.51100000000E-03 0.  1.
         12    1    3    3    0    0  0.37943347354E+01 -0.65619689566E+01  0.87311240380E+00  0.76301204408E+01  0.00000000000E+00 0. -1.
</event>
<event>
 7    1  0.6136531E-013  0.5052886E+02  0.7816164E-02  0.1300439E+00
        -11   -1    0    0    0    0  0.00000000000E+00  0.00000000000E+00  0.45593999997E+02  0.45594000000E+02  0.51100000000E-03 0.  1.
         11   -1    0    0    0    0 -0.00000000000E+00 -0.00000000000E+00 -0.45593999997E+02  0.45594000000E+02  0.51100000000E-03 0. -1.
    9900012    2    1    2    0    0 -0.30527173560E+02  0.25296206901E+02  0.90199502522E+01  0.50528856973E+02  0.29999991255E+02 0.  0.
         12    1    1    2    0    0  0.30527173560E+02 -0.25296206901E+02 -0.90199502522E+01  0.40659143027E+02  0.00000000000E+00 0. -1.
         11    1    3    3    0    0  0.20317413102E+01 -0.18537868309E+01  0.66331641492E+01  0.71807635567E+01  0.51100000000E-03 0. -1.
        -11    1    3    3    0    0 -0.17034239263E+02  0.89995110906E+01  0.27526548572E+01  0.19461079522E+02  0.51100000000E-03 0.  1.
         12    1    3    3    0    0 -0.15524675607E+02  0.18150482642E+02 -0.36586875425E+00  0.23887013894E+02  0.00000000000E+00 0. -1.
</event>
<event>
 7    1  0.6136531E-013  0.5052889E+02  0.7816164E-02  0.1300439E+00
        -11   -1    0    0    0    0  0.00000000000E+00  0.00000000000E+00  0.45593999997E+02  0.45594000000E+02  0.51100000000E-03 0.  1.
         11   -1    0    0    0    0 -0.00000000000E+00 -0.00000000000E+00 -0.45593999997E+02  0.45594000000E+02  0.51100000000E-03 0. -1.
    9900012    2    1    2    0    0  0.14692927165E+02 -0.28103057589E+02  0.25446010017E+02  0.50528888103E+02  0.30000085876E+02 0.  0.
         12    1    1    2    0    0 -0.14692927165E+02  0.28103057589E+02 -0.25446010017E+02  0.40659111897E+02  0.00000000000E+00 0. -1.
         11    1    3    3    0    0 -0.83622329610E+01 -0.67127161255E+01  0.90940390158E+01  0.14060193589E+02  0.51100000000E-03 0. -1.
        -11    1    3    3    0    0  0.12293382632E+02 -0.16954925076E+02  0.99860793812E+01  0.23201692235E+02  0.51100000000E-03 0.  1.
        -12    1    3    3    0    0  0.10761777494E+02 -0.44354163872E+01  0.63658916198E+01  0.13267002279E+02  0.00000000000E+00 0.  1.
</event>
<event>
 7    1  0.6136531E-013  0.5052885E+02  0.7816164E-02  0.1300439E+00
        -11   -1    0    0    0    0  0.00000000000E+00  0.00000000000E+00  0.45593999997E+02  0.45594000000E+02  0.51100000000E-03 0. -1.
         11   -1    0    0    0    0 -0.00000000000E+00 -0.00000000000E+00 -0.45593999997E+02  0.45594000000E+02  0.51100000000E-03 0.  1.
    9900012    2    1    2    0    0 -0.35113747453E+02 -0.20457229917E+02  0.13011202551E+01  0.50528850599E+02  0.29999971881E+02 0.  0.
         12    1    1    2    0    0  0.35113747453E+02  0.20457229917E+02 -0.13011202551E+01  0.40659149401E+02  0.00000000000E+00 0. -1.
         11    1    3    3    0    0 -0.16840294016E+01 -0.13967661783E+02 -0.43871856169E+01  0.14736991844E+02  0.51100000000E-03 0. -1.
        -11    1    3    3    0    0 -0.31733362840E+02 -0.83400739631E+01  0.50086959111E+01  0.33191116068E+02  0.51100000000E-03 0.  1.
         12    1    3    3    0    0 -0.16963552120E+01  0.18505058290E+01  0.67960996089E+00  0.26007426876E+01  0.00000000000E+00 0. -1.
</event>
<event>
 7    1  0.6136531E-013  0.5052886E+02  0.7816164E-02  0.1300439E+00
        -11   -1    0    0    0    0  0.00000000000E+00  0.00000000000E+00  0.45593999997E+02  0.45594000000E+02  0.51100000000E-03 0.  1.
         11   -1    0    0    0    0 -0.00000000000E+00 -0.00000000000E+00 -0.45593999997E+02  0.45594000000E+02  0.51100000000E-03 0. -1.
    9900012    2    1    2    0    0 -0.16747628833E+00  0.53676375588E+01  0.40302924482E+02  0.50528864458E+02  0.30000014005E+02 0.  0.
         12    1    1    2    0    0  0.16747628833E+00 -0.53676375588E+01 -0.40302924482E+02  0.40659135542E+02  0.00000000000E+00 0. -1.
         11    1    3    3    0    0 -0.20269504459E+01 -0.64024414820E+01  0.28338577464E+02  0.29123440009E+02  0.51100000000E-03 0.  1.
        -11    1    3    3    0    0 -0.17789123648E+01  0.13569860284E+02  0.94259094186E+01  0.16617864062E+02  0.51100000000E-03 0. -1.
        -12    1    3    3    0    0  0.36383865224E+01 -0.17997812435E+01  0.25384375992E+01  0.47875603867E+01  0.00000000000E+00 0.  1.
</event>
<event>
 7    1  0.6136531E-013  0.5052886E+02  0.7816164E-02  0.1300439E+00
        -11   -1    0    0    0    0  0.00000000000E+00  0.00000000000E+00  0.45593999997E+02  0.45594000000E+02  0.51100000000E-03 0. -1.
         11   -1    0    0    0    0 -0.00000000000E+00 -0.00000000000E+00 -0.45593999997E+02  0.45594000000E+02  0.51100000000E-03 0.  1.
    9900012    2    1    2    0    0 -0.31169610022E+02  0.24936649517E+02 -0.77320503709E+01  0.50528859810E+02  0.29999999878E+02 0.  0.
         12    1    1    2    0    0  0.31169610022E+02 -0.24936649517E+02  0.77320503709E+01  0.40659140190E+02  0.00000000000E+00 0. -1.
         11    1    3    3    0    0 -0.75453667195E+01 -0.16189649015E+01 -0.62610844652E+01  0.99375442251E+01  0.51100000000E-03 0. -1.
        -11    1    3    3    0    0 -0.21989174303E+02  0.24091459759E+02  0.54454001487E+01  0.33069239527E+02  0.51100000000E-03 0.  1.
        -12    1    3    3    0    0 -0.16350689992E+01  0.24641546604E+01 -0.69163660544E+01  0.75220760579E+01  0.00000000000E+00 0.  1.
</event>
<event>
 7    1  0.6136531E-013  0.5052887E+02  0.7816164E-02  0.1300439E+00
        -11   -1    0    0    0    0  0.00000000000E+00  0.00000000000E+00  0.45593999997E+02  0.45594000000E+02  0.51100000000E-03 0. -1.
         11   -1    0    0    0    0 -0.00000000000E+00 -0.00000000000E+00 -0.45593999997E+02  0.45594000000E+02  0.51100000000E-03 0.  1.
    9900012    2    1    2    0    0 -0.17383442899E+02  0.51546124155E+01 -0.36392459810E+02  0.50528865144E+02  0.30000016092E+02 0.  0.
         12    1    1    2    0    0  0.17383442899E+02 -0.51546124155E+01  0.36392459810E+02  0.40659134856E+02  0.00000000000E+00 0. -1.
         11    1    3    3    0    0 -0.16921841778E+02  0.59638690169E+01 -0.50488170676E+01  0.18638857714E+02  0.51100000000E-03 0. -1.
        -11    1    3    3    0    0 -0.20516581545E+01 -0.90247508984E+00 -0.28811598802E+02  0.28898650284E+02  0.51100000000E-03 0.  1.
         12    1    3    3    0    0  0.15900570337E+01  0.93218488498E-01 -0.25320439408E+01  0.29913571460E+01  0.00000000000E+00 0. -1.
</event>
<event>
 7    1  0.6136531E-013  0.5052886E+02  0.7816164E-02  0.1300439E+00
        -11   -1    0    0    0    0  0.00000000000E+00  0.00000000000E+00  0.45593999997E+02  0.45594000000E+02  0.51100000000E-03 0.  1.
         11   -1    0    0    0    0 -0.00000000000E+00 -0.00000000000E+00 -0.45593999997E+02  0.45594000000E+02  0.51100000000E-03 0. -1.
    9900012    2    1    2    0    0  0.32295086329E+02  0.16894697657E+02  0.18021157119E+02  0.50528861866E+02  0.30000006127E+02 0.  0.
         12    1    1    2    0    0 -0.32295086329E+02 -0.16894697657E+02 -0.18021157119E+02  0.40659138134E+02  0.00000000000E+00 0. -1.
         11    1    3    3    0    0  0.13102835913E+02  0.55249945955E+01  0.16754534311E+02  0.21975538548E+02  0.51100000000E-03 0. -1.
        -11    1    3    3    0    0  0.83821621977E+01  0.45666177909E+01 -0.82568924377E+01  0.12621050437E+02  0.51100000000E-03 0.  1.
        -12    1    3    3    0    0  0.10810088218E+02  0.68030852707E+01  0.95235152462E+01  0.15932272880E+02  0.00000000000E+00 0.  1.
</event>
<event>
 7    1  0.6136531E-013  0.5052886E+02  0.7816164E-02  0.1300439E+00
        -11   -1    0    0    0    0  0.00000000000E+00  0.00000000000E+00  0.45593999997E+02  0.45594000000E+02  0.51100000000E-03 0. -1.
         11   -1    0    0    0    0 -0.00000000000E+00 -0.00000000000E+00 -0.45593999997E+02  0.45594000000E+02  0.51100000000E-03 0.  1.
    9900012    2    1    2    0    0  0.81877887358E+01 -0.42081048811E+01 -0.39603253457E+02  0.50528859386E+02  0.29999998590E+02 0.  0.
         12    1    1    2    0    0 -0.81877887358E+01  0.42081048811E+01  0.39603253457E+02  0.40659140614E+02  0.00000000000E+00 0. -1.
         11    1    3    3    0    0  0.67733199719E+01 -0.60168588114E+01 -0.13432167391E+02  0.16201962056E+02  0.51100000000E-03 0. -1.
        -11    1    3    3    0    0 -0.29223411550E+01  0.83933429501E+01 -0.22898558748E+01  0.91777842583E+01  0.51100000000E-03 0.  1.
        -12    1    3    3    0    0  0.43368099189E+01 -0.65845890197E+01 -0.23881230192E+02  0.25149113072E+02  0.00000000000E+00 0.  1.
</event>
<event>
 7    1  0.6136531E-013  0.5052889E+02  0.7816164E-02  0.1300439E+00
        -11   -1    0    0    0    0  0.00000000000E+00  0.00000000000E+00  0.45593999997E+02  0.45594000000E+02  0.51100000000E-03 0.  1.
         11   -1    0    0    0    0 -0.00000000000E+00 -0.00000000000E+00 -0.45593999997E+02  0.45594000000E+02  0.51100000000E-03 0. -1.
    9900012    2    1    2    0    0 -0.37286967615E+02 -0.13075443194E+02 -0.95852974146E+01  0.50528891609E+02  0.30000096534E+02 0.  0.
         12    1    1    2    0    0  0.37286967615E+02  0.13075443194E+02  0.95852974146E+01  0.40659108391E+02  0.00000000000E+00 0. -1.
         11    1    3    3    0    0 -0.72889772317E+01  0.53958085376E+01 -0.10544541931E+02  0.13907958285E+02  0.51100000000E-03 0. -1.
        -11    1    3    3    0    0 -0.13840090872E+02 -0.66141660496E+01 -0.42425171666E+01  0.15915221018E+02  0.51100000000E-03 0.  1.
         12    1    3    3    0    0 -0.16157899511E+02 -0.11857085682E+02  0.52017616834E+01  0.20705712306E+02  0.00000000000E+00 0. -1.
</event>
<event>
 7    1  0.6136531E-013  0.5052895E+02  0.7816164E-02  0.1300438E+00
        -11   -1    0    0    0    0  0.00000000000E+00  0.00000000000E+00  0.45593999997E+02  0.45594000000E+02  0.51100000000E-03 0. -1.
         11   -1    0    0    0    0 -0.00000000000E+00 -0.00000000000E+00 -0.45593999997E+02  0.45594000000E+02  0.51100000000E-03 0.  1.
    9900012    2    1    2    0    0  0.29895403949E+02 -0.17807852969E+02 -0.21031011885E+02  0.50528951000E+02  0.30000277060E+02 0.  0.
         12    1    1    2    0    0 -0.29895403949E+02  0.17807852969E+02  0.21031011885E+02  0.40659049000E+02  0.00000000000E+00 0. -1.
         11    1    3    3    0    0  0.30418245089E+01 -0.14956120045E+01  0.56600423747E+01  0.65973958162E+01  0.51100000000E-03 0. -1.
        -11    1    3    3    0    0  0.13828344321E+02 -0.16647540188E+02 -0.19017943219E+02  0.28810516578E+02  0.51100000000E-03 0.  1.
         12    1    3    3    0    0  0.13025235119E+02  0.33529922359E+00 -0.76731110410E+01  0.15121038606E+02  0.00000000000E+00 0. -1.
</event>
<event>
 7    1  0.6136531E-013  0.5052886E+02  0.7816164E-02  0.1300439E+00
        -11   -1    0    0    0    0  0.00000000000E+00  0.00000000000E+00  0.45593999997E+02  0.45594000000E+02  0.51100000000E-03 0.  1.
         11   -1    0    0    0    0 -0.00000000000E+00 -0.00000000000E+00 -0.45593999997E+02  0.45594000000E+02  0.51100000000E-03 0. -1.
    9900012    2    1    2    0    0 -0.37972001957E+02  0.47573382164E+01  0.13735381863E+02  0.50528856939E+02  0.29999991153E+02 0.  0.
         12    1    1    2    0    0  0.37972001957E+02 -0.47573382164E+01 -0.13735381863E+02  0.40659143061E+02  0.00000000000E+00 0. -1.
         11    1    3    3    0    0 -0.26382710344E+01  0.58485347522E+01  0.12820266287E+02  0.14336145253E+02  0.51100000000E-03 0. -1.
        -11    1    3    3    0    0 -0.28068579807E+02 -0.34195876038E+01  0.25483142205E+01  0.28390714281E+02  0.51100000000E-03 0.  1.
         12    1    3    3    0    0 -0.72651511153E+01  0.23283910681E+01 -0.16331986446E+01  0.78019974049E+01  0.00000000000E+00 0. -1.
</event>
<event>
 7    1  0.6136531E-013  0.5052886E+02  0.7816164E-02  0.1300439E+00
        -11   -1    0    0    0    0  0.00000000000E+00  0.00000000000E+00  0.45593999997E+02  0.45594000000E+02  0.51100000000E-03 0.  1.
         11   -1    0    0    0    0 -0.00000000000E+00 -0.00000000000E+00 -0.45593999997E+02  0.45594000000E+02  0.51100000000E-03 0. -1.
    9900012    2    1    2    0    0 -0.25739880101E+02 -0.18837205205E+02  0.25214759501E+02  0.50528858048E+02  0.29999994524E+02 0.  0.
         12    1    1    2    0    0  0.25739880101E+02  0.18837205205E+02 -0.25214759501E+02  0.40659141952E+02  0.00000000000E+00 0. -1.
         11    1    3    3    0    0 -0.19821918617E+02 -0.10665817214E+01  0.12854582496E+02  0.23649235625E+02  0.51100000000E-03 0. -1.
        -11    1    3    3    0    0 -0.60389205295E+01 -0.19418085927E+02  0.73809249216E+01  0.21633508157E+02  0.51100000000E-03 0.  1.
         12    1    3    3    0    0  0.12095904484E+00  0.16474624435E+01  0.49792520827E+01  0.52461142664E+01  0.00000000000E+00 0. -1.
</event>
<event>
 7    1  0.6136531E-013  0.5052885E+02  0.7816164E-02  0.1300439E+00
        -11   -1    0    0    0    0  0.00000000000E+00  0.00000000000E+00  0.45593999997E+02  0.45594000000E+02  0.51100000000E-03 0.  1.
         11   -1    0    0    0    0 -0.00000000000E+00 -0.00000000000E+00 -0.45593999997E+02  0.45594000000E+02  0.51100000000E-03 0. -1.
    9900012    2    1    2    0    0 -0.17209331094E+02 -0.84685859123E+01  0.35850917270E+02  0.50528852282E+02  0.29999976996E+02 0.  0.
         12    1    1    2    0    0  0.17209331094E+02  0.84685859123E+01 -0.35850917270E+02  0.40659147718E+02  0.00000000000E+00 0. -1.
         11    1    3    3    0    0  0.29801284654E+01 -0.11317089680E+02  0.14990863002E+02  0.19017982498E+02  0.51100000000E-03 0. -1.
        -11    1    3    3    0    0 -0.10003895382E+02  0.11590278451E+00  0.17984781947E+02  0.20580178284E+02  0.51100000000E-03 0.  1.
         12    1    3    3    0    0 -0.10185564178E+02  0.27326009829E+01  0.28752723217E+01  0.10930691500E+02  0.00000000000E+00 0. -1.
</event>
<event>
 7    1  0.6136531E-013  0.5052886E+02  0.7816164E-02  0.1300439E+00
        -11   -1    0    0    0    0  0.00000000000E+00  0.00000000000E+00  0.45593999997E+02  0.45594000000E+02  0.51100000000E-03 0. -1.
         11   -1    0    0    0    0 -0.00000000000E+00 -0.00000000000E+00 -0.45593999997E+02  0.45594000000E+02  0.51100000000E-03 0.  1.
    9900012    2    1    2    0    0  0.82360831961E+01 -0.34931568762E+02 -0.19108061761E+02  0.50528860967E+02  0.30000003397E+02 0.  0.
         12    1    1    2    0    0 -0.82360831961E+01  0.34931568762E+02  0.19108061761E+02  0.40659139033E+02  0.00000000000E+00 0. -1.
         11    1    3    3    0    0 -0.30445773086E+01  0.51025439672E-01  0.49645061021E+01  0.58239484615E+01  0.51100000000E-03 0. -1.
        -11    1    3    3    0    0  0.12762141070E+01 -0.12924165629E+02 -0.11822016650E+02  0.17561971916E+02  0.51100000000E-03 0.  1.
         12    1    3    3    0    0  0.10004446398E+02 -0.22058428573E+02 -0.12250551213E+02  0.27142940590E+02  0.00000000000E+00 0. -1.
</event>
<event>
 7    1  0.6136531E-013  0.5052887E+02  0.7816164E-02  0.1300439E+00
        -11   -1    0    0    0    0  0.00000000000E+00  0.00000000000E+00  0.45593999997E+02  0.45594000000E+02  0.51100000000E-03 0.  1.
         11   -1    0    0    0    0 -0.00000000000E+00 -0.00000000000E+00 -0.45593999997E+02  0.45594000000E+02  0.51100000000E-03 0. -1.
    9900012    2    1    2    0    0 -0.18718477222E+02  0.32504524432E+02  0.15692022605E+02  0.50528867305E+02  0.30000022659E+02 0.  0.
         12    1    1    2    0    0  0.18718477222E+02 -0.32504524432E+02 -0.15692022605E+02  0.40659132695E+02  0.00000000000E+00 0. -1.
         11    1    3    3    0    0 -0.16543203878E+01 -0.34074822243E+01 -0.38177009875E+00  0.38070276758E+01  0.51100000000E-03 0. -1.
        -11    1    3    3    0    0 -0.33598352546E+01  0.25407032370E+02  0.14340687983E+02  0.29367688347E+02  0.51100000000E-03 0.  1.
        -12    1    3    3    0    0 -0.13704321580E+02  0.10504974287E+02  0.17331047210E+01  0.17354151282E+02  0.00000000000E+00 0.  1.
</event>
<event>
 7    1  0.6136531E-013  0.5052886E+02  0.7816164E-02  0.1300439E+00
        -11   -1    0    0    0    0  0.00000000000E+00  0.00000000000E+00  0.45593999997E+02  0.45594000000E+02  0.51100000000E-03 0.  1.
         11   -1    0    0    0    0 -0.00000000000E+00 -0.00000000000E+00 -0.45593999997E+02  0.45594000000E+02  0.51100000000E-03 0. -1.
    9900012    2    1    2    0    0  0.16833187289E+02 -0.27329366326E+02  0.24958265768E+02  0.50528862180E+02  0.30000007084E+02 0.  0.
         12    1    1    2    0    0 -0.16833187289E+02  0.27329366326E+02 -0.24958265768E+02  0.40659137820E+02  0.00000000000E+00 0. -1.
         11    1    3    3    0    0  0.75417638242E+01 -0.62324977964E+01  0.12887062320E+02  0.16180191775E+02  0.51100000000E-03 0. -1.
        -11    1    3    3    0    0 -0.14163153461E+01 -0.18807188973E+02  0.13655349358E+02  0.23284863594E+02  0.51100000000E-03 0.  1.
        -12    1    3    3    0    0  0.10707738811E+02 -0.22896795567E+01 -0.15841459101E+01  0.11063806812E+02  0.00000000000E+00 0.  1.
</event>
<event>
 7    1  0.6136531E-013  0.5052886E+02  0.7816164E-02  0.1300439E+00
        -11   -1    0    0    0    0  0.00000000000E+00  0.00000000000E+00  0.45593999997E+02  0.45594000000E+02  0.51100000000E-03 0. -1.
         11   -1    0    0    0    0 -0.00000000000E+00 -0.00000000000E+00 -0.45593999997E+02  0.45594000000E+02  0.51100000000E-03 0.  1.
    9900012    2    1    2    0    0  0.52310228703E+01  0.13389775855E+02 -0.38033088580E+02  0.50528861733E+02  0.30000005723E+02 0.  0.
         12    1    1    2    0    0 -0.52310228703E+01 -0.13389775855E+02  0.38033088580E+02  0.40659138267E+02  0.00000000000E+00 0. -1.
         11    1    3    3    0    0 -0.21772315934E+01  0.16854995773E+02 -0.25392696553E+02  0.30555200186E+02  0.51100000000E-03 0.  1.
        -11    1    3    3    0    0  0.10294707215E+01 -0.47210556118E+01  0.93519785637E+00  0.49216634736E+01  0.51100000000E-03 0. -1.
         12    1    3    3    0    0  0.63787837423E+01  0.12558356934E+01 -0.13575589883E+02  0.15051998073E+02  0.00000000000E+00 0. -1.
</event>
<event>
 7    1  0.6136531E-013  0.5052878E+02  0.7816164E-02  0.1300439E+00
        -11   -1    0    0    0    0  0.00000000000E+00  0.00000000000E+00  0.45593999997E+02  0.45594000000E+02  0.51100000000E-03 0. -1.
         11   -1    0    0    0    0 -0.00000000000E+00 -0.00000000000E+00 -0.45593999997E+02  0.45594000000E+02  0.51100000000E-03 0.  1.
    9900012    2    1    2    0    0  0.39096626751E+02 -0.41642278271E+01  0.10357864813E+02  0.50528777428E+02  0.29999749468E+02 0.  0.
         12    1    1    2    0    0 -0.39096626751E+02  0.41642278271E+01 -0.10357864813E+02  0.40659222572E+02  0.00000000000E+00 0. -1.
         11    1    3    3    0    0  0.50315694921E+01 -0.30253882959E+01  0.94233835927E+01  0.11102694470E+02  0.51100000000E-03 0. -1.
        -11    1    3    3    0    0  0.47241906267E+01  0.68368671245E+01 -0.28511250191E+01  0.87857636715E+01  0.51100000000E-03 0.  1.
        -12    1    3    3    0    0  0.29340866632E+02 -0.79757066557E+01  0.37856062395E+01  0.30640319286E+02  0.00000000000E+00 0.  1.
</event>
<event>
 7    1  0.6136531E-013  0.5052886E+02  0.7816164E-02  0.1300439E+00
        -11   -1    0    0    0    0  0.00000000000E+00  0.00000000000E+00  0.45593999997E+02  0.45594000000E+02  0.51100000000E-03 0.  1.
         11   -1    0    0    0    0 -0.00000000000E+00 -0.00000000000E+00 -0.45593999997E+02  0.45594000000E+02  0.51100000000E-03 0. -1.
    9900012    2    1    2    0    0 -0.38014119493E+02 -0.12249652274E+02 -0.76182866784E+01  0.50528861377E+02  0.30000004643E+02 0.  0.
         12    1    1    2    0    0  0.38014119493E+02  0.12249652274E+02  0.76182866784E+01  0.40659138623E+02  0.00000000000E+00 0. -1.
         11    1    3    3    0    0 -0.22051556808E+02 -0.10973975104E+02  0.41858821216E+01  0.24984413074E+02  0.51100000000E-03 0.  1.
        -11    1    3    3    0    0  0.75250929358E+00  0.34316570830E+01  0.13456693139E+01  0.37620960562E+01  0.51100000000E-03 0. -1.
         12    1    3    3    0    0 -0.16715071978E+02 -0.47073342522E+01 -0.13149838114E+02  0.21782352247E+02  0.00000000000E+00 0. -1.
</event>
<event>
 7    1  0.6136531E-013  0.5052884E+02  0.7816164E-02  0.1300439E+00
        -11   -1    0    0    0    0  0.00000000000E+00  0.00000000000E+00  0.45593999997E+02  0.45594000000E+02  0.51100000000E-03 0.  1.
         11   -1    0    0    0    0 -0.00000000000E+00 -0.00000000000E+00 -0.45593999997E+02  0.45594000000E+02  0.51100000000E-03 0. -1.
    9900012    2    1    2    0    0  0.18418782056E+02  0.22090435681E+02  0.28738969286E+02  0.50528840680E+02  0.29999941730E+02 0.  0.
         12    1    1    2    0    0 -0.18418782056E+02 -0.22090435681E+02 -0.28738969286E+02  0.40659159320E+02  0.00000000000E+00 0. -1.
         11    1    3    3    0    0  0.19043932025E+02  0.93372757804E+01  0.90507666635E+01  0.23060191748E+02  0.51100000000E-03 0. -1.
        -11    1    3    3    0    0  0.31253027552E+01  0.13239406906E+02  0.19375332351E+02  0.23673886806E+02  0.51100000000E-03 0.  1.
         12    1    3    3    0    0 -0.37504527244E+01 -0.48624700516E+00  0.31287027212E+00  0.37947621263E+01  0.00000000000E+00 0. -1.
</event>
<event>
 7    1  0.6136531E-013  0.5052886E+02  0.7816164E-02  0.1300439E+00
        -11   -1    0    0    0    0  0.00000000000E+00  0.00000000000E+00  0.45593999997E+02  0.45594000000E+02  0.51100000000E-03 0. -1.
         11   -1    0    0    0    0 -0.00000000000E+00 -0.00000000000E+00 -0.45593999997E+02  0.45594000000E+02  0.51100000000E-03 0.  1.
    9900012    2    1    2    0    0  0.20538564866E+02 -0.19458333734E+02  0.29201137602E+02  0.50528857907E+02  0.29999994095E+02 0.  0.
         12    1    1    2    0    0 -0.20538564866E+02  0.19458333734E+02 -0.29201137602E+02  0.40659142093E+02  0.00000000000E+00 0. -1.
         11    1    3    3    0    0  0.10193723824E+02  0.35946844199E+01 -0.25716242220E+00  0.10812025447E+02  0.51100000000E-03 0. -1.
        -11    1    3    3    0    0  0.61561403031E+01 -0.82360437054E+01  0.68211340868E+01  0.12339301027E+02  0.51100000000E-03 0.  1.
         12    1    3    3    0    0  0.41887007384E+01 -0.14816974449E+02  0.22637165937E+02  0.27377531433E+02  0.00000000000E+00 0. -1.
</event>
<event>
 7    1  0.6136531E-013  0.5052886E+02  0.7816164E-02  0.1300439E+00
        -11   -1    0    0    0    0  0.00000000000E+00  0.00000000000E+00  0.45593999997E+02  0.45594000000E+02  0.51100000000E-03 0.  1.
         11   -1    0    0    0    0 -0.00000000000E+00 -0.00000000000E+00 -0.45593999997E+02  0.45594000000E+02  0.51100000000E-03 0. -1.
    9900012    2    1    2    0    0 -0.68905361618E+01 -0.91943698211E+01  0.39001920201E+02  0.50528859522E+02  0.29999999004E+02 0.  0.
         12    1    1    2    0    0  0.68905361618E+01  0.91943698211E+01 -0.39001920201E+02  0.40659140478E+02  0.00000000000E+00 0. -1.
         11    1    3    3    0    0 -0.12463988681E+02  0.11068467577E+01  0.18642095423E+02  0.22452257027E+02  0.51100000000E-03 0. -1.
        -11    1    3    3    0    0 -0.42508487821E+01 -0.82737795685E+01  0.97875152239E+01  0.13502614496E+02  0.51100000000E-03 0.  1.
         12    1    3    3    0    0  0.98243013010E+01 -0.20274370103E+01  0.10572309554E+02  0.14573987999E+02  0.00000000000E+00 0. -1.
</event>
<event>
 7    1  0.6136531E-013  0.5052886E+02  0.7816164E-02  0.1300439E+00
        -11   -1    0    0    0    0  0.00000000000E+00  0.00000000000E+00  0.45593999997E+02  0.45594000000E+02  0.51100000000E-03 0.  1.
         11   -1    0    0    0    0 -0.00000000000E+00 -0.00000000000E+00 -0.45593999997E+02  0.45594000000E+02  0.51100000000E-03 0. -1.
    9900012    2    1    2    0    0  0.17166231916E+02  0.16193554481E+02  0.33109740923E+02  0.50528859958E+02  0.30000000329E+02 0.  0.
         12    1    1    2    0    0 -0.17166231916E+02 -0.16193554481E+02 -0.33109740923E+02  0.40659140042E+02  0.00000000000E+00 0. -1.
         11    1    3    3    0    0  0.14616956051E+02  0.10673970107E+02  0.12583763197E+02  0.22044049957E+02  0.51100000000E-03 0. -1.
        -11    1    3    3    0    0 -0.37151366948E+01  0.10366467194E+02  0.15808277668E+02  0.19265708547E+02  0.51100000000E-03 0.  1.
        -12    1    3    3    0    0  0.62644125593E+01 -0.48468828197E+01  0.47177000584E+01  0.92191014542E+01  0.00000000000E+00 0.  1.
</event>
<event>
 7    1  0.6136531E-013  0.5052886E+02  0.7816164E-02  0.1300439E+00
        -11   -1    0    0    0    0  0.00000000000E+00  0.00000000000E+00  0.45593999997E+02  0.45594000000E+02  0.51100000000E-03 0. -1.
         11   -1    0    0    0    0 -0.00000000000E+00 -0.00000000000E+00 -0.45593999997E+02  0.45594000000E+02  0.51100000000E-03 0.  1.
    9900012    2    1    2    0    0 -0.13800940635E+02 -0.31186912235E+02 -0.22137669363E+02  0.50528857584E+02  0.29999993113E+02 0.  0.
         12    1    1    2    0    0  0.13800940635E+02  0.31186912235E+02  0.22137669363E+02  0.40659142416E+02  0.00000000000E+00 0. -1.
         11    1    3    3    0    0  0.47026099518E+01 -0.17618735174E+01 -0.13586254077E+02  0.14484648383E+02  0.51100000000E-03 0. -1.
        -11    1    3    3    0    0 -0.28972322804E+01 -0.79420283756E+01 -0.23927901021E+01  0.87860807155E+01  0.51100000000E-03 0.  1.
         12    1    3    3    0    0 -0.15606318306E+02 -0.21483010342E+02 -0.61586251838E+01  0.27258128486E+02  0.00000000000E+00 0. -1.
</event>
<event>
 7    1  0.6136531E-013  0.5052885E+02  0.7816164E-02  0.1300439E+00
        -11   -1    0    0    0    0  0.00000000000E+00  0.00000000000E+00  0.45593999997E+02  0.45594000000E+02  0.51100000000E-03 0. -1.
         11   -1    0    0    0    0 -0.00000000000E+00 -0.00000000000E+00 -0.45593999997E+02  0.45594000000E+02  0.51100000000E-03 0.  1.
    9900012    2    1    2    0    0 -0.10831220352E+01 -0.30849802213E+02 -0.26462857847E+02  0.50528852255E+02  0.29999976913E+02 0.  0.
         12    1    1    2    0    0  0.10831220352E+01  0.30849802213E+02  0.26462857847E+02  0.40659147745E+02  0.00000000000E+00 0. -1.
         11    1    3    3    0    0  0.95611116584E+01 -0.24125526629E+02 -0.96896531869E+01  0.27700997643E+02  0.51100000000E-03 0.  1.
        -11    1    3    3    0    0 -0.93656841234E+01 -0.48565090360E+01 -0.17514155224E+02  0.20446206313E+02  0.51100000000E-03 0. -1.
         12    1    3    3    0    0 -0.12785495702E+01 -0.18677665484E+01  0.74095056349E+00  0.23816482991E+01  0.00000000000E+00 0. -1.
</event>
<event>
 7    1  0.6136531E-013  0.5052884E+02  0.7816164E-02  0.1300439E+00
        -11   -1    0    0    0    0  0.00000000000E+00  0.00000000000E+00  0.45593999997E+02  0.45594000000E+02  0.51100000000E-03 0.  1.
         11   -1    0    0    0    0 -0.00000000000E+00 -0.00000000000E+00 -0.45593999997E+02  0.45594000000E+02  0.51100000000E-03 0. -1.
    9900012    2    1    2    0    0  0.17763369614E+02 -0.29841658604E+02  0.21144871633E+02  0.50528837630E+02  0.29999932459E+02 0.  0.
         12    1    1    2    0    0 -0.17763369614E+02  0.29841658604E+02 -0.21144871633E+02  0.40659162370E+02  0.00000000000E+00 0. -1.
         11    1    3    3    0    0 -0.61038915037E+01 -0.37775701403E+01  0.84594119223E+01  0.11094556232E+02  0.51100000000E-03 0. -1.
        -11    1    3    3    0    0  0.20578805122E+02 -0.26510658655E+02  0.13224771246E+02  0.36072105807E+02  0.51100000000E-03 0.  1.
        -12    1    3    3    0    0  0.32884559957E+01  0.44657019134E+00 -0.53931153545E+00  0.33621755909E+01  0.00000000000E+00 0.  1.
</event>
<event>
 7    1  0.6136531E-013  0.5052885E+02  0.7816164E-02  0.1300439E+00
        -11   -1    0    0    0    0  0.00000000000E+00  0.00000000000E+00  0.45593999997E+02  0.45594000000E+02  0.51100000000E-03 0. -1.
         11   -1    0    0    0    0 -0.00000000000E+00 -0.00000000000E+00 -0.45593999997E+02  0.45594000000E+02  0.51100000000E-03 0.  1.
    9900012    2    1    2    0    0 -0.18173090384E+01  0.38166497398E+02 -0.13899014706E+02  0.50528846718E+02  0.29999960084E+02 0.  0.
         12    1    1    2    0    0  0.18173090384E+01 -0.38166497398E+02  0.13899014706E+02  0.40659153282E+02  0.00000000000E+00 0. -1.
         11    1    3    3    0    0  0.10972275726E+02  0.31336790664E+02 -0.55936144882E+01  0.33670072870E+02  0.51100000000E-03 0. -1.
        -11    1    3    3    0    0 -0.42559932529E+01  0.22081334087E+01 -0.15678212967E+01  0.50445411684E+01  0.51100000000E-03 0.  1.
         12    1    3    3    0    0 -0.85335915118E+01  0.46215733253E+01 -0.67375789214E+01  0.11814232680E+02  0.00000000000E+00 0. -1.
</event>
<event>
 7    1  0.6136531E-013  0.5052886E+02  0.7816164E-02  0.1300439E+00
        -11   -1    0    0    0    0  0.00000000000E+00  0.00000000000E+00  0.45593999997E+02  0.45594000000E+02  0.51100000000E-03 0.  1.
         11   -1    0    0    0    0 -0.00000000000E+00 -0.00000000000E+00 -0.45593999997E+02  0.45594000000E+02  0.51100000000E-03 0. -1.
    9900012    2    1    2    0    0 -0.23015338852E+02  0.17322041244E+02  0.28695069652E+02  0.50528856408E+02  0.29999989538E+02 0.  0.
         12    1    1    2    0    0  0.23015338852E+02 -0.17322041244E+02 -0.28695069652E+02  0.40659143592E+02  0.00000000000E+00 0. -1.
         11    1    3    3    0    0 -0.18067398502E+02  0.22229730206E+02  0.22074556618E+02  0.36164593787E+02  0.51100000000E-03 0. -1.
        -11    1    3    3    0    0 -0.26921456585E+01 -0.72420759002E+01  0.77343032554E+01  0.10932280581E+02  0.51100000000E-03 0.  1.
         12    1    3    3    0    0 -0.22557946914E+01  0.23343869379E+01 -0.11137902213E+01  0.34319820400E+01  0.00000000000E+00 0. -1.
</event>
<event>
 7    1  0.6136531E-013  0.5052886E+02  0.7816164E-02  0.1300439E+00
        -11   -1    0    0    0    0  0.00000000000E+00  0.00000000000E+00  0.45593999997E+02  0.45594000000E+02  0.51100000000E-03 0.  1.
         11   -1    0    0    0    0 -0.00000000000E+00 -0.00000000000E+00 -0.45593999997E+02  0.45594000000E+02  0.51100000000E-03 0. -1.
    9900012    2    1    2    0    0 -0.33409393984E+02  0.22727734156E+02  0.45197570987E+01  0.50528859447E+02  0.29999998775E+02 0.  0.
         12    1    1    2    0    0  0.33409393984E+02 -0.22727734156E+02 -0.45197570987E+01  0.40659140553E+02  0.00000000000E+00 0. -1.
         11    1    3    3    0    0 -0.24472630593E+01  0.10554346560E+02  0.54116038117E+01  0.12110688827E+02  0.51100000000E-03 0. -1.
        -11    1    3    3    0    0 -0.21571565362E+02 -0.96828543467E+00 -0.40247425388E+01  0.21965167007E+02  0.51100000000E-03 0.  1.
        -12    1    3    3    0    0 -0.93905655627E+01  0.13141673031E+02  0.31328958258E+01  0.16453003613E+02  0.00000000000E+00 0.  1.
</event>
<event>
 7    1  0.6136531E-013  0.5052887E+02  0.7816164E-02  0.1300439E+00
        -11   -1    0    0    0    0  0.00000000000E+00  0.00000000000E+00  0.45593999997E+02  0.45594000000E+02  0.51100000000E-03 0.  1.
         11   -1    0    0    0    0 -0.00000000000E+00 -0.00000000000E+00 -0.45593999997E+02  0.45594000000E+02  0.51100000000E-03 0. -1.
    9900012    2    1    2    0    0 -0.31935715934E+02  0.19499343594E+02  0.15907554932E+02  0.50528872405E+02  0.30000038163E+02 0.  0.
         12    1    1    2    0    0  0.31935715934E+02 -0.19499343594E+02 -0.15907554932E+02  0.40659127595E+02  0.00000000000E+00 0. -1.
         11    1    3    3    0    0 -0.55634949125E+01  0.42232842080E+01 -0.57897007515E+01  0.90724440035E+01  0.51100000000E-03 0. -1.
        -11    1    3    3    0    0 -0.10112275254E+02  0.12620197689E+02  0.18678807600E+02  0.24706787613E+02  0.51100000000E-03 0.  1.
         12    1    3    3    0    0 -0.16259945768E+02  0.26558616973E+01  0.30184480833E+01  0.16749640789E+02  0.00000000000E+00 0. -1.
</event>
<event>
 7    1  0.6136531E-013  0.5052886E+02  0.7816164E-02  0.1300439E+00
        -11   -1    0    0    0    0  0.00000000000E+00  0.00000000000E+00  0.45593999997E+02  0.45594000000E+02  0.51100000000E-03 0.  1.
         11   -1    0    0    0    0 -0.00000000000E+00 -0.00000000000E+00 -0.45593999997E+02  0.45594000000E+02  0.51100000000E-03 0. -1.
    9900012    2    1    2    0    0  0.70564001207E+01 -0.15530194178E+02  0.36907802337E+02  0.50528860963E+02  0.30000003384E+02 0.  0.
         12    1    1    2    0    0 -0.70564001207E+01  0.15530194178E+02 -0.36907802337E+02  0.40659139037E+02  0.00000000000E+00 0. -1.
         11    1    3    3    0    0 -0.37655319377E+01 -0.29994199550E+01 -0.32731993718E+01  0.58214762070E+01  0.51100000000E-03 0. -1.
        -11    1    3    3    0    0  0.33482431624E+01 -0.11064088221E+02  0.28585080023E+02  0.30833935535E+02  0.51100000000E-03 0.  1.
        -12    1    3    3    0    0  0.74736888960E+01 -0.14666860014E+01  0.11595921686E+02  0.13873449221E+02  0.00000000000E+00 0.  1.
</event>
<event>
 7    1  0.6136531E-013  0.5052887E+02  0.7816164E-02  0.1300439E+00
        -11   -1    0    0    0    0  0.00000000000E+00  0.00000000000E+00  0.45593999997E+02  0.45594000000E+02  0.51100000000E-03 0. -1.
         11   -1    0    0    0    0 -0.00000000000E+00 -0.00000000000E+00 -0.45593999997E+02  0.45594000000E+02  0.51100000000E-03 0.  1.
    9900012    2    1    2    0    0  0.23304333926E+02  0.21386402894E+02  0.25547895528E+02  0.50528866040E+02  0.30000018815E+02 0.  0.
         12    1    1    2    0    0 -0.23304333926E+02 -0.21386402894E+02 -0.25547895528E+02  0.40659133960E+02  0.00000000000E+00 0. -1.
         11    1    3    3    0    0 -0.14269279993E+00  0.10037780260E+02  0.15803992955E+02  0.18722809280E+02  0.51100000000E-03 0. -1.
        -11    1    3    3    0    0  0.24668977265E+02  0.92208663808E+01  0.11551995821E+02  0.28758154041E+02  0.51100000000E-03 0.  1.
         12    1    3    3    0    0 -0.12219505387E+01  0.21277562531E+01 -0.18080932480E+01  0.30479027191E+01  0.00000000000E+00 0. -1.
</event>
<event>
 7    1  0.6136531E-013  0.5052886E+02  0.7816164E-02  0.1300439E+00
        -11   -1    0    0    0    0  0.00000000000E+00  0.00000000000E+00  0.45593999997E+02  0.45594000000E+02  0.51100000000E-03 0.  1.
         11   -1    0    0    0    0 -0.00000000000E+00 -0.00000000000E+00 -0.45593999997E+02  0.45594000000E+02  0.51100000000E-03 0. -1.
    9900012    2    1    2    0    0 -0.61931838837E+01  0.14313522606E+02  0.37549080789E+02  0.50528856820E+02  0.29999990791E+02 0.  0.
         12    1    1    2    0    0  0.61931838837E+01 -0.14313522606E+02 -0.37549080789E+02  0.40659143180E+02  0.00000000000E+00 0. -1.
         11    1    3    3    0    0  0.16270871474E+01  0.13458631112E+02  0.12787571624E+02  0.18636098097E+02  0.51100000000E-03 0. -1.
        -11    1    3    3    0    0 -0.92146106030E+01 -0.57021010189E+01  0.22223801267E+02  0.24724893278E+02  0.51100000000E-03 0.  1.
        -12    1    3    3    0    0  0.13943395720E+01  0.65569925135E+01  0.25377078973E+01  0.71678654449E+01  0.00000000000E+00 0.  1.
</event>
<event>
 7    1  0.6136531E-013  0.5052886E+02  0.7816164E-02  0.1300439E+00
        -11   -1    0    0    0    0  0.00000000000E+00  0.00000000000E+00  0.45593999997E+02  0.45594000000E+02  0.51100000000E-03 0.  1.
         11   -1    0    0    0    0 -0.00000000000E+00 -0.00000000000E+00 -0.45593999997E+02  0.45594000000E+02  0.51100000000E-03 0. -1.
    9900012    2    1    2    0    0  0.22731036721E+02 -0.35788357947E+01  0.33520999848E+02  0.50528861706E+02  0.30000005641E+02 0.  0.
         12    1    1    2    0    0 -0.22731036721E+02  0.35788357947E+01 -0.33520999848E+02  0.40659138294E+02  0.00000000000E+00 0. -1.
         11    1    3    3    0    0  0.15187425366E+02  0.51065372458E+01  0.16165662910E+02  0.22761003262E+02  0.51100000000E-03 0.  1.
        -11    1    3    3    0    0 -0.43055496928E+01 -0.54971835542E+01  0.12982904260E+02  0.14741525988E+02  0.51100000000E-03 0. -1.
         12    1    3    3    0    0  0.11849161047E+02 -0.31881894863E+01  0.43724326780E+01  0.13026332456E+02  0.00000000000E+00 0. -1.
</event>
<event>
 7    1  0.6136531E-013  0.5052886E+02  0.7816164E-02  0.1300439E+00
        -11   -1    0    0    0    0  0.00000000000E+00  0.00000000000E+00  0.45593999997E+02  0.45594000000E+02  0.51100000000E-03 0. -1.
         11   -1    0    0    0    0 -0.00000000000E+00 -0.00000000000E+00 -0.45593999997E+02  0.45594000000E+02  0.51100000000E-03 0.  1.
    9900012    2    1    2    0    0 -0.42514161524E+01 -0.19010117513E+02 -0.35689030530E+02  0.50528855797E+02  0.29999987679E+02 0.  0.
         12    1    1    2    0    0  0.42514161524E+01  0.19010117513E+02  0.35689030530E+02  0.40659144203E+02  0.00000000000E+00 0. -1.
         11    1    3    3    0    0  0.47624508884E+01 -0.11860813188E+02 -0.73246444808E+00  0.12802200294E+02  0.51100000000E-03 0. -1.
        -11    1    3    3    0    0 -0.35532632660E+01 -0.78694218057E+01 -0.22814376631E+02  0.24393631561E+02  0.51100000000E-03 0.  1.
         12    1    3    3    0    0 -0.54606037748E+01  0.72011748002E+00 -0.12142189451E+02  0.13333023942E+02  0.00000000000E+00 0. -1.
</event>
<event>
 7    1  0.6136531E-013  0.5052886E+02  0.7816164E-02  0.1300439E+00
        -11   -1    0    0    0    0  0.00000000000E+00  0.00000000000E+00  0.45593999997E+02  0.45594000000E+02  0.51100000000E-03 0.  1.
         11   -1    0    0    0    0 -0.00000000000E+00 -0.00000000000E+00 -0.45593999997E+02  0.45594000000E+02  0.51100000000E-03 0. -1.
    9900012    2    1    2    0    0 -0.34523990852E+02  0.53455807921E+01  0.20801068225E+02  0.50528860589E+02  0.30000002246E+02 0.  0.
         12    1    1    2    0    0  0.34523990852E+02 -0.53455807921E+01 -0.20801068225E+02  0.40659139411E+02  0.00000000000E+00 0. -1.
         11    1    3    3    0    0  0.26476612710E+01  0.33751262899E+01  0.90711751723E+01  0.10034331415E+02  0.51100000000E-03 0. -1.
        -11    1    3    3    0    0 -0.25600530931E+02 -0.43823330357E+00  0.29553068185E+01  0.25774271493E+02  0.51100000000E-03 0.  1.
         12    1    3    3    0    0 -0.11571121192E+02  0.24086878058E+01  0.87745862345E+01  0.14720257680E+02  0.00000000000E+00 0. -1.
</event>
<event>
 7    1  0.6136531E-013  0.5052884E+02  0.7816164E-02  0.1300439E+00
        -11   -1    0    0    0    0  0.00000000000E+00  0.00000000000E+00  0.45593999997E+02  0.45594000000E+02  0.51100000000E-03 0. -1.
         11   -1    0    0    0    0 -0.00000000000E+00 -0.00000000000E+00 -0.45593999997E+02  0.45594000000E+02  0.51100000000E-03 0.  1.
    9900012    2    1    2    0    0  0.19511423190E+02 -0.35305142952E+02  0.51008089503E+01  0.50528843520E+02  0.29999950363E+02 0.  0.
         12    1    1    2    0    0 -0.19511423190E+02  0.35305142952E+02 -0.51008089503E+01  0.40659156480E+02  0.00000000000E+00 0. -1.
         11    1    3    3    0    0  0.22681952699E+02 -0.21813295182E+02  0.11851875609E+02  0.33626742046E+02  0.51100000000E-03 0. -1.
        -11    1    3    3    0    0  0.27044757917E+00 -0.17794279528E+01  0.13511515546E+01  0.22505813731E+01  0.51100000000E-03 0.  1.
         12    1    3    3    0    0 -0.34409770882E+01 -0.11712419817E+02 -0.81022182134E+01  0.14651520101E+02  0.00000000000E+00 0. -1.
</event>
<event>
 7    1  0.6136531E-013  0.5052887E+02  0.7816164E-02  0.1300439E+00
        -11   -1    0    0    0    0  0.00000000000E+00  0.00000000000E+00  0.45593999997E+02  0.45594000000E+02  0.51100000000E-03 0.  1.
         11   -1    0    0    0    0 -0.00000000000E+00 -0.00000000000E+00 -0.45593999997E+02  0.45594000000E+02  0.51100000000E-03 0. -1.
    9900012    2    1    2    0    0 -0.16954360151E+02  0.26808134363E+02  0.25436957853E+02  0.50528865467E+02  0.30000017073E+02 0.  0.
         12    1    1    2    0    0  0.16954360151E+02 -0.26808134363E+02 -0.25436957853E+02  0.40659134533E+02  0.00000000000E+00 0. -1.
         11    1    3    3    0    0 -0.79910415977E+01 -0.16013553561E+01  0.83945350291E+00  0.81930316268E+01  0.51100000000E-03 0. -1.
        -11    1    3    3    0    0 -0.10222170933E+02  0.22777592629E+02  0.26355409559E+02  0.36303155756E+02  0.51100000000E-03 0.  1.
        -12    1    3    3    0    0  0.12588523791E+01  0.56318970895E+01 -0.17579052086E+01  0.60326780837E+01  0.00000000000E+00 0.  1.
</event>
<event>
 7    1  0.6136531E-013  0.5052886E+02  0.7816164E-02  0.1300439E+00
        -11   -1    0    0    0    0  0.00000000000E+00  0.00000000000E+00  0.45593999997E+02  0.45594000000E+02  0.51100000000E-03 0. -1.
         11   -1    0    0    0    0 -0.00000000000E+00 -0.00000000000E+00 -0.45593999997E+02  0.45594000000E+02  0.51100000000E-03 0.  1.
    9900012    2    1    2    0    0 -0.15303490716E+02 -0.13982293713E+02 -0.34978056081E+02  0.50528858681E+02  0.29999996446E+02 0.  0.
         12    1    1    2    0    0  0.15303490716E+02  0.13982293713E+02  0.34978056081E+02  0.40659141319E+02  0.00000000000E+00 0. -1.
         11    1    3    3    0    0  0.54721202265E+00  0.27493601379E+01 -0.20919657661E+02  0.21106645851E+02  0.51100000000E-03 0. -1.
        -11    1    3    3    0    0 -0.16001532507E+02 -0.96126072299E+01 -0.11049069672E+02  0.21691777271E+02  0.51100000000E-03 0.  1.
        -12    1    3    3    0    0  0.15082976749E+00 -0.71190466205E+01 -0.30093287483E+01  0.77304355582E+01  0.00000000000E+00 0.  1.
</event>
<event>
 7    1  0.6136531E-013  0.5052886E+02  0.7816164E-02  0.1300439E+00
        -11   -1    0    0    0    0  0.00000000000E+00  0.00000000000E+00  0.45593999997E+02  0.45594000000E+02  0.51100000000E-03 0.  1.
         11   -1    0    0    0    0 -0.00000000000E+00 -0.00000000000E+00 -0.45593999997E+02  0.45594000000E+02  0.51100000000E-03 0. -1.
    9900012    2    1    2    0    0  0.84686816369E+01 -0.39562373700E+02  0.40330654439E+01  0.50528860826E+02  0.30000002968E+02 0.  0.
         12    1    1    2    0    0 -0.84686816369E+01  0.39562373700E+02 -0.40330654439E+01  0.40659139174E+02  0.00000000000E+00 0. -1.
         11    1    3    3    0    0  0.35491852906E+01  0.26773196085E+01  0.93087819689E+00  0.45421680937E+01  0.51100000000E-03 0. -1.
        -11    1    3    3    0    0  0.80489999633E+01 -0.41002519464E+02  0.50649719577E+01  0.42090936602E+02  0.51100000000E-03 0.  1.
         12    1    3    3    0    0 -0.31295036170E+01 -0.12371738442E+01 -0.19627847107E+01  0.38957561307E+01  0.00000000000E+00 0. -1.
</event>
<event>
 7    1  0.6136531E-013  0.5052886E+02  0.7816164E-02  0.1300439E+00
        -11   -1    0    0    0    0  0.00000000000E+00  0.00000000000E+00  0.45593999997E+02  0.45594000000E+02  0.51100000000E-03 0.  1.
         11   -1    0    0    0    0 -0.00000000000E+00 -0.00000000000E+00 -0.45593999997E+02  0.45594000000E+02  0.51100000000E-03 0. -1.
    9900012    2    1    2    0    0 -0.60673875920E+00 -0.35242625120E+02  0.20267083048E+02  0.50528863111E+02  0.30000009914E+02 0.  0.
         12    1    1    2    0    0  0.60673875920E+00  0.35242625120E+02 -0.20267083048E+02  0.40659136889E+02  0.00000000000E+00 0. -1.
         11    1    3    3    0    0 -0.17058976267E+01 -0.76794002878E+01 -0.78076163051E+01  0.11083417709E+02  0.51100000000E-03 0. -1.
        -11    1    3    3    0    0 -0.83326682198E-01 -0.19300532794E+02  0.20773890825E+02  0.28356164229E+02  0.51100000000E-03 0.  1.
         12    1    3    3    0    0  0.11824855497E+01 -0.82626920375E+01  0.73008085277E+01  0.11089281173E+02  0.00000000000E+00 0. -1.
</event>
<event>
 7    1  0.6136531E-013  0.5052886E+02  0.7816164E-02  0.1300439E+00
        -11   -1    0    0    0    0  0.00000000000E+00  0.00000000000E+00  0.45593999997E+02  0.45594000000E+02  0.51100000000E-03 0. -1.
         11   -1    0    0    0    0 -0.00000000000E+00 -0.00000000000E+00 -0.45593999997E+02  0.45594000000E+02  0.51100000000E-03 0.  1.
    9900012    2    1    2    0    0 -0.15456678259E+02 -0.29447488098E+02 -0.23390209805E+02  0.50528863600E+02  0.30000011397E+02 0.  0.
         12    1    1    2    0    0  0.15456678259E+02  0.29447488098E+02  0.23390209805E+02  0.40659136400E+02  0.00000000000E+00 0. -1.
         11    1    3    3    0    0  0.18493187239E+01  0.63534378905E+00 -0.18756543551E+01  0.27095610334E+01  0.51100000000E-03 0. -1.
        -11    1    3    3    0    0 -0.12495093825E+02 -0.25192912817E+02 -0.27038877311E+02  0.39011679179E+02  0.51100000000E-03 0.  1.
        -12    1    3    3    0    0 -0.48109031578E+01 -0.48899190708E+01  0.55243218606E+01  0.88076233873E+01  0.00000000000E+00 0.  1.
</event>
<event>
 7    1  0.6136531E-013  0.5052886E+02  0.7816164E-02  0.1300439E+00
        -11   -1    0    0    0    0  0.00000000000E+00  0.00000000000E+00  0.45593999997E+02  0.45594000000E+02  0.51100000000E-03 0.  1.
         11   -1    0    0    0    0 -0.00000000000E+00 -0.00000000000E+00 -0.45593999997E+02  0.45594000000E+02  0.51100000000E-03 0. -1.
    9900012    2    1    2    0    0  0.15986057441E+02 -0.20585884769E+02  0.31206302855E+02  0.50528855615E+02  0.29999987128E+02 0.  0.
         12    1    1    2    0    0 -0.15986057441E+02  0.20585884769E+02 -0.31206302855E+02  0.40659144385E+02  0.00000000000E+00 0. -1.
         11    1    3    3    0    0  0.21791472596E+02 -0.16742677564E+02  0.18756691297E+02  0.33271594471E+02  0.51100000000E-03 0. -1.
        -11    1    3    3    0    0 -0.39340829332E+01  0.29377936799E+01  0.53947343247E+01  0.72945732518E+01  0.51100000000E-03 0.  1.
        -12    1    3    3    0    0 -0.18713322221E+01 -0.67810008843E+01  0.70548772329E+01  0.99626878928E+01  0.00000000000E+00 0.  1.
</event>
<event>
 7    1  0.6136531E-013  0.5052886E+02  0.7816164E-02  0.1300439E+00
        -11   -1    0    0    0    0  0.00000000000E+00  0.00000000000E+00  0.45593999997E+02  0.45594000000E+02  0.51100000000E-03 0.  1.
         11   -1    0    0    0    0 -0.00000000000E+00 -0.00000000000E+00 -0.45593999997E+02  0.45594000000E+02  0.51100000000E-03 0. -1.
    9900012    2    1    2    0    0 -0.28899789085E+01  0.10351398392E+02  0.39213036378E+02  0.50528860206E+02  0.30000001083E+02 0.  0.
         12    1    1    2    0    0  0.28899789085E+01 -0.10351398392E+02 -0.39213036378E+02  0.40659139794E+02  0.00000000000E+00 0. -1.
         11    1    3    3    0    0 -0.78304714017E+01  0.10486294605E+02  0.25025188426E+02  0.28240727911E+02  0.51100000000E-03 0. -1.
        -11    1    3    3    0    0  0.54559167850E+01 -0.27656380647E+00 -0.22016732458E+01  0.58898965056E+01  0.51100000000E-03 0.  1.
        -12    1    3    3    0    0 -0.51542429181E+00  0.14166759319E+00  0.16389521198E+02  0.16398235790E+02  0.00000000000E+00 0.  1.
</event>
<event>
 7    1  0.6136531E-013  0.5052885E+02  0.7816164E-02  0.1300439E+00
        -11   -1    0    0    0    0  0.00000000000E+00  0.00000000000E+00  0.45593999997E+02  0.45594000000E+02  0.51100000000E-03 0.  1.
         11   -1    0    0    0    0 -0.00000000000E+00 -0.00000000000E+00 -0.45593999997E+02  0.45594000000E+02  0.51100000000E-03 0. -1.
    9900012    2    1    2    0    0 -0.23996009087E+02  0.31656409234E+02  0.86735121684E+01  0.50528849603E+02  0.29999968852E+02 0.  0.
         12    1    1    2    0    0  0.23996009087E+02 -0.31656409234E+02 -0.86735121684E+01  0.40659150397E+02  0.00000000000E+00 0. -1.
         11    1    3    3    0    0 -0.17103599415E+02  0.22755105238E+02 -0.58861546114E+01  0.29068449282E+02  0.51100000000E-03 0. -1.
        -11    1    3    3    0    0 -0.80349322482E+01  0.10778171644E+02  0.13377056861E+02  0.18965093481E+02  0.51100000000E-03 0.  1.
         12    1    3    3    0    0  0.11425225758E+01 -0.18768676472E+01  0.11826099183E+01  0.24953068389E+01  0.00000000000E+00 0. -1.
</event>
<event>
 7    1  0.6136531E-013  0.5052886E+02  0.7816164E-02  0.1300439E+00
        -11   -1    0    0    0    0  0.00000000000E+00  0.00000000000E+00  0.45593999997E+02  0.45594000000E+02  0.51100000000E-03 0.  1.
         11   -1    0    0    0    0 -0.00000000000E+00 -0.00000000000E+00 -0.45593999997E+02  0.45594000000E+02  0.51100000000E-03 0. -1.
    9900012    2    1    2    0    0  0.24287279680E+02  0.24856850355E+02  0.21105222274E+02  0.50528863622E+02  0.30000011464E+02 0.  0.
         12    1    1    2    0    0 -0.24287279680E+02 -0.24856850355E+02 -0.21105222274E+02  0.40659136378E+02  0.00000000000E+00 0. -1.
         11    1    3    3    0    0  0.18942556044E+02  0.78706905731E+01  0.22600694189E+02  0.30521460936E+02  0.51100000000E-03 0. -1.
        -11    1    3    3    0    0  0.48042843969E+01  0.13677181889E+02  0.25861003792E+01  0.14725296887E+02  0.51100000000E-03 0.  1.
         12    1    3    3    0    0  0.54043923909E+00  0.33089778931E+01 -0.40815722947E+01  0.52821057984E+01  0.00000000000E+00 0. -1.
</event>
<event>
 7    1  0.6136531E-013  0.5052885E+02  0.7816164E-02  0.1300439E+00
        -11   -1    0    0    0    0  0.00000000000E+00  0.00000000000E+00  0.45593999997E+02  0.45594000000E+02  0.51100000000E-03 0. -1.
         11   -1    0    0    0    0 -0.00000000000E+00 -0.00000000000E+00 -0.45593999997E+02  0.45594000000E+02  0.51100000000E-03 0.  1.
    9900012    2    1    2    0    0  0.18917649310E+02 -0.20800684764E+02 -0.29370401148E+02  0.50528850898E+02  0.29999972789E+02 0.  0.
         12    1    1    2    0    0 -0.18917649310E+02  0.20800684764E+02  0.29370401148E+02  0.40659149102E+02  0.00000000000E+00 0. -1.
         11    1    3    3    0    0  0.13511650059E+02 -0.19621212527E+02 -0.82009552950E+01  0.25195482460E+02  0.51100000000E-03 0. -1.
        -11    1    3    3    0    0  0.54627851382E+01 -0.53569458587E+01 -0.19290559923E+02  0.20752459922E+02  0.51100000000E-03 0.  1.
         12    1    3    3    0    0 -0.56785887214E-01  0.41774736216E+01 -0.18788859304E+01  0.45809085164E+01  0.00000000000E+00 0. -1.
</event>
<event>
 7    1  0.6136531E-013  0.5052886E+02  0.7816164E-02  0.1300439E+00
        -11   -1    0    0    0    0  0.00000000000E+00  0.00000000000E+00  0.45593999997E+02  0.45594000000E+02  0.51100000000E-03 0. -1.
         11   -1    0    0    0    0 -0.00000000000E+00 -0.00000000000E+00 -0.45593999997E+02  0.45594000000E+02  0.51100000000E-03 0.  1.
    9900012    2    1    2    0    0  0.23475139016E+02  0.25866789590E+02 -0.20808471028E+02  0.50528862995E+02  0.30000009559E+02 0.  0.
         12    1    1    2    0    0 -0.23475139016E+02 -0.25866789590E+02  0.20808471028E+02  0.40659137005E+02  0.00000000000E+00 0. -1.
         11    1    3    3    0    0  0.50296701870E+01  0.91087666958E+01  0.65877233013E+01  0.12315247113E+02  0.51100000000E-03 0. -1.
        -11    1    3    3    0    0  0.13910249662E+02  0.79576012061E+01 -0.21041894393E+02  0.26449570554E+02  0.51100000000E-03 0.  1.
        -12    1    3    3    0    0  0.45352191670E+01  0.88004216884E+01 -0.63542999361E+01  0.11764045327E+02  0.00000000000E+00 0.  1.
</event>
<event>
 7    1  0.6136531E-013  0.5052885E+02  0.7816164E-02  0.1300439E+00
        -11   -1    0    0    0    0  0.00000000000E+00  0.00000000000E+00  0.45593999997E+02  0.45594000000E+02  0.51100000000E-03 0.  1.
         11   -1    0    0    0    0 -0.00000000000E+00 -0.00000000000E+00 -0.45593999997E+02  0.45594000000E+02  0.51100000000E-03 0. -1.
    9900012    2    1    2    0    0 -0.38195204784E+02  0.12515858195E+02 -0.61356243860E+01  0.50528852672E+02  0.29999978182E+02 0.  0.
         12    1    1    2    0    0  0.38195204784E+02 -0.12515858195E+02  0.61356243860E+01  0.40659147328E+02  0.00000000000E+00 0. -1.
         11    1    3    3    0    0 -0.91583271199E+01  0.15583745474E+02  0.40178539044E+01  0.18516782358E+02  0.51100000000E-03 0. -1.
        -11    1    3    3    0    0 -0.23816182048E+02  0.84835547687E+00 -0.81048070216E+01  0.25171772514E+02  0.51100000000E-03 0.  1.
         12    1    3    3    0    0 -0.52206956152E+01 -0.39162427559E+01 -0.20486712688E+01  0.68402978004E+01  0.00000000000E+00 0. -1.
</event>
<event>
 7    1  0.6136531E-013  0.5052886E+02  0.7816164E-02  0.1300439E+00
        -11   -1    0    0    0    0  0.00000000000E+00  0.00000000000E+00  0.45593999997E+02  0.45594000000E+02  0.51100000000E-03 0. -1.
         11   -1    0    0    0    0 -0.00000000000E+00 -0.00000000000E+00 -0.45593999997E+02  0.45594000000E+02  0.51100000000E-03 0.  1.
    9900012    2    1    2    0    0  0.17102244898E+02 -0.26772109832E+02 -0.25375828550E+02  0.50528864250E+02  0.30000013374E+02 0.  0.
         12    1    1    2    0    0 -0.17102244898E+02  0.26772109832E+02  0.25375828550E+02  0.40659135750E+02  0.00000000000E+00 0. -1.
         11    1    3    3    0    0  0.11356872269E+02  0.11809168133E+01 -0.44472201991E+01  0.12253606817E+02  0.51100000000E-03 0. -1.
        -11    1    3    3    0    0  0.37131044001E+01 -0.18969627659E+02 -0.21666080707E+02  0.29035374481E+02  0.51100000000E-03 0.  1.
        -12    1    3    3    0    0  0.20322682284E+01 -0.89833989857E+01  0.73747235616E+00  0.92398829518E+01  0.00000000000E+00 0.  1.
</event>
<event>
 7    1  0.6136531E-013  0.5052886E+02  0.7816164E-02  0.1300439E+00
        -11   -1    0    0    0    0  0.00000000000E+00  0.00000000000E+00  0.45593999997E+02  0.45594000000E+02  0.51100000000E-03 0.  1.
         11   -1    0    0    0    0 -0.00000000000E+00 -0.00000000000E+00 -0.45593999997E+02  0.45594000000E+02  0.51100000000E-03 0. -1.
    9900012    2    1    2    0    0  0.32222130322E+02  0.17373030381E+02  0.17694009595E+02  0.50528857822E+02  0.29999993836E+02 0.  0.
         12    1    1    2    0    0 -0.32222130322E+02 -0.17373030381E+02 -0.17694009595E+02  0.40659142178E+02  0.00000000000E+00 0. -1.
         11    1    3    3    0    0  0.17891628568E+01  0.75493815869E+00 -0.53609473602E+01  0.57018235865E+01  0.51100000000E-03 0. -1.
        -11    1    3    3    0    0  0.26359194249E+02  0.15387419210E+02  0.25627673743E+02  0.39854202453E+02  0.51100000000E-03 0.  1.
        -12    1    3    3    0    0  0.40737732157E+01  0.12306730123E+01 -0.25727167873E+01  0.49728317832E+01  0.00000000000E+00 0.  1.
</event>
<event>
 7    1  0.6136531E-013  0.5052886E+02  0.7816164E-02  0.1300439E+00
        -11   -1    0    0    0    0  0.00000000000E+00  0.00000000000E+00  0.45593999997E+02  0.45594000000E+02  0.51100000000E-03 0.  1.
         11   -1    0    0    0    0 -0.00000000000E+00 -0.00000000000E+00 -0.45593999997E+02  0.45594000000E+02  0.51100000000E-03 0. -1.
    9900012    2    1    2    0    0 -0.37487819866E+02  0.43020682982E+01  0.15143353623E+02  0.50528860943E+02  0.30000003321E+02 0.  0.
         12    1    1    2    0    0  0.37487819866E+02 -0.43020682982E+01 -0.15143353623E+02  0.40659139057E+02  0.00000000000E+00 0. -1.
         11    1    3    3    0    0  0.21150231749E+01  0.14092483755E+01  0.29823291365E+01  0.39183659036E+01  0.51100000000E-03 0. -1.
        -11    1    3    3    0    0 -0.40371574244E+02  0.41343142257E+01  0.15122381305E+02  0.43308694019E+02  0.51100000000E-03 0.  1.
        -12    1    3    3    0    0  0.76873120295E+00 -0.12414943031E+01 -0.29613568188E+01  0.33018010199E+01  0.00000000000E+00 0.  1.
</event>
<event>
 7    1  0.6136531E-013  0.5052885E+02  0.7816164E-02  0.1300439E+00
        -11   -1    0    0    0    0  0.00000000000E+00  0.00000000000E+00  0.45593999997E+02  0.45594000000E+02  0.51100000000E-03 0. -1.
         11   -1    0    0    0    0 -0.00000000000E+00 -0.00000000000E+00 -0.45593999997E+02  0.45594000000E+02  0.51100000000E-03 0.  1.
    9900012    2    1    2    0    0 -0.38242547640E+02  0.13590802875E+02 -0.24421765524E+01  0.50528848519E+02  0.29999965560E+02 0.  0.
         12    1    1    2    0    0  0.38242547640E+02 -0.13590802875E+02  0.24421765524E+01  0.40659151481E+02  0.00000000000E+00 0. -1.
         11    1    3    3    0    0 -0.85923511656E+00  0.10712431790E+02 -0.25338149321E+01  0.11041498912E+02  0.51100000000E-03 0. -1.
        -11    1    3    3    0    0 -0.11636847933E+02 -0.39146546837E+01 -0.31171343441E+01  0.12667173240E+02  0.51100000000E-03 0.  1.
         12    1    3    3    0    0 -0.25746464591E+02  0.67930257686E+01  0.32087727238E+01  0.26820176368E+02  0.00000000000E+00 0. -1.
</event>
<event>
 7    1  0.6136531E-013  0.5052887E+02  0.7816164E-02  0.1300439E+00
        -11   -1    0    0    0    0  0.00000000000E+00  0.00000000000E+00  0.45593999997E+02  0.45594000000E+02  0.51100000000E-03 0. -1.
         11   -1    0    0    0    0 -0.00000000000E+00 -0.00000000000E+00 -0.45593999997E+02  0.45594000000E+02  0.51100000000E-03 0.  1.
    9900012    2    1    2    0    0 -0.30760840649E+02 -0.20523621741E+02 -0.16903156001E+02  0.50528867575E+02  0.30000023480E+02 0.  0.
         12    1    1    2    0    0  0.30760840649E+02  0.20523621741E+02  0.16903156001E+02  0.40659132425E+02  0.00000000000E+00 0. -1.
         11    1    3    3    0    0 -0.15217968426E+02 -0.24861434692E+02 -0.54672535244E+01  0.29657517754E+02  0.51100000000E-03 0. -1.
        -11    1    3    3    0    0 -0.28827827100E+01  0.28081451397E+01 -0.54744522265E+01  0.67945377120E+01  0.51100000000E-03 0.  1.
         12    1    3    3    0    0 -0.12660089512E+02  0.15296678105E+01 -0.59614502501E+01  0.14076812109E+02  0.00000000000E+00 0. -1.
</event>
<event>
 7    1  0.6136531E-013  0.5052886E+02  0.7816164E-02  0.1300439E+00
        -11   -1    0    0    0    0  0.00000000000E+00  0.00000000000E+00  0.45593999997E+02  0.45594000000E+02  0.51100000000E-03 0.  1.
         11   -1    0    0    0    0 -0.00000000000E+00 -0.00000000000E+00 -0.45593999997E+02  0.45594000000E+02  0.51100000000E-03 0. -1.
    9900012    2    1    2    0    0 -0.12339786897E+02 -0.14654466096E+02  0.35862819357E+02  0.50528861674E+02  0.30000005544E+02 0.  0.
         12    1    1    2    0    0  0.12339786897E+02  0.14654466096E+02 -0.35862819357E+02  0.40659138326E+02  0.00000000000E+00 0. -1.
         11    1    3    3    0    0 -0.10500258780E+02 -0.20740758809E+02  0.19276031044E+02  0.30199335812E+02  0.51100000000E-03 0. -1.
        -11    1    3    3    0    0  0.13004552463E+01 -0.21582165271E+01  0.17495573656E+01  0.30675778168E+01  0.51100000000E-03 0.  1.
         12    1    3    3    0    0 -0.31399833631E+01  0.82445092402E+01  0.14837230947E+02  0.17261948045E+02  0.00000000000E+00 0. -1.
</event>
<event>
 7    1  0.6136531E-013  0.5052885E+02  0.7816164E-02  0.1300439E+00
        -11   -1    0    0    0    0  0.00000000000E+00  0.00000000000E+00  0.45593999997E+02  0.45594000000E+02  0.51100000000E-03 0.  1.
         11   -1    0    0    0    0 -0.00000000000E+00 -0.00000000000E+00 -0.45593999997E+02  0.45594000000E+02  0.51100000000E-03 0. -1.
    9900012    2    1    2    0    0  0.22574259093E+02  0.25090981544E+02  0.22671830215E+02  0.50528850800E+02  0.29999972490E+02 0.  0.
         12    1    1    2    0    0 -0.22574259093E+02 -0.25090981544E+02 -0.22671830215E+02  0.40659149200E+02  0.00000000000E+00 0. -1.
         11    1    3    3    0    0 -0.22634440268E-03  0.15650138128E+02  0.60983545239E+01  0.16796331493E+02  0.51100000000E-03 0. -1.
        -11    1    3    3    0    0  0.13218892389E+02 -0.28541733917E+01  0.10542792305E+02  0.17147474788E+02  0.51100000000E-03 0.  1.
        -12    1    3    3    0    0  0.93555930479E+01  0.12295016808E+02  0.60306833860E+01  0.16585044519E+02  0.00000000000E+00 0.  1.
</event>
<event>
 7    1  0.6136531E-013  0.5052886E+02  0.7816164E-02  0.1300439E+00
        -11   -1    0    0    0    0  0.00000000000E+00  0.00000000000E+00  0.45593999997E+02  0.45594000000E+02  0.51100000000E-03 0.  1.
         11   -1    0    0    0    0 -0.00000000000E+00 -0.00000000000E+00 -0.45593999997E+02  0.45594000000E+02  0.51100000000E-03 0. -1.
    9900012    2    1    2    0    0  0.31663627827E+02 -0.18897323293E+02  0.17131001081E+02  0.50528863845E+02  0.30000012142E+02 0.  0.
         12    1    1    2    0    0 -0.31663627827E+02  0.18897323293E+02 -0.17131001081E+02  0.40659136155E+02  0.00000000000E+00 0. -1.
         11    1    3    3    0    0 -0.54351183898E+01 -0.29751751918E+01  0.95762985205E+00  0.62697076908E+01  0.51100000000E-03 0. -1.
        -11    1    3    3    0    0  0.24630721163E+02 -0.63418740394E+01  0.90372645300E+01  0.26991923640E+02  0.51100000000E-03 0.  1.
         12    1    3    3    0    0  0.12468025054E+02 -0.95802740621E+01  0.71361066994E+01  0.17267232514E+02  0.00000000000E+00 0. -1.
</event>
<event>
 7    1  0.6136531E-013  0.5052889E+02  0.7816164E-02  0.1300439E+00
        -11   -1    0    0    0    0  0.00000000000E+00  0.00000000000E+00  0.45593999997E+02  0.45594000000E+02  0.51100000000E-03 0.  1.
         11   -1    0    0    0    0 -0.00000000000E+00 -0.00000000000E+00 -0.45593999997E+02  0.45594000000E+02  0.51100000000E-03 0. -1.
    9900012    2    1    2    0    0  0.30840944981E+02  0.59226734238E+01  0.25824818172E+02  0.50528890548E+02  0.30000093310E+02 0.  0.
         12    1    1    2    0    0 -0.30840944981E+02 -0.59226734238E+01 -0.25824818172E+02  0.40659109452E+02  0.00000000000E+00 0. -1.
         11    1    3    3    0    0  0.77681069031E+01 -0.36546654393E+01 -0.37613345273E+01  0.93727104948E+01  0.51100000000E-03 0. -1.
        -11    1    3    3    0    0  0.16745620264E+02 -0.40474743386E+00  0.18415456060E+02  0.24893947873E+02  0.51100000000E-03 0.  1.
         12    1    3    3    0    0  0.63272178137E+01  0.99820862970E+01  0.11170696639E+02  0.16262232181E+02  0.00000000000E+00 0. -1.
</event>
<event>
 7    1  0.6136531E-013  0.5052886E+02  0.7816164E-02  0.1300439E+00
        -11   -1    0    0    0    0  0.00000000000E+00  0.00000000000E+00  0.45593999997E+02  0.45594000000E+02  0.51100000000E-03 0.  1.
         11   -1    0    0    0    0 -0.00000000000E+00 -0.00000000000E+00 -0.45593999997E+02  0.45594000000E+02  0.51100000000E-03 0. -1.
    9900012    2    1    2    0    0  0.49403376103E+01  0.76868452956E+01  0.39619074711E+02  0.50528860717E+02  0.30000002635E+02 0.  0.
         12    1    1    2    0    0 -0.49403376103E+01 -0.76868452956E+01 -0.39619074711E+02  0.40659139283E+02  0.00000000000E+00 0. -1.
         11    1    3    3    0    0  0.59044750315E+01  0.11646253792E+02  0.86540067858E+01  0.15664925359E+02  0.51100000000E-03 0. -1.
        -11    1    3    3    0    0  0.49732979623E+01 -0.26828072739E+01  0.27059879423E+02  0.27643592787E+02  0.51100000000E-03 0.  1.
         12    1    3    3    0    0 -0.59374353836E+01 -0.12766012226E+01  0.39051885014E+01  0.72203425714E+01  0.00000000000E+00 0. -1.
</event>
<event>
 7    1  0.6136531E-013  0.5052886E+02  0.7816164E-02  0.1300439E+00
        -11   -1    0    0    0    0  0.00000000000E+00  0.00000000000E+00  0.45593999997E+02  0.45594000000E+02  0.51100000000E-03 0.  1.
         11   -1    0    0    0    0 -0.00000000000E+00 -0.00000000000E+00 -0.45593999997E+02  0.45594000000E+02  0.51100000000E-03 0. -1.
    9900012    2    1    2    0    0  0.11047542985E+02  0.38218465195E+02  0.83944147962E+01  0.50528862187E+02  0.30000007104E+02 0.  0.
         12    1    1    2    0    0 -0.11047542985E+02 -0.38218465195E+02 -0.83944147962E+01  0.40659137813E+02  0.00000000000E+00 0. -1.
         11    1    3    3    0    0  0.26243147085E+01  0.13131193645E+02 -0.55172337982E+01  0.14482925922E+02  0.51100000000E-03 0. -1.
        -11    1    3    3    0    0  0.71204567647E+01  0.10488281111E+02  0.16861155160E+02  0.21095106039E+02  0.51100000000E-03 0.  1.
        -12    1    3    3    0    0  0.13027715121E+01  0.14598990439E+02 -0.29495065657E+01  0.14950830226E+02  0.00000000000E+00 0.  1.
</event>
<event>
 7    1  0.6136531E-013  0.5052886E+02  0.7816164E-02  0.1300439E+00
        -11   -1    0    0    0    0  0.00000000000E+00  0.00000000000E+00  0.45593999997E+02  0.45594000000E+02  0.51100000000E-03 0.  1.
         11   -1    0    0    0    0 -0.00000000000E+00 -0.00000000000E+00 -0.45593999997E+02  0.45594000000E+02  0.51100000000E-03 0. -1.
    9900012    2    1    2    0    0 -0.24377942020E+02 -0.13453952952E+02  0.29628918337E+02  0.50528859465E+02  0.29999998831E+02 0.  0.
         12    1    1    2    0    0  0.24377942020E+02  0.13453952952E+02 -0.29628918337E+02  0.40659140535E+02  0.00000000000E+00 0. -1.
         11    1    3    3    0    0 -0.48515112669E+01  0.83482402987E+01  0.82371144641E+01  0.12691742694E+02  0.51100000000E-03 0. -1.
        -11    1    3    3    0    0 -0.13157020265E+02 -0.19356759603E+02  0.20188680162E+02  0.30909126994E+02  0.51100000000E-03 0.  1.
         12    1    3    3    0    0 -0.63694104877E+01 -0.24454336476E+01  0.12031237110E+01  0.69279897769E+01  0.00000000000E+00 0. -1.
</event>
<event>
 7    1  0.6136531E-013  0.5052885E+02  0.7816164E-02  0.1300439E+00
        -11   -1    0    0    0    0  0.00000000000E+00  0.00000000000E+00  0.45593999997E+02  0.45594000000E+02  0.51100000000E-03 0. -1.
         11   -1    0    0    0    0 -0.00000000000E+00 -0.00000000000E+00 -0.45593999997E+02  0.45594000000E+02  0.51100000000E-03 0.  1.
    9900012    2    1    2    0    0  0.23064926189E+02 -0.26157316690E+02 -0.20903832717E+02  0.50528852705E+02  0.29999978281E+02 0.  0.
         12    1    1    2    0    0 -0.23064926189E+02  0.26157316690E+02  0.20903832717E+02  0.40659147295E+02  0.00000000000E+00 0. -1.
         11    1    3    3    0    0 -0.14705477678E+01 -0.10888423240E+02 -0.18374765827E+02  0.21409163712E+02  0.51100000000E-03 0. -1.
        -11    1    3    3    0    0  0.18809716166E+02 -0.11268635722E+02 -0.29389356825E+01  0.22122949995E+02  0.51100000000E-03 0.  1.
         12    1    3    3    0    0  0.57257577915E+01 -0.40002577279E+01  0.40986879230E+00  0.69967389978E+01  0.00000000000E+00 0. -1.
</event>
<event>
 7    1  0.6136531E-013  0.5052886E+02  0.7816164E-02  0.1300439E+00
        -11   -1    0    0    0    0  0.00000000000E+00  0.00000000000E+00  0.45593999997E+02  0.45594000000E+02  0.51100000000E-03 0.  1.
         11   -1    0    0    0    0 -0.00000000000E+00 -0.00000000000E+00 -0.45593999997E+02  0.45594000000E+02  0.51100000000E-03 0. -1.
    9900012    2    1    2    0    0 -0.31525365134E+02  0.15597393174E+02  0.20397024307E+02  0.50528856856E+02  0.29999990898E+02 0.  0.
         12    1    1    2    0    0  0.31525365134E+02 -0.15597393174E+02 -0.20397024307E+02  0.40659143144E+02  0.00000000000E+00 0. -1.
         11    1    3    3    0    0 -0.17769127269E+01  0.12483179677E+00 -0.23596848176E+01  0.29565375891E+01  0.51100000000E-03 0. -1.
        -11    1    3    3    0    0 -0.18581436885E+02  0.19329242196E+02  0.23612270625E+02  0.35727142691E+02  0.51100000000E-03 0.  1.
        -12    1    3    3    0    0 -0.11167015523E+02 -0.38566808185E+01 -0.85556150059E+00  0.11845176575E+02  0.00000000000E+00 0.  1.
</event>
<event>
 7    1  0.6149804E-013  0.5052882E+02  0.7816164E-02  0.1300439E+00
        -11   -1    0    0    0    0  0.00000000000E+00  0.00000000000E+00  0.45593999997E+02  0.45594000000E+02  0.51100000000E-03 0. -1.
         11   -1    0    0    0    0 -0.00000000000E+00 -0.00000000000E+00 -0.45593999997E+02  0.45594000000E+02  0.51100000000E-03 0.  1.
    9900012    2    1    2    0    0 -0.35854554041E+02  0.35012123859E+01 -0.18851042015E+02  0.50528815076E+02  0.29999863903E+02 0.  0.
         12    1    1    2    0    0  0.35854554041E+02 -0.35012123859E+01  0.18851042015E+02  0.40659184924E+02  0.00000000000E+00 0. -1.
         11    1    3    3    0    0  0.25661799260E+01  0.26856677409E+01 -0.13469610168E+01  0.39512523165E+01  0.51100000000E-03 0. -1.
        -11    1    3    3    0    0 -0.22146804813E+02 -0.87553433714E+01 -0.13143298801E+02  0.27200796029E+02  0.51100000000E-03 0.  1.
        -12    1    3    3    0    0 -0.16273929154E+02  0.95708880165E+01 -0.43607821974E+01  0.19376766730E+02  0.00000000000E+00 0.  1.
</event>
<event>
 7    1  0.6136531E-013  0.5052884E+02  0.7816164E-02  0.1300439E+00
        -11   -1    0    0    0    0  0.00000000000E+00  0.00000000000E+00  0.45593999997E+02  0.45594000000E+02  0.51100000000E-03 0. -1.
         11   -1    0    0    0    0 -0.00000000000E+00 -0.00000000000E+00 -0.45593999997E+02  0.45594000000E+02  0.51100000000E-03 0.  1.
    9900012    2    1    2    0    0 -0.18695060101E+02 -0.21178051886E+02 -0.29242980378E+02  0.50528842910E+02  0.29999948508E+02 0.  0.
         12    1    1    2    0    0  0.18695060101E+02  0.21178051886E+02  0.29242980378E+02  0.40659157090E+02  0.00000000000E+00 0. -1.
         11    1    3    3    0    0  0.16969018647E+01 -0.14336965946E+02 -0.95899784636E+01  0.17331928792E+02  0.51100000000E-03 0. -1.
        -11    1    3    3    0    0 -0.21910421217E+02 -0.63082939230E+01 -0.21075608702E+02  0.31049032393E+02  0.51100000000E-03 0.  1.
        -12    1    3    3    0    0  0.15184592510E+01 -0.53279201764E+00  0.14226067874E+01  0.21478817245E+01  0.00000000000E+00 0.  1.
</event>
<event>
 7    1  0.6136531E-013  0.5052887E+02  0.7816164E-02  0.1300439E+00
        -11   -1    0    0    0    0  0.00000000000E+00  0.00000000000E+00  0.45593999997E+02  0.45594000000E+02  0.51100000000E-03 0.  1.
         11   -1    0    0    0    0 -0.00000000000E+00 -0.00000000000E+00 -0.45593999997E+02  0.45594000000E+02  0.51100000000E-03 0. -1.
    9900012    2    1    2    0    0  0.22346903721E+02  0.23318681764E+01  0.33887215247E+02  0.50528867295E+02  0.30000022630E+02 0.  0.
         12    1    1    2    0    0 -0.22346903721E+02 -0.23318681764E+01 -0.33887215247E+02  0.40659132705E+02  0.00000000000E+00 0. -1.
         11    1    3    3    0    0  0.11776451295E+02  0.10906827863E+02  0.94722379922E+01  0.18637783988E+02  0.51100000000E-03 0. -1.
        -11    1    3    3    0    0  0.14461855490E+02 -0.76380551408E+01  0.21084352835E+02  0.26683985558E+02  0.51100000000E-03 0.  1.
         12    1    3    3    0    0 -0.38914030645E+01 -0.93690454540E+00  0.33306244203E+01  0.52070977489E+01  0.00000000000E+00 0. -1.
</event>
<event>
 7    1  0.6136531E-013  0.5052887E+02  0.7816164E-02  0.1300439E+00
        -11   -1    0    0    0    0  0.00000000000E+00  0.00000000000E+00  0.45593999997E+02  0.45594000000E+02  0.51100000000E-03 0.  1.
         11   -1    0    0    0    0 -0.00000000000E+00 -0.00000000000E+00 -0.45593999997E+02  0.45594000000E+02  0.51100000000E-03 0. -1.
    9900012    2    1    2    0    0 -0.34946998704E+01  0.16468950840E+02  0.37009806475E+02  0.50528867640E+02  0.30000023677E+02 0.  0.
         12    1    1    2    0    0  0.34946998704E+01 -0.16468950840E+02 -0.37009806475E+02  0.40659132360E+02  0.00000000000E+00 0. -1.
         11    1    3    3    0    0  0.94473254324E+01  0.94366695726E+01  0.13119255973E+02  0.18719443582E+02  0.51100000000E-03 0. -1.
        -11    1    3    3    0    0 -0.13162463675E+02  0.10688180162E+02  0.17024003021E+02  0.24027158057E+02  0.51100000000E-03 0.  1.
         12    1    3    3    0    0  0.22043837206E+00 -0.36558988944E+01  0.68665474810E+01  0.77822660010E+01  0.00000000000E+00 0. -1.
</event>
<event>
 7    1  0.6136531E-013  0.5052885E+02  0.7816164E-02  0.1300439E+00
        -11   -1    0    0    0    0  0.00000000000E+00  0.00000000000E+00  0.45593999997E+02  0.45594000000E+02  0.51100000000E-03 0. -1.
         11   -1    0    0    0    0 -0.00000000000E+00 -0.00000000000E+00 -0.45593999997E+02  0.45594000000E+02  0.51100000000E-03 0.  1.
    9900012    2    1    2    0    0  0.26313460494E+02  0.30950604199E+02 -0.16818453267E+01  0.50528847191E+02  0.29999961521E+02 0.  0.
         12    1    1    2    0    0 -0.26313460494E+02 -0.30950604199E+02  0.16818453267E+01  0.40659152809E+02  0.00000000000E+00 0. -1.
         11    1    3    3    0    0  0.87271378921E+01 -0.12052342987E+01  0.32122398189E+01  0.93773136034E+01  0.51100000000E-03 0. -1.
        -11    1    3    3    0    0  0.20837737752E+02  0.24462759455E+02 -0.16033176734E+01  0.32174656838E+02  0.51100000000E-03 0.  1.
        -12    1    3    3    0    0 -0.32514151497E+01  0.76930790422E+01 -0.32907674722E+01  0.89768767498E+01  0.00000000000E+00 0.  1.
</event>
<event>
 7    1  0.6136531E-013  0.5052891E+02  0.7816164E-02  0.1300439E+00
        -11   -1    0    0    0    0  0.00000000000E+00  0.00000000000E+00  0.45593999997E+02  0.45594000000E+02  0.51100000000E-03 0. -1.
         11   -1    0    0    0    0 -0.00000000000E+00 -0.00000000000E+00 -0.45593999997E+02  0.45594000000E+02  0.51100000000E-03 0.  1.
    9900012    2    1    2    0    0  0.23247840626E+02  0.17333732354E+02 -0.28499842091E+02  0.50528912820E+02  0.30000161007E+02 0.  0.
         12    1    1    2    0    0 -0.23247840626E+02 -0.17333732354E+02  0.28499842091E+02  0.40659087180E+02  0.00000000000E+00 0. -1.
         11    1    3    3    0    0  0.94858074081E+00 -0.20511042664E+01  0.19130163486E+01  0.29608218360E+01  0.51100000000E-03 0. -1.
        -11    1    3    3    0    0  0.15361948816E+02  0.23789693915E+02 -0.24478304739E+02  0.37431623143E+02  0.51100000000E-03 0.  1.
        -12    1    3    3    0    0  0.69373110695E+01 -0.44048572945E+01 -0.59345537006E+01  0.10136467841E+02  0.00000000000E+00 0.  1.
</event>
<event>
 7    1  0.6136531E-013  0.5052884E+02  0.7816164E-02  0.1300439E+00
        -11   -1    0    0    0    0  0.00000000000E+00  0.00000000000E+00  0.45593999997E+02  0.45594000000E+02  0.51100000000E-03 0.  1.
         11   -1    0    0    0    0 -0.00000000000E+00 -0.00000000000E+00 -0.45593999997E+02  0.45594000000E+02  0.51100000000E-03 0. -1.
    9900012    2    1    2    0    0  0.27563290756E+02  0.81413559487E+01  0.28760224175E+02  0.50528841517E+02  0.29999944275E+02 0.  0.
         12    1    1    2    0    0 -0.27563290756E+02 -0.81413559487E+01 -0.28760224175E+02  0.40659158483E+02  0.00000000000E+00 0. -1.
         11    1    3    3    0    0  0.15433808983E+02  0.10679145804E+02  0.25308041373E+02  0.31507833522E+02  0.51100000000E-03 0. -1.
        -11    1    3    3    0    0  0.13061516015E+02 -0.26755945159E+01 -0.20053831293E+01  0.13482713687E+02  0.51100000000E-03 0.  1.
        -12    1    3    3    0    0 -0.93203424187E+00  0.13780466069E+00  0.54575659308E+01  0.55382943079E+01  0.00000000000E+00 0.  1.
</event>
<event>
 7    1  0.6136531E-013  0.5052886E+02  0.7816164E-02  0.1300439E+00
        -11   -1    0    0    0    0  0.00000000000E+00  0.00000000000E+00  0.45593999997E+02  0.45594000000E+02  0.51100000000E-03 0. -1.
         11   -1    0    0    0    0 -0.00000000000E+00 -0.00000000000E+00 -0.45593999997E+02  0.45594000000E+02  0.51100000000E-03 0.  1.
    9900012    2    1    2    0    0 -0.26727526292E+02  0.30023212702E+02 -0.61165297542E+01  0.50528857131E+02  0.29999991734E+02 0.  0.
         12    1    1    2    0    0  0.26727526292E+02 -0.30023212702E+02  0.61165297542E+01  0.40659142869E+02  0.00000000000E+00 0. -1.
         11    1    3    3    0    0 -0.24613106996E+01  0.12794066399E+02 -0.76510617779E+01  0.15109100965E+02  0.51100000000E-03 0. -1.
        -11    1    3    3    0    0 -0.16370031595E+02  0.13441009689E+00  0.25214376653E+01  0.16563624260E+02  0.51100000000E-03 0.  1.
        -12    1    3    3    0    0 -0.78961839980E+01  0.17094736206E+02 -0.98690564165E+00  0.18856131905E+02  0.00000000000E+00 0.  1.
</event>
<event>
 7    1  0.6136531E-013  0.5052892E+02  0.7816164E-02  0.1300439E+00
        -11   -1    0    0    0    0  0.00000000000E+00  0.00000000000E+00  0.45593999997E+02  0.45594000000E+02  0.51100000000E-03 0. -1.
         11   -1    0    0    0    0 -0.00000000000E+00 -0.00000000000E+00 -0.45593999997E+02  0.45594000000E+02  0.51100000000E-03 0.  1.
    9900012    2    1    2    0    0 -0.33966577624E+02 -0.22314160545E+02 -0.12289867984E+01  0.50528922725E+02  0.30000191113E+02 0.  0.
         12    1    1    2    0    0  0.33966577624E+02  0.22314160545E+02  0.12289867984E+01  0.40659077275E+02  0.00000000000E+00 0. -1.
         11    1    3    3    0    0 -0.16454824835E+02 -0.24688587151E+02 -0.24282894578E+01  0.29768845893E+02  0.51100000000E-03 0. -1.
        -11    1    3    3    0    0 -0.14181550477E+02 -0.10421451859E+01 -0.28496358117E+01  0.14502512370E+02  0.51100000000E-03 0.  1.
         12    1    3    3    0    0 -0.33302023126E+01  0.34165717916E+01  0.40489384711E+01  0.62575644617E+01  0.00000000000E+00 0. -1.
</event>
<event>
 7    1  0.6136531E-013  0.5052886E+02  0.7816164E-02  0.1300439E+00
        -11   -1    0    0    0    0  0.00000000000E+00  0.00000000000E+00  0.45593999997E+02  0.45594000000E+02  0.51100000000E-03 0. -1.
         11   -1    0    0    0    0 -0.00000000000E+00 -0.00000000000E+00 -0.45593999997E+02  0.45594000000E+02  0.51100000000E-03 0.  1.
    9900012    2    1    2    0    0 -0.29766995509E+02  0.26866326932E+02  0.67299366651E+01  0.50528860905E+02  0.30000003208E+02 0.  0.
         12    1    1    2    0    0  0.29766995509E+02 -0.26866326932E+02 -0.67299366651E+01  0.40659139095E+02  0.00000000000E+00 0. -1.
         11    1    3    3    0    0 -0.49411051141E+00  0.14191611504E+02 -0.10088685582E+01  0.14236003593E+02  0.51100000000E-03 0. -1.
        -11    1    3    3    0    0 -0.22298426341E+02  0.28831503104E+01  0.98854525330E+00  0.22505768038E+02  0.51100000000E-03 0.  1.
         12    1    3    3    0    0 -0.69744586564E+01  0.97915651172E+01  0.67502599699E+01  0.13787089274E+02  0.00000000000E+00 0. -1.
</event>
<event>
 7    1  0.6136531E-013  0.5052886E+02  0.7816164E-02  0.1300439E+00
        -11   -1    0    0    0    0  0.00000000000E+00  0.00000000000E+00  0.45593999997E+02  0.45594000000E+02  0.51100000000E-03 0. -1.
         11   -1    0    0    0    0 -0.00000000000E+00 -0.00000000000E+00 -0.45593999997E+02  0.45594000000E+02  0.51100000000E-03 0.  1.
    9900012    2    1    2    0    0  0.24817629931E+02 -0.23510316998E+02 -0.22011713981E+02  0.50528864334E+02  0.30000013631E+02 0.  0.
         12    1    1    2    0    0 -0.24817629931E+02  0.23510316998E+02  0.22011713981E+02  0.40659135666E+02  0.00000000000E+00 0. -1.
         11    1    3    3    0    0  0.22033634517E+01 -0.67984018693E+01 -0.51191059129E+01  0.87908090689E+01  0.51100000000E-03 0. -1.
        -11    1    3    3    0    0  0.23927999529E+02 -0.11084102777E+02 -0.28149867567E+01  0.26520381719E+02  0.51100000000E-03 0.  1.
        -12    1    3    3    0    0 -0.13137330499E+01 -0.56278123522E+01 -0.14077621311E+02  0.15217673547E+02  0.00000000000E+00 0.  1.
</event>
<event>
 7    1  0.6136531E-013  0.5052885E+02  0.7816164E-02  0.1300439E+00
        -11   -1    0    0    0    0  0.00000000000E+00  0.00000000000E+00  0.45593999997E+02  0.45594000000E+02  0.51100000000E-03 0.  1.
         11   -1    0    0    0    0 -0.00000000000E+00 -0.00000000000E+00 -0.45593999997E+02  0.45594000000E+02  0.51100000000E-03 0. -1.
    9900012    2    1    2    0    0  0.79889862956E+01  0.38576051892E+02  0.10061332370E+02  0.50528854772E+02  0.29999984566E+02 0.  0.
         12    1    1    2    0    0 -0.79889862956E+01 -0.38576051892E+02 -0.10061332370E+02  0.40659145228E+02  0.00000000000E+00 0. -1.
         11    1    3    3    0    0  0.11227635090E+02  0.16483644518E+02 -0.29587114801E+01  0.20162447773E+02  0.51100000000E-03 0. -1.
        -11    1    3    3    0    0  0.30272076278E+01  0.12612192635E+02  0.13846606153E+02  0.18972608975E+02  0.51100000000E-03 0.  1.
         12    1    3    3    0    0 -0.62658564218E+01  0.94802147387E+01 -0.82656230333E+00  0.11393798025E+02  0.00000000000E+00 0. -1.
</event>
<event>
 7    1  0.6136531E-013  0.5052887E+02  0.7816164E-02  0.1300439E+00
        -11   -1    0    0    0    0  0.00000000000E+00  0.00000000000E+00  0.45593999997E+02  0.45594000000E+02  0.51100000000E-03 0.  1.
         11   -1    0    0    0    0 -0.00000000000E+00 -0.00000000000E+00 -0.45593999997E+02  0.45594000000E+02  0.51100000000E-03 0. -1.
    9900012    2    1    2    0    0  0.97765369305E+01 -0.29120711656E+02  0.26637717266E+02  0.50528874298E+02  0.30000043916E+02 0.  0.
         12    1    1    2    0    0 -0.97765369305E+01  0.29120711656E+02 -0.26637717266E+02  0.40659125702E+02  0.00000000000E+00 0. -1.
         11    1    3    3    0    0 -0.27457468060E+01 -0.20659268003E+02  0.81708879704E+01  0.22385439250E+02  0.51100000000E-03 0.  1.
        -11    1    3    3    0    0  0.35276438056E+01  0.34349405624E+00  0.14528775420E+02  0.14954851201E+02  0.51100000000E-03 0. -1.
         12    1    3    3    0    0  0.89946399309E+01 -0.88049377096E+01  0.39380538757E+01  0.13188583847E+02  0.00000000000E+00 0. -1.
</event>
<event>
 7    1  0.6136531E-013  0.5052881E+02  0.7816164E-02  0.1300439E+00
        -11   -1    0    0    0    0  0.00000000000E+00  0.00000000000E+00  0.45593999997E+02  0.45594000000E+02  0.51100000000E-03 0.  1.
         11   -1    0    0    0    0 -0.00000000000E+00 -0.00000000000E+00 -0.45593999997E+02  0.45594000000E+02  0.51100000000E-03 0. -1.
    9900012    2    1    2    0    0 -0.28936557912E+02  0.28009086122E+02  0.55979142535E+01  0.50528807519E+02  0.29999840935E+02 0.  0.
         12    1    1    2    0    0  0.28936557912E+02 -0.28009086122E+02 -0.55979142535E+01  0.40659192481E+02  0.00000000000E+00 0. -1.
         11    1    3    3    0    0 -0.52659179834E+00 -0.20139634342E+01  0.50307999790E+00  0.21415969233E+01  0.51100000000E-03 0. -1.
        -11    1    3    3    0    0 -0.27780487416E+02  0.13156490351E+02 -0.62828179430E-01  0.30738455834E+02  0.51100000000E-03 0.  1.
        -12    1    3    3    0    0 -0.62947869791E+00  0.16866559206E+02  0.51576624351E+01  0.17648754763E+02  0.00000000000E+00 0.  1.
</event>
<event>
 7    1  0.6136531E-013  0.5052886E+02  0.7816164E-02  0.1300439E+00
        -11   -1    0    0    0    0  0.00000000000E+00  0.00000000000E+00  0.45593999997E+02  0.45594000000E+02  0.51100000000E-03 0. -1.
         11   -1    0    0    0    0 -0.00000000000E+00 -0.00000000000E+00 -0.45593999997E+02  0.45594000000E+02  0.51100000000E-03 0.  1.
    9900012    2    1    2    0    0  0.29813490976E+02 -0.82399557270E+01 -0.26389863278E+02  0.50528855907E+02  0.29999988014E+02 0.  0.
         12    1    1    2    0    0 -0.29813490976E+02  0.82399557270E+01  0.26389863278E+02  0.40659144093E+02  0.00000000000E+00 0. -1.
         11    1    3    3    0    0  0.86072311310E+00  0.38108535332E+01  0.44011196310E+00  0.39315579266E+01  0.51100000000E-03 0. -1.
        -11    1    3    3    0    0  0.17151374456E+02 -0.13514073588E+02 -0.26974312318E+02  0.34704658994E+02  0.51100000000E-03 0.  1.
        -12    1    3    3    0    0  0.11801393408E+02  0.14632643274E+01  0.14433707699E+00  0.11892638986E+02  0.00000000000E+00 0.  1.
</event>
<event>
 7    1  0.6136531E-013  0.5052886E+02  0.7816164E-02  0.1300439E+00
        -11   -1    0    0    0    0  0.00000000000E+00  0.00000000000E+00  0.45593999997E+02  0.45594000000E+02  0.51100000000E-03 0.  1.
         11   -1    0    0    0    0 -0.00000000000E+00 -0.00000000000E+00 -0.45593999997E+02  0.45594000000E+02  0.51100000000E-03 0. -1.
    9900012    2    1    2    0    0 -0.11441677589E+02 -0.22403079013E+02  0.31943005460E+02  0.50528861628E+02  0.30000005405E+02 0.  0.
         12    1    1    2    0    0  0.11441677589E+02  0.22403079013E+02 -0.31943005460E+02  0.40659138372E+02  0.00000000000E+00 0. -1.
         11    1    3    3    0    0 -0.58984427803E+01  0.29167853082E+01  0.25397024681E+01  0.70533221006E+01  0.51100000000E-03 0. -1.
        -11    1    3    3    0    0  0.49898759486E+00 -0.25934145757E+02  0.24288214753E+02  0.35535141493E+02  0.51100000000E-03 0.  1.
        -12    1    3    3    0    0 -0.60422224033E+01  0.61428143638E+00  0.51150882392E+01  0.79403980347E+01  0.00000000000E+00 0.  1.
</event>
<event>
 7    1  0.6136531E-013  0.5052886E+02  0.7816164E-02  0.1300439E+00
        -11   -1    0    0    0    0  0.00000000000E+00  0.00000000000E+00  0.45593999997E+02  0.45594000000E+02  0.51100000000E-03 0.  1.
         11   -1    0    0    0    0 -0.00000000000E+00 -0.00000000000E+00 -0.45593999997E+02  0.45594000000E+02  0.51100000000E-03 0. -1.
    9900012    2    1    2    0    0  0.18902776429E+02 -0.10413684784E+02  0.34458753109E+02  0.50528862609E+02  0.30000008387E+02 0.  0.
         12    1    1    2    0    0 -0.18902776429E+02  0.10413684784E+02 -0.34458753109E+02  0.40659137391E+02  0.00000000000E+00 0. -1.
         11    1    3    3    0    0  0.12475715186E+02 -0.14496144391E+02  0.10419824467E+02  0.21779678918E+02  0.51100000000E-03 0. -1.
        -11    1    3    3    0    0  0.76879924650E+01  0.19514492179E+01  0.24895952711E+02  0.26128946474E+02  0.51100000000E-03 0.  1.
        -12    1    3    3    0    0 -0.12609312215E+01  0.21310103886E+01 -0.85702406848E+00  0.26202372174E+01  0.00000000000E+00 0.  1.
</event>
<event>
 7    1  0.6903235E-013  0.5052890E+02  0.7816164E-02  0.1300439E+00
        -11   -1    0    0    0    0  0.00000000000E+00  0.00000000000E+00  0.45593999997E+02  0.45594000000E+02  0.51100000000E-03 0.  1.
         11   -1    0    0    0    0 -0.00000000000E+00 -0.00000000000E+00 -0.45593999997E+02  0.45594000000E+02  0.51100000000E-03 0. -1.
    9900012    2    1    2    0    0 -0.12690091536E+02 -0.34839731789E+02  0.16682842953E+02  0.50528897903E+02  0.30000115667E+02 0.  0.
         12    1    1    2    0    0  0.12690091536E+02  0.34839731789E+02 -0.16682842953E+02  0.40659102097E+02  0.00000000000E+00 0. -1.
         11    1    3    3    0    0  0.53605492789E+00 -0.67489986275E+01 -0.62702767005E+01  0.92278224692E+01  0.51100000000E-03 0. -1.
        -11    1    3    3    0    0 -0.11701924654E+02 -0.84516063183E+01  0.11941045926E+02  0.18733746770E+02  0.51100000000E-03 0.  1.
        -12    1    3    3    0    0 -0.15242218101E+01 -0.19639126843E+02  0.11012073727E+02  0.22567328664E+02  0.00000000000E+00 0.  1.
</event>
<event>
 7    1  0.6136531E-013  0.5052886E+02  0.7816164E-02  0.1300439E+00
        -11   -1    0    0    0    0  0.00000000000E+00  0.00000000000E+00  0.45593999997E+02  0.45594000000E+02  0.51100000000E-03 0.  1.
         11   -1    0    0    0    0 -0.00000000000E+00 -0.00000000000E+00 -0.45593999997E+02  0.45594000000E+02  0.51100000000E-03 0. -1.
    9900012    2    1    2    0    0 -0.88535503916E+01  0.39622714712E+02  0.21955451896E+01  0.50528864565E+02  0.30000014331E+02 0.  0.
         12    1    1    2    0    0  0.88535503916E+01 -0.39622714712E+02 -0.21955451896E+01  0.40659135435E+02  0.00000000000E+00 0. -1.
         11    1    3    3    0    0 -0.72904807407E+01  0.61503549355E+01 -0.66261189116E+01  0.11613932467E+02  0.51100000000E-03 0. -1.
        -11    1    3    3    0    0  0.56648461151E+01  0.26683297749E+02  0.97198638455E+01  0.28957980139E+02  0.51100000000E-03 0.  1.
        -12    1    3    3    0    0 -0.72279157660E+01  0.67890620273E+01 -0.89819974430E+00  0.99569519589E+01  0.00000000000E+00 0.  1.
</event>
<event>
 7    1  0.6136531E-013  0.5052887E+02  0.7816164E-02  0.1300439E+00
        -11   -1    0    0    0    0  0.00000000000E+00  0.00000000000E+00  0.45593999997E+02  0.45594000000E+02  0.51100000000E-03 0. -1.
         11   -1    0    0    0    0 -0.00000000000E+00 -0.00000000000E+00 -0.45593999997E+02  0.45594000000E+02  0.51100000000E-03 0.  1.
    9900012    2    1    2    0    0  0.18232772594E+02  0.10353974610E+02 -0.34835703773E+02  0.50528867643E+02  0.30000023687E+02 0.  0.
         12    1    1    2    0    0 -0.18232772594E+02 -0.10353974610E+02  0.34835703773E+02  0.40659132357E+02  0.00000000000E+00 0. -1.
         11    1    3    3    0    0  0.15252846654E+02 -0.34443216468E+01 -0.24939604294E+02  0.29436313378E+02  0.51100000000E-03 0. -1.
        -11    1    3    3    0    0  0.27905861315E+01  0.15454889104E+02 -0.10927037989E+02  0.19132201328E+02  0.51100000000E-03 0.  1.
         12    1    3    3    0    0  0.18933980812E+00 -0.16565928473E+01  0.10309385104E+01  0.19603529368E+01  0.00000000000E+00 0. -1.
</event>
<event>
 7    1  0.6136531E-013  0.5052886E+02  0.7816164E-02  0.1300439E+00
        -11   -1    0    0    0    0  0.00000000000E+00  0.00000000000E+00  0.45593999997E+02  0.45594000000E+02  0.51100000000E-03 0. -1.
         11   -1    0    0    0    0 -0.00000000000E+00 -0.00000000000E+00 -0.45593999997E+02  0.45594000000E+02  0.51100000000E-03 0.  1.
    9900012    2    1    2    0    0  0.17400730682E+02 -0.71630706597E+01 -0.36042622790E+02  0.50528859981E+02  0.30000000398E+02 0.  0.
         12    1    1    2    0    0 -0.17400730682E+02  0.71630706597E+01  0.36042622790E+02  0.40659140019E+02  0.00000000000E+00 0. -1.
         11    1    3    3    0    0  0.80871309532E+01 -0.26058501903E+00 -0.12280388453E+01  0.81839887141E+01  0.51100000000E-03 0. -1.
        -11    1    3    3    0    0  0.11096647657E+02 -0.98597486154E+01 -0.35798575028E+02  0.38754202434E+02  0.51100000000E-03 0.  1.
        -12    1    3    3    0    0 -0.17830479285E+01  0.29572629747E+01  0.98399108358E+00  0.35906688332E+01  0.00000000000E+00 0.  1.
</event>
<event>
 7    1  0.6136531E-013  0.5052886E+02  0.7816164E-02  0.1300439E+00
        -11   -1    0    0    0    0  0.00000000000E+00  0.00000000000E+00  0.45593999997E+02  0.45594000000E+02  0.51100000000E-03 0.  1.
         11   -1    0    0    0    0 -0.00000000000E+00 -0.00000000000E+00 -0.45593999997E+02  0.45594000000E+02  0.51100000000E-03 0. -1.
    9900012    2    1    2    0    0  0.73725741636E+01  0.31263525983E+02  0.24927949231E+02  0.50528861303E+02  0.30000004417E+02 0.  0.
         12    1    1    2    0    0 -0.73725741636E+01 -0.31263525983E+02 -0.24927949231E+02  0.40659138697E+02  0.00000000000E+00 0. -1.
         11    1    3    3    0    0  0.10243651421E+02  0.21650426461E+02  0.18683512761E+02  0.30376751138E+02  0.51100000000E-03 0.  1.
        -11    1    3    3    0    0 -0.80785162564E+01  0.10385738983E+02  0.68826201144E+01  0.14849123174E+02  0.51100000000E-03 0. -1.
         12    1    3    3    0    0  0.52074389990E+01 -0.77263946058E+00 -0.63818364454E+00  0.53029869911E+01  0.00000000000E+00 0. -1.
</event>
<event>
 7    1  0.6136531E-013  0.5052885E+02  0.7816164E-02  0.1300439E+00
        -11   -1    0    0    0    0  0.00000000000E+00  0.00000000000E+00  0.45593999997E+02  0.45594000000E+02  0.51100000000E-03 0. -1.
         11   -1    0    0    0    0 -0.00000000000E+00 -0.00000000000E+00 -0.45593999997E+02  0.45594000000E+02  0.51100000000E-03 0.  1.
    9900012    2    1    2    0    0 -0.31452338976E+02  0.58404710225E+01 -0.25095930205E+02  0.50528850456E+02  0.29999971446E+02 0.  0.
         12    1    1    2    0    0  0.31452338976E+02 -0.58404710225E+01  0.25095930205E+02  0.40659149544E+02  0.00000000000E+00 0. -1.
         11    1    3    3    0    0 -0.72476715499E+01 -0.88094306203E+01 -0.44804302601E+01  0.12255980839E+02  0.51100000000E-03 0. -1.
        -11    1    3    3    0    0 -0.95430960147E+01  0.10585405918E+02 -0.17795594148E+02  0.22799225236E+02  0.51100000000E-03 0.  1.
         12    1    3    3    0    0 -0.14661571411E+02  0.40644957248E+01 -0.28199057969E+01  0.15473644381E+02  0.00000000000E+00 0. -1.
</event>
<event>
 7    1  0.6136531E-013  0.5052886E+02  0.7816164E-02  0.1300439E+00
        -11   -1    0    0    0    0  0.00000000000E+00  0.00000000000E+00  0.45593999997E+02  0.45594000000E+02  0.51100000000E-03 0. -1.
         11   -1    0    0    0    0 -0.00000000000E+00 -0.00000000000E+00 -0.45593999997E+02  0.45594000000E+02  0.51100000000E-03 0.  1.
    9900012    2    1    2    0    0  0.19531241183E+02  0.34993961929E+02 -0.68643119668E+01  0.50528861637E+02  0.30000005433E+02 0.  0.
         12    1    1    2    0    0 -0.19531241183E+02 -0.34993961929E+02  0.68643119668E+01  0.40659138363E+02  0.00000000000E+00 0. -1.
         11    1    3    3    0    0  0.47233363422E+00  0.29365152655E+01 -0.24509391651E+01  0.38540010403E+01  0.51100000000E-03 0. -1.
        -11    1    3    3    0    0  0.15486206410E+02  0.97215984161E+01 -0.13048163177E+02  0.22463005749E+02  0.51100000000E-03 0.  1.
        -12    1    3    3    0    0  0.35727011386E+01  0.22335848247E+02  0.86347903751E+01  0.24211854848E+02  0.00000000000E+00 0.  1.
</event>
<event>
 7    1  0.6136531E-013  0.5052886E+02  0.7816164E-02  0.1300439E+00
        -11   -1    0    0    0    0  0.00000000000E+00  0.00000000000E+00  0.45593999997E+02  0.45594000000E+02  0.51100000000E-03 0.  1.
         11   -1    0    0    0    0 -0.00000000000E+00 -0.00000000000E+00 -0.45593999997E+02  0.45594000000E+02  0.51100000000E-03 0. -1.
    9900012    2    1    2    0    0 -0.84324528583E+01 -0.10145285988E+02  0.38459489318E+02  0.50528863172E+02  0.30000010097E+02 0.  0.
         12    1    1    2    0    0  0.84324528583E+01  0.10145285988E+02 -0.38459489318E+02  0.40659136828E+02  0.00000000000E+00 0. -1.
         11    1    3    3    0    0 -0.58131779462E+01 -0.96246581561E+01  0.78780790608E+01  0.13729210189E+02  0.51100000000E-03 0. -1.
        -11    1    3    3    0    0 -0.36953517175E+01  0.86630279750E+01  0.22961355745E+02  0.24817887419E+02  0.51100000000E-03 0.  1.
        -12    1    3    3    0    0  0.10760768054E+01 -0.91836558068E+01  0.76200545120E+01  0.11981765564E+02  0.00000000000E+00 0.  1.
</event>
<event>
 7    1  0.6136531E-013  0.5052887E+02  0.7816164E-02  0.1300439E+00
        -11   -1    0    0    0    0  0.00000000000E+00  0.00000000000E+00  0.45593999997E+02  0.45594000000E+02  0.51100000000E-03 0.  1.
         11   -1    0    0    0    0 -0.00000000000E+00 -0.00000000000E+00 -0.45593999997E+02  0.45594000000E+02  0.51100000000E-03 0. -1.
    9900012    2    1    2    0    0  0.27863159879E+02  0.25602576751E+02  0.14876739841E+02  0.50528868147E+02  0.30000025220E+02 0.  0.
         12    1    1    2    0    0 -0.27863159879E+02 -0.25602576751E+02 -0.14876739841E+02  0.40659131853E+02  0.00000000000E+00 0. -1.
         11    1    3    3    0    0  0.97346919008E+01  0.72357699784E+01 -0.80656886738E+01  0.14566259905E+02  0.51100000000E-03 0. -1.
        -11    1    3    3    0    0  0.87735476972E+01  0.11537521240E+02  0.18627726288E+02  0.23602578725E+02  0.51100000000E-03 0.  1.
        -12    1    3    3    0    0  0.93549202811E+01  0.68292855323E+01  0.43147022271E+01  0.12360029517E+02  0.00000000000E+00 0.  1.
</event>
<event>
 7    1  0.6136531E-013  0.5052886E+02  0.7816164E-02  0.1300439E+00
        -11   -1    0    0    0    0  0.00000000000E+00  0.00000000000E+00  0.45593999997E+02  0.45594000000E+02  0.51100000000E-03 0.  1.
         11   -1    0    0    0    0 -0.00000000000E+00 -0.00000000000E+00 -0.45593999997E+02  0.45594000000E+02  0.51100000000E-03 0. -1.
    9900012    2    1    2    0    0 -0.24470537890E+02  0.16634924335E+01  0.32428247008E+02  0.50528860367E+02  0.30000001571E+02 0.  0.
         12    1    1    2    0    0  0.24470537890E+02 -0.16634924335E+01 -0.32428247008E+02  0.40659139633E+02  0.00000000000E+00 0. -1.
         11    1    3    3    0    0 -0.16615718709E+02 -0.84644321571E+01  0.61355469386E+01  0.19630936210E+02  0.51100000000E-03 0. -1.
        -11    1    3    3    0    0  0.14958642136E+01  0.28568852333E+01  0.11520149667E+02  0.11962995093E+02  0.51100000000E-03 0.  1.
         12    1    3    3    0    0 -0.93506833946E+01  0.72710393572E+01  0.14772550402E+02  0.18934929064E+02  0.00000000000E+00 0. -1.
</event>
<event>
 7    1  0.6136531E-013  0.5052886E+02  0.7816164E-02  0.1300439E+00
        -11   -1    0    0    0    0  0.00000000000E+00  0.00000000000E+00  0.45593999997E+02  0.45594000000E+02  0.51100000000E-03 0.  1.
         11   -1    0    0    0    0 -0.00000000000E+00 -0.00000000000E+00 -0.45593999997E+02  0.45594000000E+02  0.51100000000E-03 0. -1.
    9900012    2    1    2    0    0 -0.38418596937E+02  0.10274069430E+01  0.13271089026E+02  0.50528856384E+02  0.29999989466E+02 0.  0.
         12    1    1    2    0    0  0.38418596937E+02 -0.10274069430E+01 -0.13271089026E+02  0.40659143616E+02  0.00000000000E+00 0. -1.
         11    1    3    3    0    0 -0.71189395581E+01  0.23040292658E+01  0.77291814390E+01  0.10757699441E+02  0.51100000000E-03 0. -1.
        -11    1    3    3    0    0 -0.29732249072E+02 -0.25326275727E+00 -0.40414121938E+01  0.30006729073E+02  0.51100000000E-03 0.  1.
        -12    1    3    3    0    0 -0.15674083071E+01 -0.10233595656E+01  0.95833197811E+01  0.97644278700E+01  0.00000000000E+00 0.  1.
</event>
<event>
 7    1  0.6136531E-013  0.5052886E+02  0.7816164E-02  0.1300439E+00
        -11   -1    0    0    0    0  0.00000000000E+00  0.00000000000E+00  0.45593999997E+02  0.45594000000E+02  0.51100000000E-03 0. -1.
         11   -1    0    0    0    0 -0.00000000000E+00 -0.00000000000E+00 -0.45593999997E+02  0.45594000000E+02  0.51100000000E-03 0.  1.
    9900012    2    1    2    0    0  0.26056669934E+02 -0.31152036811E+02 -0.19407387957E+01  0.50528856962E+02  0.29999991223E+02 0.  0.
         12    1    1    2    0    0 -0.26056669934E+02  0.31152036811E+02  0.19407387957E+01  0.40659143038E+02  0.00000000000E+00 0. -1.
         11    1    3    3    0    0  0.16001014991E+02 -0.17000324977E+02  0.63291220848E+01  0.24188867619E+02  0.51100000000E-03 0. -1.
        -11    1    3    3    0    0  0.68218498642E+01 -0.33070351972E+01 -0.12197251187E+02  0.14361304054E+02  0.51100000000E-03 0.  1.
        -12    1    3    3    0    0  0.32338050787E+01 -0.10844676636E+02  0.39273903064E+01  0.11978685289E+02  0.00000000000E+00 0.  1.
</event>
<event>
 7    1  0.6136531E-013  0.5052886E+02  0.7816164E-02  0.1300439E+00
        -11   -1    0    0    0    0  0.00000000000E+00  0.00000000000E+00  0.45593999997E+02  0.45594000000E+02  0.51100000000E-03 0.  1.
         11   -1    0    0    0    0 -0.00000000000E+00 -0.00000000000E+00 -0.45593999997E+02  0.45594000000E+02  0.51100000000E-03 0. -1.
    9900012    2    1    2    0    0 -0.33741514883E+02 -0.22467572333E+02  0.31439083217E+01  0.50528858436E+02  0.29999995703E+02 0.  0.
         12    1    1    2    0    0  0.33741514883E+02  0.22467572333E+02 -0.31439083217E+01  0.40659141564E+02  0.00000000000E+00 0. -1.
         11    1    3    3    0    0 -0.17301795931E+02  0.37157098625E+01  0.98788486610E+00  0.17723841542E+02  0.51100000000E-03 0. -1.
        -11    1    3    3    0    0 -0.37600336832E+01 -0.56240837159E+01  0.50989745544E+01  0.84715826567E+01  0.51100000000E-03 0.  1.
         12    1    3    3    0    0 -0.12679685269E+02 -0.20559198479E+02 -0.29429510988E+01  0.24333434238E+02  0.00000000000E+00 0. -1.
</event>
<event>
 7    1  0.6136531E-013  0.5052887E+02  0.7816164E-02  0.1300439E+00
        -11   -1    0    0    0    0  0.00000000000E+00  0.00000000000E+00  0.45593999997E+02  0.45594000000E+02  0.51100000000E-03 0.  1.
         11   -1    0    0    0    0 -0.00000000000E+00 -0.00000000000E+00 -0.45593999997E+02  0.45594000000E+02  0.51100000000E-03 0. -1.
    9900012    2    1    2    0    0  0.39915483370E+02 -0.77058712990E+01  0.73410393712E+00  0.50528866048E+02  0.30000018840E+02 0.  0.
         12    1    1    2    0    0 -0.39915483370E+02  0.77058712990E+01 -0.73410393712E+00  0.40659133952E+02  0.00000000000E+00 0. -1.
         11    1    3    3    0    0 -0.10043037962E+01  0.20049546184E+01  0.55856929505E+01  0.60190061584E+01  0.51100000000E-03 0. -1.
        -11    1    3    3    0    0  0.40745627661E+02 -0.10295878692E+02 -0.25223283314E+01  0.42101940953E+02  0.51100000000E-03 0.  1.
         12    1    3    3    0    0  0.17415950529E+00  0.58505277468E+00 -0.23292606820E+01  0.24079189370E+01  0.00000000000E+00 0. -1.
</event>
<event>
 7    1  0.6136531E-013  0.5052886E+02  0.7816164E-02  0.1300439E+00
        -11   -1    0    0    0    0  0.00000000000E+00  0.00000000000E+00  0.45593999997E+02  0.45594000000E+02  0.51100000000E-03 0.  1.
         11   -1    0    0    0    0 -0.00000000000E+00 -0.00000000000E+00 -0.45593999997E+02  0.45594000000E+02  0.51100000000E-03 0. -1.
    9900012    2    1    2    0    0 -0.15376758612E+02 -0.32306858929E+02  0.19312898269E+02  0.50528857377E+02  0.29999992485E+02 0.  0.
         12    1    1    2    0    0  0.15376758612E+02  0.32306858929E+02 -0.19312898269E+02  0.40659142623E+02  0.00000000000E+00 0. -1.
         11    1    3    3    0    0 -0.58842280407E+01 -0.17179370119E+01 -0.12511906471E+01  0.62562708947E+01  0.51100000000E-03 0. -1.
        -11    1    3    3    0    0  0.60636097575E+01 -0.15001594783E+02  0.38665492629E+01  0.16636267995E+02  0.51100000000E-03 0.  1.
        -12    1    3    3    0    0 -0.15556140329E+02 -0.15587327134E+02  0.16697539653E+02  0.27636318488E+02  0.00000000000E+00 0.  1.
</event>
<event>
 7    1  0.6136531E-013  0.5052887E+02  0.7816164E-02  0.1300439E+00
        -11   -1    0    0    0    0  0.00000000000E+00  0.00000000000E+00  0.45593999997E+02  0.45594000000E+02  0.51100000000E-03 0.  1.
         11   -1    0    0    0    0 -0.00000000000E+00 -0.00000000000E+00 -0.45593999997E+02  0.45594000000E+02  0.51100000000E-03 0. -1.
    9900012    2    1    2    0    0 -0.39172909370E+02  0.44283441264E+01 -0.99517806004E+01  0.50528868217E+02  0.30000025433E+02 0.  0.
         12    1    1    2    0    0  0.39172909370E+02 -0.44283441264E+01  0.99517806004E+01  0.40659131783E+02  0.00000000000E+00 0. -1.
         11    1    3    3    0    0 -0.11545178635E+02 -0.22801015011E+01  0.11719329079E+01  0.11826387426E+02  0.51100000000E-03 0. -1.
        -11    1    3    3    0    0  0.27600236896E+01  0.59243924668E+01 -0.72814652841E+00  0.65761960506E+01  0.51100000000E-03 0.  1.
        -12    1    3    3    0    0 -0.30387754425E+02  0.78405316073E+00 -0.10395566980E+02  0.32126284740E+02  0.00000000000E+00 0.  1.
</event>
<event>
 7    1  0.6136531E-013  0.5052889E+02  0.7816164E-02  0.1300439E+00
        -11   -1    0    0    0    0  0.00000000000E+00  0.00000000000E+00  0.45593999997E+02  0.45594000000E+02  0.51100000000E-03 0. -1.
         11   -1    0    0    0    0 -0.00000000000E+00 -0.00000000000E+00 -0.45593999997E+02  0.45594000000E+02  0.51100000000E-03 0.  1.
    9900012    2    1    2    0    0  0.16077693504E+02  0.31706886603E+02 -0.19731805531E+02  0.50528892337E+02  0.30000098746E+02 0.  0.
         12    1    1    2    0    0 -0.16077693504E+02 -0.31706886603E+02  0.19731805531E+02  0.40659107663E+02  0.00000000000E+00 0. -1.
         11    1    3    3    0    0  0.17630457581E+02  0.11710131544E+02 -0.19111854531E+02  0.28517068559E+02  0.51100000000E-03 0. -1.
        -11    1    3    3    0    0 -0.52183698155E+00  0.20355295618E+02  0.60521030260E+00  0.20370975758E+02  0.51100000000E-03 0.  1.
         12    1    3    3    0    0 -0.10309270951E+01 -0.35854055980E+00 -0.12251613025E+01  0.16408480202E+01  0.00000000000E+00 0. -1.
</event>
<event>
 7    1  0.6136531E-013  0.5052886E+02  0.7816164E-02  0.1300439E+00
        -11   -1    0    0    0    0  0.00000000000E+00  0.00000000000E+00  0.45593999997E+02  0.45594000000E+02  0.51100000000E-03 0.  1.
         11   -1    0    0    0    0 -0.00000000000E+00 -0.00000000000E+00 -0.45593999997E+02  0.45594000000E+02  0.51100000000E-03 0. -1.
    9900012    2    1    2    0    0 -0.36323457733E+02 -0.80324763012E+01 -0.16408878462E+02  0.50528861426E+02  0.30000004790E+02 0.  0.
         12    1    1    2    0    0  0.36323457733E+02  0.80324763012E+01  0.16408878462E+02  0.40659138574E+02  0.00000000000E+00 0. -1.
         11    1    3    3    0    0 -0.28649294382E+02 -0.39096664682E+01 -0.14193798453E+02  0.32210735404E+02  0.51100000000E-03 0.  1.
        -11    1    3    3    0    0 -0.77354540633E+01 -0.96804426991E+01 -0.28764755124E+01  0.12720940690E+02  0.51100000000E-03 0. -1.
         12    1    3    3    0    0  0.61290712020E-01  0.55576328660E+01  0.66139550354E+00  0.55971853317E+01  0.00000000000E+00 0. -1.
</event>
<event>
 7    1  0.6136531E-013  0.5052887E+02  0.7816164E-02  0.1300439E+00
        -11   -1    0    0    0    0  0.00000000000E+00  0.00000000000E+00  0.45593999997E+02  0.45594000000E+02  0.51100000000E-03 0.  1.
         11   -1    0    0    0    0 -0.00000000000E+00 -0.00000000000E+00 -0.45593999997E+02  0.45594000000E+02  0.51100000000E-03 0. -1.
    9900012    2    1    2    0    0 -0.34409699089E+02  0.31454641713E+00  0.21657296197E+02  0.50528870528E+02  0.30000032457E+02 0.  0.
         12    1    1    2    0    0  0.34409699089E+02 -0.31454641713E+00 -0.21657296197E+02  0.40659129472E+02  0.00000000000E+00 0. -1.
         11    1    3    3    0    0 -0.28029448785E+01 -0.54278543494E+01  0.49590396830E+01  0.78683020830E+01  0.51100000000E-03 0. -1.
        -11    1    3    3    0    0 -0.25938835217E+02  0.13699742664E+02  0.14123934866E+02  0.32557513079E+02  0.51100000000E-03 0.  1.
        -12    1    3    3    0    0 -0.56679189935E+01 -0.79573418978E+01  0.25743216473E+01  0.10103055367E+02  0.00000000000E+00 0.  1.
</event>
<event>
 7    1  0.6136531E-013  0.5052885E+02  0.7816164E-02  0.1300439E+00
        -11   -1    0    0    0    0  0.00000000000E+00  0.00000000000E+00  0.45593999997E+02  0.45594000000E+02  0.51100000000E-03 0.  1.
         11   -1    0    0    0    0 -0.00000000000E+00 -0.00000000000E+00 -0.45593999997E+02  0.45594000000E+02  0.51100000000E-03 0. -1.
    9900012    2    1    2    0    0  0.57390914301E+01  0.29963451016E+00  0.40250955162E+02  0.50528851672E+02  0.29999975143E+02 0.  0.
         12    1    1    2    0    0 -0.57390914301E+01 -0.29963451016E+00 -0.40250955162E+02  0.40659148328E+02  0.00000000000E+00 0. -1.
         11    1    3    3    0    0  0.43146618300E+01 -0.86065641076E+01  0.11501146119E+02  0.14998853782E+02  0.51100000000E-03 0. -1.
        -11    1    3    3    0    0  0.80816822766E+01  0.87238360627E+01  0.25463534794E+02  0.28103567541E+02  0.51100000000E-03 0.  1.
        -12    1    3    3    0    0 -0.66572526765E+01  0.18236255509E+00  0.32862742487E+01  0.74264303496E+01  0.00000000000E+00 0.  1.
</event>
<event>
 7    1  0.6136531E-013  0.5052896E+02  0.7816164E-02  0.1300438E+00
        -11   -1    0    0    0    0  0.00000000000E+00  0.00000000000E+00  0.45593999997E+02  0.45594000000E+02  0.51100000000E-03 0. -1.
         11   -1    0    0    0    0 -0.00000000000E+00 -0.00000000000E+00 -0.45593999997E+02  0.45594000000E+02  0.51100000000E-03 0.  1.
    9900012    2    1    2    0    0 -0.34985179326E+02 -0.20688661223E+02  0.10836005924E+01  0.50528958374E+02  0.30000299473E+02 0.  0.
         12    1    1    2    0    0  0.34985179326E+02  0.20688661223E+02 -0.10836005924E+01  0.40659041626E+02  0.00000000000E+00 0. -1.
         11    1    3    3    0    0 -0.14396736778E+02 -0.15019281672E+02 -0.84576213378E+00  0.20822107618E+02  0.51100000000E-03 0. -1.
        -11    1    3    3    0    0 -0.13338436626E+02  0.20842433276E+01 -0.75562059417E+01  0.15471076574E+02  0.51100000000E-03 0.  1.
        -12    1    3    3    0    0 -0.72500059214E+01 -0.77536228795E+01  0.94855686679E+01  0.14235774182E+02  0.00000000000E+00 0.  1.
</event>
<event>
 7    1  0.6136531E-013  0.5052887E+02  0.7816164E-02  0.1300439E+00
        -11   -1    0    0    0    0  0.00000000000E+00  0.00000000000E+00  0.45593999997E+02  0.45594000000E+02  0.51100000000E-03 0. -1.
         11   -1    0    0    0    0 -0.00000000000E+00 -0.00000000000E+00 -0.45593999997E+02  0.45594000000E+02  0.51100000000E-03 0.  1.
    9900012    2    1    2    0    0 -0.25745815378E+02 -0.31392474412E+02 -0.21978459699E+01  0.50528868356E+02  0.30000025853E+02 0.  0.
         12    1    1    2    0    0  0.25745815378E+02  0.31392474412E+02  0.21978459699E+01  0.40659131644E+02  0.00000000000E+00 0. -1.
         11    1    3    3    0    0 -0.49049428336E+01 -0.29980890828E+01  0.68206560725E+01  0.89201094090E+01  0.51100000000E-03 0. -1.
        -11    1    3    3    0    0 -0.15172725797E+02 -0.20548061394E+02 -0.15575850122E+02  0.29917244900E+02  0.51100000000E-03 0.  1.
        -12    1    3    3    0    0 -0.56681467477E+01 -0.78463239352E+01  0.65573480798E+01  0.11691514046E+02  0.00000000000E+00 0.  1.
</event>
<event>
 7    1  0.6136531E-013  0.5052886E+02  0.7816164E-02  0.1300439E+00
        -11   -1    0    0    0    0  0.00000000000E+00  0.00000000000E+00  0.45593999997E+02  0.45594000000E+02  0.51100000000E-03 0.  1.
         11   -1    0    0    0    0 -0.00000000000E+00 -0.00000000000E+00 -0.45593999997E+02  0.45594000000E+02  0.51100000000E-03 0. -1.
    9900012    2    1    2    0    0  0.89125192961E+01  0.39658984851E+02  0.94753730016E+00  0.50528857037E+02  0.29999991448E+02 0.  0.
         12    1    1    2    0    0 -0.89125192961E+01 -0.39658984851E+02 -0.94753730016E+00  0.40659142963E+02  0.00000000000E+00 0. -1.
         11    1    3    3    0    0  0.42457600180E+01  0.15779186678E+02  0.11828842128E+02  0.20172523806E+02  0.51100000000E-03 0. -1.
        -11    1    3    3    0    0  0.92772996110E+01  0.17591741773E+02 -0.47768480581E+01  0.20453751351E+02  0.51100000000E-03 0.  1.
         12    1    3    3    0    0 -0.46105403329E+01  0.62880563991E+01 -0.61044567694E+01  0.99025818799E+01  0.00000000000E+00 0. -1.
</event>
<event>
 7    1  0.6136531E-013  0.5052887E+02  0.7816164E-02  0.1300439E+00
        -11   -1    0    0    0    0  0.00000000000E+00  0.00000000000E+00  0.45593999997E+02  0.45594000000E+02  0.51100000000E-03 0.  1.
         11   -1    0    0    0    0 -0.00000000000E+00 -0.00000000000E+00 -0.45593999997E+02  0.45594000000E+02  0.51100000000E-03 0. -1.
    9900012    2    1    2    0    0  0.27254457509E+01 -0.35935275687E+02  0.18825331784E+02  0.50528865602E+02  0.30000017483E+02 0.  0.
         12    1    1    2    0    0 -0.27254457509E+01  0.35935275687E+02 -0.18825331784E+02  0.40659134398E+02  0.00000000000E+00 0. -1.
         11    1    3    3    0    0 -0.12064313929E+00  0.40663916566E+01  0.58362650887E+01  0.71142171964E+01  0.51100000000E-03 0. -1.
        -11    1    3    3    0    0  0.43993942639E+01 -0.39431018456E+02  0.11856491452E+02  0.41409374255E+02  0.51100000000E-03 0.  1.
        -12    1    3    3    0    0 -0.15533053737E+01 -0.57064888739E+00  0.11325752441E+01  0.20052741508E+01  0.00000000000E+00 0.  1.
</event>
<event>
 7    1  0.6136531E-013  0.5052886E+02  0.7816164E-02  0.1300439E+00
        -11   -1    0    0    0    0  0.00000000000E+00  0.00000000000E+00  0.45593999997E+02  0.45594000000E+02  0.51100000000E-03 0. -1.
         11   -1    0    0    0    0 -0.00000000000E+00 -0.00000000000E+00 -0.45593999997E+02  0.45594000000E+02  0.51100000000E-03 0.  1.
    9900012    2    1    2    0    0 -0.36056402190E+02  0.18785615584E+02 -0.44986233483E+00  0.50528857512E+02  0.29999992894E+02 0.  0.
         12    1    1    2    0    0  0.36056402190E+02 -0.18785615584E+02  0.44986233483E+00  0.40659142488E+02  0.00000000000E+00 0. -1.
         11    1    3    3    0    0 -0.44629350889E+01  0.95814578345E+01  0.10896355258E+02  0.15180668035E+02  0.51100000000E-03 0. -1.
        -11    1    3    3    0    0 -0.12214128429E+02  0.40136203542E+01 -0.13324915398E+01  0.12925541211E+02  0.51100000000E-03 0.  1.
         12    1    3    3    0    0 -0.19379338671E+02  0.51905373948E+01 -0.10013726053E+02  0.22422648266E+02  0.00000000000E+00 0. -1.
</event>
<event>
 7    1  0.6136531E-013  0.5052888E+02  0.7816164E-02  0.1300439E+00
        -11   -1    0    0    0    0  0.00000000000E+00  0.00000000000E+00  0.45593999997E+02  0.45594000000E+02  0.51100000000E-03 0. -1.
         11   -1    0    0    0    0 -0.00000000000E+00 -0.00000000000E+00 -0.45593999997E+02  0.45594000000E+02  0.51100000000E-03 0.  1.
    9900012    2    1    2    0    0  0.15765463055E+01  0.28608267169E+02 -0.28848669191E+02  0.50528878481E+02  0.30000056630E+02 0.  0.
         12    1    1    2    0    0 -0.15765463055E+01 -0.28608267169E+02  0.28848669191E+02  0.40659121519E+02  0.00000000000E+00 0. -1.
         11    1    3    3    0    0 -0.10561709220E+02  0.11765816213E+02 -0.17047617847E+02  0.23250922720E+02  0.51100000000E-03 0. -1.
        -11    1    3    3    0    0  0.26080660022E+01  0.14462845295E+02 -0.60283399327E+01  0.15884482520E+02  0.51100000000E-03 0.  1.
         12    1    3    3    0    0  0.95301895238E+01  0.23796056597E+01 -0.57727114112E+01  0.11393473241E+02  0.00000000000E+00 0. -1.
</event>
<event>
 7    1  0.6136531E-013  0.5052887E+02  0.7816164E-02  0.1300439E+00
        -11   -1    0    0    0    0  0.00000000000E+00  0.00000000000E+00  0.45593999997E+02  0.45594000000E+02  0.51100000000E-03 0. -1.
         11   -1    0    0    0    0 -0.00000000000E+00 -0.00000000000E+00 -0.45593999997E+02  0.45594000000E+02  0.51100000000E-03 0.  1.
    9900012    2    1    2    0    0 -0.66346007130E+01  0.27750001264E+02 -0.28966959123E+02  0.50528865508E+02  0.30000017199E+02 0.  0.
         12    1    1    2    0    0  0.66346007130E+01 -0.27750001264E+02  0.28966959123E+02  0.40659134492E+02  0.00000000000E+00 0. -1.
         11    1    3    3    0    0  0.56723347148E+01 -0.12766439191E+00 -0.18708856657E+01  0.59742692231E+01  0.51100000000E-03 0. -1.
        -11    1    3    3    0    0 -0.10085282783E+02  0.21091595263E+02 -0.28917089695E+02  0.37185567042E+02  0.51100000000E-03 0.  1.
        -12    1    3    3    0    0 -0.22216526453E+01  0.67860703926E+01  0.18210162375E+01  0.73690292431E+01  0.00000000000E+00 0.  1.
</event>
<event>
 7    1  0.6136531E-013  0.5052885E+02  0.7816164E-02  0.1300439E+00
        -11   -1    0    0    0    0  0.00000000000E+00  0.00000000000E+00  0.45593999997E+02  0.45594000000E+02  0.51100000000E-03 0.  1.
         11   -1    0    0    0    0 -0.00000000000E+00 -0.00000000000E+00 -0.45593999997E+02  0.45594000000E+02  0.51100000000E-03 0. -1.
    9900012    2    1    2    0    0 -0.15525274293E+02  0.37437744867E+02 -0.32477149905E+01  0.50528849305E+02  0.29999967947E+02 0.  0.
         12    1    1    2    0    0  0.15525274293E+02 -0.37437744867E+02  0.32477149905E+01  0.40659150695E+02  0.00000000000E+00 0. -1.
         11    1    3    3    0    0  0.35233502966E+01  0.46774118361E+01 -0.12768600967E+01  0.59935424220E+01  0.51100000000E-03 0. -1.
        -11    1    3    3    0    0 -0.22983389646E+02  0.19168318567E+02 -0.41652965739E+01  0.30216060830E+02  0.51100000000E-03 0.  1.
        -12    1    3    3    0    0  0.39347650560E+01  0.13592014464E+02  0.21944416801E+01  0.14319246053E+02  0.00000000000E+00 0.  1.
</event>
<event>
 7    1  0.6136531E-013  0.5052887E+02  0.7816164E-02  0.1300439E+00
        -11   -1    0    0    0    0  0.00000000000E+00  0.00000000000E+00  0.45593999997E+02  0.45594000000E+02  0.51100000000E-03 0.  1.
         11   -1    0    0    0    0 -0.00000000000E+00 -0.00000000000E+00 -0.45593999997E+02  0.45594000000E+02  0.51100000000E-03 0. -1.
    9900012    2    1    2    0    0 -0.33177315977E+02  0.18659320878E+02  0.14291965164E+02  0.50528870406E+02  0.30000032087E+02 0.  0.
         12    1    1    2    0    0  0.33177315977E+02 -0.18659320878E+02 -0.14291965164E+02  0.40659129594E+02  0.00000000000E+00 0. -1.
         11    1    3    3    0    0 -0.71218688972E+01 -0.48910470988E+01 -0.38901665966E+01  0.94750596157E+01  0.51100000000E-03 0. -1.
        -11    1    3    3    0    0 -0.75250103748E+01  0.14056386080E+02  0.69037096238E+01  0.17374377042E+02  0.51100000000E-03 0.  1.
         12    1    3    3    0    0 -0.18530436705E+02  0.94939818964E+01  0.11278422137E+02  0.23679433748E+02  0.00000000000E+00 0. -1.
</event>
<event>
 7    1  0.6136531E-013  0.5052886E+02  0.7816164E-02  0.1300439E+00
        -11   -1    0    0    0    0  0.00000000000E+00  0.00000000000E+00  0.45593999997E+02  0.45594000000E+02  0.51100000000E-03 0.  1.
         11   -1    0    0    0    0 -0.00000000000E+00 -0.00000000000E+00 -0.45593999997E+02  0.45594000000E+02  0.51100000000E-03 0. -1.
    9900012    2    1    2    0    0  0.58118784624E+01  0.20611558925E+02  0.34562285158E+02  0.50528857757E+02  0.29999993639E+02 0.  0.
         12    1    1    2    0    0 -0.58118784624E+01 -0.20611558925E+02 -0.34562285158E+02  0.40659142243E+02  0.00000000000E+00 0. -1.
         11    1    3    3    0    0 -0.77073357887E+01  0.11228390093E+02  0.94164914082E+01  0.16557478061E+02  0.51100000000E-03 0. -1.
        -11    1    3    3    0    0  0.81992841811E+01  0.51149429371E+01  0.25368889493E+02  0.27147218213E+02  0.51100000000E-03 0.  1.
         12    1    3    3    0    0  0.53199300700E+01  0.42682258952E+01 -0.22309574349E+00  0.68241614835E+01  0.00000000000E+00 0. -1.
</event>
<event>
 7    1  0.6136531E-013  0.5052887E+02  0.7816164E-02  0.1300439E+00
        -11   -1    0    0    0    0  0.00000000000E+00  0.00000000000E+00  0.45593999997E+02  0.45594000000E+02  0.51100000000E-03 0. -1.
         11   -1    0    0    0    0 -0.00000000000E+00 -0.00000000000E+00 -0.45593999997E+02  0.45594000000E+02  0.51100000000E-03 0.  1.
    9900012    2    1    2    0    0 -0.19895017551E+02 -0.34605116690E+02 -0.77355883268E+01  0.50528866325E+02  0.30000019680E+02 0.  0.
         12    1    1    2    0    0  0.19895017551E+02  0.34605116690E+02  0.77355883268E+01  0.40659133675E+02  0.00000000000E+00 0. -1.
         11    1    3    3    0    0 -0.11940146504E+02 -0.27938952994E+02  0.31002156857E+01  0.30541177622E+02  0.51100000000E-03 0. -1.
        -11    1    3    3    0    0 -0.10986369462E+02 -0.34965225845E+01 -0.10491265737E+02  0.15588221232E+02  0.51100000000E-03 0.  1.
        -12    1    3    3    0    0  0.30314984144E+01 -0.31696411106E+01 -0.34453827522E+00  0.43994674711E+01  0.00000000000E+00 0.  1.
</event>
<event>
 7    1  0.6136531E-013  0.5052886E+02  0.7816164E-02  0.1300439E+00
        -11   -1    0    0    0    0  0.00000000000E+00  0.00000000000E+00  0.45593999997E+02  0.45594000000E+02  0.51100000000E-03 0. -1.
         11   -1    0    0    0    0 -0.00000000000E+00 -0.00000000000E+00 -0.45593999997E+02  0.45594000000E+02  0.51100000000E-03 0.  1.
    9900012    2    1    2    0    0  0.95985795959E+01 -0.35327494375E+02 -0.17691831051E+02  0.50528862343E+02  0.30000007578E+02 0.  0.
         12    1    1    2    0    0 -0.95985795959E+01  0.35327494375E+02  0.17691831051E+02  0.40659137657E+02  0.00000000000E+00 0. -1.
         11    1    3    3    0    0  0.10160055092E+02 -0.85485955788E+01 -0.15013971290E+02  0.20043067131E+02  0.51100000000E-03 0. -1.
        -11    1    3    3    0    0 -0.61682631724E+01 -0.19338635728E+02  0.13341657057E+01  0.20342327811E+02  0.51100000000E-03 0.  1.
        -12    1    3    3    0    0  0.56067876763E+01 -0.74402630680E+01 -0.40120254668E+01  0.10143467401E+02  0.00000000000E+00 0.  1.
</event>
<event>
 7    1  0.6136531E-013  0.5052885E+02  0.7816164E-02  0.1300439E+00
        -11   -1    0    0    0    0  0.00000000000E+00  0.00000000000E+00  0.45593999997E+02  0.45594000000E+02  0.51100000000E-03 0.  1.
         11   -1    0    0    0    0 -0.00000000000E+00 -0.00000000000E+00 -0.45593999997E+02  0.45594000000E+02  0.51100000000E-03 0. -1.
    9900012    2    1    2    0    0  0.38031724176E+02  0.14047446675E+02 -0.30697372413E+01  0.50528854797E+02  0.29999984641E+02 0.  0.
         12    1    1    2    0    0 -0.38031724176E+02 -0.14047446675E+02  0.30697372413E+01  0.40659145203E+02  0.00000000000E+00 0. -1.
         11    1    3    3    0    0  0.30188112906E+02  0.18465991519E+01 -0.98940660744E+01  0.31821763512E+02  0.51100000000E-03 0. -1.
        -11    1    3    3    0    0 -0.12155828312E+01  0.39692643390E+01  0.47222614140E+01  0.62874839272E+01  0.51100000000E-03 0.  1.
        -12    1    3    3    0    0  0.90591941016E+01  0.82315831841E+01  0.21020674192E+01  0.12419607358E+02  0.00000000000E+00 0.  1.
</event>
<event>
 7    1  0.6136531E-013  0.5052886E+02  0.7816164E-02  0.1300439E+00
        -11   -1    0    0    0    0  0.00000000000E+00  0.00000000000E+00  0.45593999997E+02  0.45594000000E+02  0.51100000000E-03 0.  1.
         11   -1    0    0    0    0 -0.00000000000E+00 -0.00000000000E+00 -0.45593999997E+02  0.45594000000E+02  0.51100000000E-03 0. -1.
    9900012    2    1    2    0    0 -0.25640732055E+01 -0.21153828921E+02  0.34628119402E+02  0.50528860772E+02  0.30000002803E+02 0.  0.
         12    1    1    2    0    0  0.25640732055E+01  0.21153828921E+02 -0.34628119402E+02  0.40659139228E+02  0.00000000000E+00 0. -1.
         11    1    3    3    0    0  0.62401721473E+01 -0.18200728731E+01  0.36559980362E+01  0.74577969665E+01  0.51100000000E-03 0. -1.
        -11    1    3    3    0    0  0.41312643886E+00 -0.20456400839E+02  0.23447781825E+02  0.31119663904E+02  0.51100000000E-03 0.  1.
        -12    1    3    3    0    0 -0.92173717917E+01  0.11226447913E+01  0.75243395416E+01  0.11951399902E+02  0.00000000000E+00 0.  1.
</event>
<event>
 7    1  0.6136531E-013  0.5052886E+02  0.7816164E-02  0.1300439E+00
        -11   -1    0    0    0    0  0.00000000000E+00  0.00000000000E+00  0.45593999997E+02  0.45594000000E+02  0.51100000000E-03 0. -1.
         11   -1    0    0    0    0 -0.00000000000E+00 -0.00000000000E+00 -0.45593999997E+02  0.45594000000E+02  0.51100000000E-03 0.  1.
    9900012    2    1    2    0    0 -0.14543676153E+01 -0.13061303345E+02 -0.38476652573E+02  0.50528860518E+02  0.30000002030E+02 0.  0.
         12    1    1    2    0    0  0.14543676153E+01  0.13061303345E+02  0.38476652573E+02  0.40659139482E+02  0.00000000000E+00 0. -1.
         11    1    3    3    0    0  0.14310770548E+01  0.53640742176E+01 -0.40649948791E+00  0.55665533181E+01  0.51100000000E-03 0. -1.
        -11    1    3    3    0    0 -0.90146566824E+01 -0.96245408985E+01 -0.20333029774E+02  0.24234849343E+02  0.51100000000E-03 0.  1.
        -12    1    3    3    0    0  0.61292120124E+01 -0.88008366640E+01 -0.17737123310E+02  0.20727457857E+02  0.00000000000E+00 0.  1.
</event>
<event>
 7    1  0.6136531E-013  0.5052886E+02  0.7816164E-02  0.1300439E+00
        -11   -1    0    0    0    0  0.00000000000E+00  0.00000000000E+00  0.45593999997E+02  0.45594000000E+02  0.51100000000E-03 0. -1.
         11   -1    0    0    0    0 -0.00000000000E+00 -0.00000000000E+00 -0.45593999997E+02  0.45594000000E+02  0.51100000000E-03 0.  1.
    9900012    2    1    2    0    0 -0.28265545354E+02 -0.15864674354E+02 -0.24546628073E+02  0.50528857163E+02  0.29999991831E+02 0.  0.
         12    1    1    2    0    0  0.28265545354E+02  0.15864674354E+02  0.24546628073E+02  0.40659142837E+02  0.00000000000E+00 0. -1.
         11    1    3    3    0    0 -0.17428257117E+02 -0.14508643710E+02 -0.11592341074E+02  0.25468161698E+02  0.51100000000E-03 0. -1.
        -11    1    3    3    0    0 -0.98044697315E+01  0.47063467417E+01 -0.15045971895E+02  0.18564983084E+02  0.51100000000E-03 0.  1.
        -12    1    3    3    0    0 -0.10328185061E+01 -0.60623773858E+01  0.20916848962E+01  0.64957123813E+01  0.00000000000E+00 0.  1.
</event>
<event>
 7    1  0.6136531E-013  0.5052886E+02  0.7816164E-02  0.1300439E+00
        -11   -1    0    0    0    0  0.00000000000E+00  0.00000000000E+00  0.45593999997E+02  0.45594000000E+02  0.51100000000E-03 0.  1.
         11   -1    0    0    0    0 -0.00000000000E+00 -0.00000000000E+00 -0.45593999997E+02  0.45594000000E+02  0.51100000000E-03 0. -1.
    9900012    2    1    2    0    0  0.26504302911E+02  0.13707235869E+02  0.27618825198E+02  0.50528857199E+02  0.29999991943E+02 0.  0.
         12    1    1    2    0    0 -0.26504302911E+02 -0.13707235869E+02 -0.27618825198E+02  0.40659142801E+02  0.00000000000E+00 0. -1.
         11    1    3    3    0    0 -0.14044863265E+01 -0.29479472599E+01 -0.12155684609E+00  0.32676828512E+01  0.51100000000E-03 0. -1.
        -11    1    3    3    0    0  0.25270638709E+02  0.72787705478E+01  0.26681750352E+02  0.37463335191E+02  0.51100000000E-03 0.  1.
        -12    1    3    3    0    0  0.26381505283E+01  0.93764125811E+01  0.10586316914E+01  0.97978391576E+01  0.00000000000E+00 0.  1.
</event>
<event>
 7    1  0.6136531E-013  0.5052899E+02  0.7816164E-02  0.1300438E+00
        -11   -1    0    0    0    0  0.00000000000E+00  0.00000000000E+00  0.45593999997E+02  0.45594000000E+02  0.51100000000E-03 0. -1.
         11   -1    0    0    0    0 -0.00000000000E+00 -0.00000000000E+00 -0.45593999997E+02  0.45594000000E+02  0.51100000000E-03 0.  1.
    9900012    2    1    2    0    0 -0.39121688213E+02 -0.10834094954E+02  0.22958965888E+01  0.50528988167E+02  0.30000390029E+02 0.  0.
         12    1    1    2    0    0  0.39121688213E+02  0.10834094954E+02 -0.22958965888E+01  0.40659011833E+02  0.00000000000E+00 0. -1.
         11    1    3    3    0    0 -0.46147938412E+01  0.75247984831E+01  0.67693924159E+01  0.11124009545E+02  0.51100000000E-03 0. -1.
        -11    1    3    3    0    0 -0.10291149325E+02 -0.43599813875E+01 -0.14855199167E+01  0.11274926245E+02  0.51100000000E-03 0.  1.
         12    1    3    3    0    0 -0.24215745046E+02 -0.13998912050E+02 -0.29879759104E+01  0.28130052378E+02  0.00000000000E+00 0. -1.
</event>
<event>
 7    1  0.6136531E-013  0.5052886E+02  0.7816164E-02  0.1300439E+00
        -11   -1    0    0    0    0  0.00000000000E+00  0.00000000000E+00  0.45593999997E+02  0.45594000000E+02  0.51100000000E-03 0.  1.
         11   -1    0    0    0    0 -0.00000000000E+00 -0.00000000000E+00 -0.45593999997E+02  0.45594000000E+02  0.51100000000E-03 0. -1.
    9900012    2    1    2    0    0  0.15615972440E+02  0.37211537441E+02 -0.49607141745E+01  0.50528858357E+02  0.29999995463E+02 0.  0.
         12    1    1    2    0    0 -0.15615972440E+02 -0.37211537441E+02  0.49607141745E+01  0.40659141643E+02  0.00000000000E+00 0. -1.
         11    1    3    3    0    0 -0.36003563122E+01  0.11236658655E+00  0.23397664943E+01  0.42953113197E+01  0.51100000000E-03 0. -1.
        -11    1    3    3    0    0  0.33332391741E+01  0.21203338942E+02 -0.98543478058E+01  0.23617794914E+02  0.51100000000E-03 0.  1.
        -12    1    3    3    0    0  0.15883089578E+02  0.15895831913E+02  0.25538671371E+01  0.22615752123E+02  0.00000000000E+00 0.  1.
</event>
<event>
 7    1  0.6136531E-013  0.5052886E+02  0.7816164E-02  0.1300439E+00
        -11   -1    0    0    0    0  0.00000000000E+00  0.00000000000E+00  0.45593999997E+02  0.45594000000E+02  0.51100000000E-03 0.  1.
         11   -1    0    0    0    0 -0.00000000000E+00 -0.00000000000E+00 -0.45593999997E+02  0.45594000000E+02  0.51100000000E-03 0. -1.
    9900012    2    1    2    0    0 -0.87381132078E+01  0.21573340609E+02  0.33337694650E+02  0.50528861641E+02  0.30000005445E+02 0.  0.
         12    1    1    2    0    0  0.87381132078E+01 -0.21573340609E+02 -0.33337694650E+02  0.40659138359E+02  0.00000000000E+00 0. -1.
         11    1    3    3    0    0  0.50127022661E+00  0.86849236736E+01 -0.42052418504E+01  0.96624650239E+01  0.51100000000E-03 0. -1.
        -11    1    3    3    0    0 -0.70344770024E+01  0.99254633977E+01  0.31698071886E+02  0.33952414522E+02  0.51100000000E-03 0.  1.
         12    1    3    3    0    0 -0.22049064321E+01  0.29629535378E+01  0.58448646151E+01  0.69139820950E+01  0.00000000000E+00 0. -1.
</event>
<event>
 7    1  0.6136531E-013  0.5052887E+02  0.7816164E-02  0.1300439E+00
        -11   -1    0    0    0    0  0.00000000000E+00  0.00000000000E+00  0.45593999997E+02  0.45594000000E+02  0.51100000000E-03 0.  1.
         11   -1    0    0    0    0 -0.00000000000E+00 -0.00000000000E+00 -0.45593999997E+02  0.45594000000E+02  0.51100000000E-03 0. -1.
    9900012    2    1    2    0    0  0.44633950833E+01  0.15532082205E+02  0.37309477705E+02  0.50528873104E+02  0.30000040287E+02 0.  0.
         12    1    1    2    0    0 -0.44633950833E+01 -0.15532082205E+02 -0.37309477705E+02  0.40659126896E+02  0.00000000000E+00 0. -1.
         11    1    3    3    0    0 -0.23450888711E+01  0.13873537403E+02  0.14409383182E+02  0.20139632714E+02  0.51100000000E-03 0. -1.
        -11    1    3    3    0    0  0.48601199153E+01 -0.57483170764E+01  0.21264721364E+02  0.22557754537E+02  0.51100000000E-03 0.  1.
        -12    1    3    3    0    0  0.19483640391E+01  0.74068618779E+01  0.16353731598E+01  0.78314858538E+01  0.00000000000E+00 0.  1.
</event>
<event>
 7    1  0.6136531E-013  0.5052886E+02  0.7816164E-02  0.1300439E+00
        -11   -1    0    0    0    0  0.00000000000E+00  0.00000000000E+00  0.45593999997E+02  0.45594000000E+02  0.51100000000E-03 0.  1.
         11   -1    0    0    0    0 -0.00000000000E+00 -0.00000000000E+00 -0.45593999997E+02  0.45594000000E+02  0.51100000000E-03 0. -1.
    9900012    2    1    2    0    0  0.56189342461E+01  0.12764405527E+02  0.38192451104E+02  0.50528858447E+02  0.29999995735E+02 0.  0.
         12    1    1    2    0    0 -0.56189342461E+01 -0.12764405527E+02 -0.38192451104E+02  0.40659141553E+02  0.00000000000E+00 0. -1.
         11    1    3    3    0    0 -0.41990077479E+01  0.46576121919E+00 -0.85752571292E+00  0.43109105987E+01  0.51100000000E-03 0. -1.
        -11    1    3    3    0    0  0.13342526077E+02  0.14848477358E+02  0.34899384813E+02  0.40205314854E+02  0.51100000000E-03 0.  1.
        -12    1    3    3    0    0 -0.35245840826E+01 -0.25498330497E+01  0.41505920038E+01  0.60126329939E+01  0.00000000000E+00 0.  1.
</event>
<event>
 7    1  0.6136531E-013  0.5052886E+02  0.7816164E-02  0.1300439E+00
        -11   -1    0    0    0    0  0.00000000000E+00  0.00000000000E+00  0.45593999997E+02  0.45594000000E+02  0.51100000000E-03 0. -1.
         11   -1    0    0    0    0 -0.00000000000E+00 -0.00000000000E+00 -0.45593999997E+02  0.45594000000E+02  0.51100000000E-03 0.  1.
    9900012    2    1    2    0    0 -0.38781205413E+02  0.34457856947E+01  0.11717944875E+02  0.50528861244E+02  0.30000004236E+02 0.  0.
         12    1    1    2    0    0  0.38781205413E+02 -0.34457856947E+01 -0.11717944875E+02  0.40659138756E+02  0.00000000000E+00 0. -1.
         11    1    3    3    0    0 -0.32907138765E+02  0.66179352539E+01  0.12477283344E+02  0.35810046756E+02  0.51100000000E-03 0. -1.
        -11    1    3    3    0    0 -0.57733624146E-01 -0.73640236626E+01  0.71643160511E+00  0.73990169739E+01  0.51100000000E-03 0.  1.
         12    1    3    3    0    0 -0.58163330234E+01  0.41918741033E+01 -0.14757700742E+01  0.73197975142E+01  0.00000000000E+00 0. -1.
</event>
<event>
 7    1  0.6136531E-013  0.5052888E+02  0.7816164E-02  0.1300439E+00
        -11   -1    0    0    0    0  0.00000000000E+00  0.00000000000E+00  0.45593999997E+02  0.45594000000E+02  0.51100000000E-03 0.  1.
         11   -1    0    0    0    0 -0.00000000000E+00 -0.00000000000E+00 -0.45593999997E+02  0.45594000000E+02  0.51100000000E-03 0. -1.
    9900012    2    1    2    0    0 -0.69995912900E+01 -0.27750817982E+02 -0.28880127813E+02  0.50528880981E+02  0.30000064229E+02 0.  0.
         12    1    1    2    0    0  0.69995912900E+01  0.27750817982E+02  0.28880127813E+02  0.40659119019E+02  0.00000000000E+00 0. -1.
         11    1    3    3    0    0  0.11393368524E+02 -0.80623390986E+01 -0.12312644024E+02  0.18612129411E+02  0.51100000000E-03 0. -1.
        -11    1    3    3    0    0 -0.41378004657E+01 -0.73117677820E+01 -0.50415170187E+01  0.97979709585E+01  0.51100000000E-03 0.  1.
         12    1    3    3    0    0 -0.14255159349E+02 -0.12376711102E+02 -0.11525966770E+02  0.22118780611E+02  0.00000000000E+00 0. -1.
</event>
<event>
 7    1  0.6136531E-013  0.5052884E+02  0.7816164E-02  0.1300439E+00
        -11   -1    0    0    0    0  0.00000000000E+00  0.00000000000E+00  0.45593999997E+02  0.45594000000E+02  0.51100000000E-03 0. -1.
         11   -1    0    0    0    0 -0.00000000000E+00 -0.00000000000E+00 -0.45593999997E+02  0.45594000000E+02  0.51100000000E-03 0.  1.
    9900012    2    1    2    0    0  0.10046295277E+02  0.32463533706E+02 -0.22323929870E+02  0.50528844644E+02  0.29999953779E+02 0.  0.
         12    1    1    2    0    0 -0.10046295277E+02 -0.32463533706E+02  0.22323929870E+02  0.40659155356E+02  0.00000000000E+00 0. -1.
         11    1    3    3    0    0  0.37438441961E+01  0.19262009426E+02 -0.13336454350E+01  0.19667739751E+02  0.51100000000E-03 0. -1.
        -11    1    3    3    0    0  0.11140868139E+02  0.13082368142E+02 -0.19028179185E+02  0.25638621306E+02  0.51100000000E-03 0.  1.
        -12    1    3    3    0    0 -0.48384170580E+01  0.11915613753E+00 -0.19621052496E+01  0.52224835877E+01  0.00000000000E+00 0.  1.
</event>
<event>
 7    1  0.6136531E-013  0.5052886E+02  0.7816164E-02  0.1300439E+00
        -11   -1    0    0    0    0  0.00000000000E+00  0.00000000000E+00  0.45593999997E+02  0.45594000000E+02  0.51100000000E-03 0.  1.
         11   -1    0    0    0    0 -0.00000000000E+00 -0.00000000000E+00 -0.45593999997E+02  0.45594000000E+02  0.51100000000E-03 0. -1.
    9900012    2    1    2    0    0  0.14686286052E+02 -0.21790878022E+02  0.31026378280E+02  0.50528861886E+02  0.30000006189E+02 0.  0.
         12    1    1    2    0    0 -0.14686286052E+02  0.21790878022E+02 -0.31026378280E+02  0.40659138114E+02  0.00000000000E+00 0. -1.
         11    1    3    3    0    0  0.18005523467E+02 -0.11214107340E+02  0.54734658908E+01  0.21906937437E+02  0.51100000000E-03 0. -1.
        -11    1    3    3    0    0 -0.88122778963E+00 -0.10248358304E+02  0.18723122926E+02  0.21362601497E+02  0.51100000000E-03 0.  1.
         12    1    3    3    0    0 -0.24380096247E+01 -0.32841237826E+00  0.68297894635E+01  0.72593229530E+01  0.00000000000E+00 0. -1.
</event>
<event>
 7    1  0.6136531E-013  0.5052886E+02  0.7816164E-02  0.1300439E+00
        -11   -1    0    0    0    0  0.00000000000E+00  0.00000000000E+00  0.45593999997E+02  0.45594000000E+02  0.51100000000E-03 0.  1.
         11   -1    0    0    0    0 -0.00000000000E+00 -0.00000000000E+00 -0.45593999997E+02  0.45594000000E+02  0.51100000000E-03 0. -1.
    9900012    2    1    2    0    0 -0.86294542919E+01 -0.17305575250E+02  0.35766117863E+02  0.50528860767E+02  0.30000002788E+02 0.  0.
         12    1    1    2    0    0  0.86294542919E+01  0.17305575250E+02 -0.35766117863E+02  0.40659139233E+02  0.00000000000E+00 0. -1.
         11    1    3    3    0    0 -0.52450427438E+01  0.13129092066E+01  0.35348606613E+01  0.64598331345E+01  0.51100000000E-03 0. -1.
        -11    1    3    3    0    0 -0.18614950825E+01 -0.23140666112E+02  0.31665360809E+02  0.39263859560E+02  0.51100000000E-03 0.  1.
        -12    1    3    3    0    0 -0.15229164656E+01  0.45221816553E+01  0.56589639262E+00  0.48051680732E+01  0.00000000000E+00 0.  1.
</event>
<event>
 7    1  0.6136531E-013  0.5052886E+02  0.7816164E-02  0.1300439E+00
        -11   -1    0    0    0    0  0.00000000000E+00  0.00000000000E+00  0.45593999997E+02  0.45594000000E+02  0.51100000000E-03 0. -1.
         11   -1    0    0    0    0 -0.00000000000E+00 -0.00000000000E+00 -0.45593999997E+02  0.45594000000E+02  0.51100000000E-03 0.  1.
    9900012    2    1    2    0    0 -0.40520254527E+02  0.29089730604E+01 -0.16771467479E+01  0.50528856226E+02  0.29999988984E+02 0.  0.
         12    1    1    2    0    0  0.40520254527E+02 -0.29089730604E+01  0.16771467479E+01  0.40659143774E+02  0.00000000000E+00 0. -1.
         11    1    3    3    0    0 -0.25374689173E+02 -0.62060770057E+01  0.59083705899E+01  0.26782439876E+02  0.51100000000E-03 0. -1.
        -11    1    3    3    0    0 -0.16731622316E+02  0.77171755204E+01 -0.96429778130E+01  0.20796369988E+02  0.51100000000E-03 0.  1.
         12    1    3    3    0    0  0.15860569611E+01  0.13978745458E+01  0.20574604752E+01  0.29500463618E+01  0.00000000000E+00 0. -1.
</event>
<event>
 7    1  0.6136531E-013  0.5052888E+02  0.7816164E-02  0.1300439E+00
        -11   -1    0    0    0    0  0.00000000000E+00  0.00000000000E+00  0.45593999997E+02  0.45594000000E+02  0.51100000000E-03 0. -1.
         11   -1    0    0    0    0 -0.00000000000E+00 -0.00000000000E+00 -0.45593999997E+02  0.45594000000E+02  0.51100000000E-03 0.  1.
    9900012    2    1    2    0    0  0.11752151392E+02  0.23594362898E+02 -0.30957343820E+02  0.50528878523E+02  0.30000056758E+02 0.  0.
         12    1    1    2    0    0 -0.11752151392E+02 -0.23594362898E+02  0.30957343820E+02  0.40659121477E+02  0.00000000000E+00 0. -1.
         11    1    3    3    0    0 -0.13171783927E+01 -0.59618539736E+01 -0.86321018182E+00  0.61663436330E+01  0.51100000000E-03 0. -1.
        -11    1    3    3    0    0  0.98102601790E+01  0.25886499979E+02 -0.25342014342E+02  0.37530917616E+02  0.51100000000E-03 0.  1.
        -12    1    3    3    0    0  0.32590696051E+01  0.36697168922E+01 -0.47521192969E+01  0.68316172735E+01  0.00000000000E+00 0.  1.
</event>
<event>
 7    1  0.6136531E-013  0.5052888E+02  0.7816164E-02  0.1300439E+00
        -11   -1    0    0    0    0  0.00000000000E+00  0.00000000000E+00  0.45593999997E+02  0.45594000000E+02  0.51100000000E-03 0. -1.
         11   -1    0    0    0    0 -0.00000000000E+00 -0.00000000000E+00 -0.45593999997E+02  0.45594000000E+02  0.51100000000E-03 0.  1.
    9900012    2    1    2    0    0  0.34552966489E+02  0.17165513927E+02 -0.12829707321E+02  0.50528883537E+02  0.30000072000E+02 0.  0.
         12    1    1    2    0    0 -0.34552966489E+02 -0.17165513927E+02  0.12829707321E+02  0.40659116463E+02  0.00000000000E+00 0. -1.
         11    1    3    3    0    0 -0.41788991369E+00  0.45127434479E+01 -0.77062216866E+01  0.89400972227E+01  0.51100000000E-03 0.  1.
        -11    1    3    3    0    0  0.29587438948E+02  0.14666536541E+02  0.11981525764E+01  0.33044809085E+02  0.51100000000E-03 0. -1.
         12    1    3    3    0    0  0.53834174548E+01 -0.20137660611E+01 -0.63216382103E+01  0.85439772298E+01  0.00000000000E+00 0. -1.
</event>
<event>
 7    1  0.6136531E-013  0.5052886E+02  0.7816164E-02  0.1300439E+00
        -11   -1    0    0    0    0  0.00000000000E+00  0.00000000000E+00  0.45593999997E+02  0.45594000000E+02  0.51100000000E-03 0. -1.
         11   -1    0    0    0    0 -0.00000000000E+00 -0.00000000000E+00 -0.45593999997E+02  0.45594000000E+02  0.51100000000E-03 0.  1.
    9900012    2    1    2    0    0  0.20288099601E+02  0.24430179134E+02 -0.25391438432E+02  0.50528858548E+02  0.29999996044E+02 0.  0.
         12    1    1    2    0    0 -0.20288099601E+02 -0.24430179134E+02  0.25391438432E+02  0.40659141452E+02  0.00000000000E+00 0. -1.
         11    1    3    3    0    0 -0.36083330667E+01  0.10640344699E+02 -0.18359560736E+02  0.21524648046E+02  0.51100000000E-03 0. -1.
        -11    1    3    3    0    0  0.15113007710E+02  0.65734469747E+01 -0.21043976291E+01  0.16614502605E+02  0.51100000000E-03 0.  1.
         12    1    3    3    0    0  0.87834249585E+01  0.72163874606E+01 -0.49274800668E+01  0.12389707898E+02  0.00000000000E+00 0. -1.
</event>
<event>
 7    1  0.6136531E-013  0.5052887E+02  0.7816164E-02  0.1300439E+00
        -11   -1    0    0    0    0  0.00000000000E+00  0.00000000000E+00  0.45593999997E+02  0.45594000000E+02  0.51100000000E-03 0.  1.
         11   -1    0    0    0    0 -0.00000000000E+00 -0.00000000000E+00 -0.45593999997E+02  0.45594000000E+02  0.51100000000E-03 0. -1.
    9900012    2    1    2    0    0 -0.21143396161E+02  0.11369348938E+02  0.32815537811E+02  0.50528870419E+02  0.30000032125E+02 0.  0.
         12    1    1    2    0    0  0.21143396161E+02 -0.11369348938E+02 -0.32815537811E+02  0.40659129581E+02  0.00000000000E+00 0. -1.
         11    1    3    3    0    0 -0.16941158224E+02  0.61877737991E+01  0.24511110808E+01  0.18201629937E+02  0.51100000000E-03 0.  1.
        -11    1    3    3    0    0 -0.34395795591E+01  0.55927531806E+01  0.10114082776E+02  0.12058369141E+02  0.51100000000E-03 0. -1.
         12    1    3    3    0    0 -0.76265837749E+00 -0.41117804199E+00  0.20250343954E+02  0.20268871341E+02  0.00000000000E+00 0. -1.
</event>
<event>
 7    1  0.6136531E-013  0.5052889E+02  0.7816164E-02  0.1300439E+00
        -11   -1    0    0    0    0  0.00000000000E+00  0.00000000000E+00  0.45593999997E+02  0.45594000000E+02  0.51100000000E-03 0.  1.
         11   -1    0    0    0    0 -0.00000000000E+00 -0.00000000000E+00 -0.45593999997E+02  0.45594000000E+02  0.51100000000E-03 0. -1.
    9900012    2    1    2    0    0  0.14844799108E+02  0.36308277896E+02 -0.10700642338E+02  0.50528894614E+02  0.30000105668E+02 0.  0.
         12    1    1    2    0    0 -0.14844799108E+02 -0.36308277896E+02  0.10700642338E+02  0.40659105386E+02  0.00000000000E+00 0. -1.
         11    1    3    3    0    0  0.43885657347E+01  0.32274372130E+02 -0.13389150947E+02  0.35215961849E+02  0.51100000000E-03 0. -1.
        -11    1    3    3    0    0  0.11296772620E+02  0.43727205125E+01 -0.37383816254E+00  0.12119303261E+02  0.51100000000E-03 0.  1.
        -12    1    3    3    0    0 -0.84053924586E+00 -0.33881474646E+00  0.30623467718E+01  0.31936295038E+01  0.00000000000E+00 0.  1.
</event>
<event>
 7    1  0.6136531E-013  0.5052885E+02  0.7816164E-02  0.1300439E+00
        -11   -1    0    0    0    0  0.00000000000E+00  0.00000000000E+00  0.45593999997E+02  0.45594000000E+02  0.51100000000E-03 0. -1.
         11   -1    0    0    0    0 -0.00000000000E+00 -0.00000000000E+00 -0.45593999997E+02  0.45594000000E+02  0.51100000000E-03 0.  1.
    9900012    2    1    2    0    0 -0.28347350853E+02 -0.18869998924E+02 -0.22215246361E+02  0.50528851820E+02  0.29999975593E+02 0.  0.
         12    1    1    2    0    0  0.28347350853E+02  0.18869998924E+02  0.22215246361E+02  0.40659148180E+02  0.00000000000E+00 0. -1.
         11    1    3    3    0    0 -0.10860807853E+02  0.48224782819E+01 -0.35238366883E+01  0.12394792022E+02  0.51100000000E-03 0. -1.
        -11    1    3    3    0    0  0.11023745971E+01 -0.99843208484E+01 -0.43458207741E+01  0.10944772771E+02  0.51100000000E-03 0.  1.
        -12    1    3    3    0    0 -0.18588917598E+02 -0.13708156358E+02 -0.14345588899E+02  0.27189287027E+02  0.00000000000E+00 0.  1.
</event>
<event>
 7    1 -0.6136531E-013  0.5052887E+02  0.7816164E-02  0.1300439E+00
        -11   -1    0    0    0    0  0.00000000000E+00  0.00000000000E+00  0.45593999997E+02  0.45594000000E+02  0.51100000000E-03 0.  1.
         11   -1    0    0    0    0 -0.00000000000E+00 -0.00000000000E+00 -0.45593999997E+02  0.45594000000E+02  0.51100000000E-03 0. -1.
    9900012    2    1    2    0    0 -0.13187715196E+02 -0.36139802358E+00  0.38459313149E+02  0.50528865620E+02  0.30000017538E+02 0.  0.
         12    1    1    2    0    0  0.13187715196E+02  0.36139802358E+00 -0.38459313149E+02  0.40659134380E+02  0.00000000000E+00 0. -1.
         11    1    3    3    0    0 -0.13148103518E+02  0.67253947752E+01  0.31861854625E+02  0.35118105607E+02  0.51100000000E-03 0. -1.
        -11    1    3    3    0    0 -0.48806841809E+01 -0.26499564441E+01  0.68753330516E+01  0.88381871479E+01  0.51100000000E-03 0.  1.
         12    1    3    3    0    0  0.48410725029E+01 -0.44368363547E+01 -0.27787452710E+00  0.65725728653E+01  0.00000000000E+00 0. -1.
</event>
<event>
 7    1  0.6136531E-013  0.5052886E+02  0.7816164E-02  0.1300439E+00
        -11   -1    0    0    0    0  0.00000000000E+00  0.00000000000E+00  0.45593999997E+02  0.45594000000E+02  0.51100000000E-03 0. -1.
         11   -1    0    0    0    0 -0.00000000000E+00 -0.00000000000E+00 -0.45593999997E+02  0.45594000000E+02  0.51100000000E-03 0.  1.
    9900012    2    1    2    0    0  0.36024721778E+02 -0.68822030452E+01 -0.17550515759E+02  0.50528857100E+02  0.29999991641E+02 0.  0.
         12    1    1    2    0    0 -0.36024721778E+02  0.68822030452E+01  0.17550515759E+02  0.40659142900E+02  0.00000000000E+00 0. -1.
         11    1    3    3    0    0  0.31614942685E+01  0.38923850458E+01 -0.10492506918E+02  0.11629205005E+02  0.51100000000E-03 0. -1.
        -11    1    3    3    0    0  0.32830014822E+02 -0.82037416065E+01 -0.97109115328E+01  0.35205298644E+02  0.51100000000E-03 0.  1.
        -12    1    3    3    0    0  0.33212688213E-01 -0.25708464844E+01  0.26529026921E+01  0.36943534512E+01  0.00000000000E+00 0.  1.
</event>
<event>
 7    1  0.6136531E-013  0.5052886E+02  0.7816164E-02  0.1300439E+00
        -11   -1    0    0    0    0  0.00000000000E+00  0.00000000000E+00  0.45593999997E+02  0.45594000000E+02  0.51100000000E-03 0.  1.
         11   -1    0    0    0    0 -0.00000000000E+00 -0.00000000000E+00 -0.45593999997E+02  0.45594000000E+02  0.51100000000E-03 0. -1.
    9900012    2    1    2    0    0 -0.28417159412E+02  0.20313711605E+02  0.20808265781E+02  0.50528858924E+02  0.29999997186E+02 0.  0.
         12    1    1    2    0    0  0.28417159412E+02 -0.20313711605E+02 -0.20808265781E+02  0.40659141076E+02  0.00000000000E+00 0. -1.
         11    1    3    3    0    0 -0.72628387396E+01  0.43044570976E+01 -0.62804115782E+01  0.10522392661E+02  0.51100000000E-03 0. -1.
        -11    1    3    3    0    0 -0.17618244124E+02  0.10061963293E+02  0.12422267379E+02  0.23789879327E+02  0.51100000000E-03 0.  1.
         12    1    3    3    0    0 -0.35360765488E+01  0.59472912145E+01  0.14666409980E+02  0.16216586936E+02  0.00000000000E+00 0. -1.
</event>
<event>
 7    1  0.6136531E-013  0.5052884E+02  0.7816164E-02  0.1300439E+00
        -11   -1    0    0    0    0  0.00000000000E+00  0.00000000000E+00  0.45593999997E+02  0.45594000000E+02  0.51100000000E-03 0.  1.
         11   -1    0    0    0    0 -0.00000000000E+00 -0.00000000000E+00 -0.45593999997E+02  0.45594000000E+02  0.51100000000E-03 0. -1.
    9900012    2    1    2    0    0  0.11168065249E+01 -0.28727059979E+02  0.28751972685E+02  0.50528841559E+02  0.29999944402E+02 0.  0.
         12    1    1    2    0    0 -0.11168065249E+01  0.28727059979E+02 -0.28751972685E+02  0.40659158441E+02  0.00000000000E+00 0. -1.
         11    1    3    3    0    0 -0.19735276275E+01 -0.13178850413E+02  0.40460004861E+01  0.13926486625E+02  0.51100000000E-03 0. -1.
        -11    1    3    3    0    0  0.10481530030E+02 -0.76424577195E+01  0.21847854242E+02  0.25408627806E+02  0.51100000000E-03 0.  1.
        -12    1    3    3    0    0 -0.73911958773E+01 -0.79057518465E+01  0.28581179574E+01  0.11193727128E+02  0.00000000000E+00 0.  1.
</event>
<event>
 7    1  0.6136531E-013  0.5052887E+02  0.7816164E-02  0.1300439E+00
        -11   -1    0    0    0    0  0.00000000000E+00  0.00000000000E+00  0.45593999997E+02  0.45594000000E+02  0.51100000000E-03 0.  1.
         11   -1    0    0    0    0 -0.00000000000E+00 -0.00000000000E+00 -0.45593999997E+02  0.45594000000E+02  0.51100000000E-03 0. -1.
    9900012    2    1    2    0    0  0.87582097314E+01 -0.35625176342E+02  0.17530132904E+02  0.50528868347E+02  0.30000025829E+02 0.  0.
         12    1    1    2    0    0 -0.87582097314E+01  0.35625176342E+02 -0.17530132904E+02  0.40659131653E+02  0.00000000000E+00 0. -1.
         11    1    3    3    0    0  0.13932093146E+02 -0.12731484509E+02  0.13288075541E+02  0.23081743198E+02  0.51100000000E-03 0. -1.
        -11    1    3    3    0    0 -0.36219436657E+01 -0.24492857474E+02  0.46209166565E+01  0.25186730915E+02  0.51100000000E-03 0.  1.
         12    1    3    3    0    0 -0.15519397487E+01  0.15991656406E+01 -0.37885929408E+00  0.22603942343E+01  0.00000000000E+00 0. -1.
</event>
<event>
 7    1  0.6136531E-013  0.5052887E+02  0.7816164E-02  0.1300439E+00
        -11   -1    0    0    0    0  0.00000000000E+00  0.00000000000E+00  0.45593999997E+02  0.45594000000E+02  0.51100000000E-03 0.  1.
         11   -1    0    0    0    0 -0.00000000000E+00 -0.00000000000E+00 -0.45593999997E+02  0.45594000000E+02  0.51100000000E-03 0. -1.
    9900012    2    1    2    0    0 -0.21840889262E+02 -0.19153652274E+02  0.28447815499E+02  0.50528867620E+02  0.30000023619E+02 0.  0.
         12    1    1    2    0    0  0.21840889262E+02  0.19153652274E+02 -0.28447815499E+02  0.40659132380E+02  0.00000000000E+00 0. -1.
         11    1    3    3    0    0 -0.19216198399E+02 -0.82916657567E+01  0.29677075528E+02  0.36314498676E+02  0.51100000000E-03 0.  1.
        -11    1    3    3    0    0 -0.19983893992E+01  0.91012415223E+00 -0.10262657702E+01  0.24238621775E+01  0.51100000000E-03 0. -1.
         12    1    3    3    0    0 -0.62630146357E+00 -0.11772110670E+02 -0.20299425913E+00  0.11790506767E+02  0.00000000000E+00 0. -1.
</event>
<event>
 7    1  0.6136531E-013  0.5052887E+02  0.7816164E-02  0.1300439E+00
        -11   -1    0    0    0    0  0.00000000000E+00  0.00000000000E+00  0.45593999997E+02  0.45594000000E+02  0.51100000000E-03 0.  1.
         11   -1    0    0    0    0 -0.00000000000E+00 -0.00000000000E+00 -0.45593999997E+02  0.45594000000E+02  0.51100000000E-03 0. -1.
    9900012    2    1    2    0    0  0.49167978047E+00  0.23051880882E+01  0.40590756664E+02  0.50528866123E+02  0.30000019067E+02 0.  0.
         12    1    1    2    0    0 -0.49167978047E+00 -0.23051880882E+01 -0.40590756664E+02  0.40659133877E+02  0.00000000000E+00 0. -1.
         11    1    3    3    0    0 -0.65444591015E+01 -0.87284333759E+01  0.63063707730E+01  0.12601024034E+02  0.51100000000E-03 0. -1.
        -11    1    3    3    0    0  0.27417737786E+01  0.10965440332E+02  0.28956850159E+02  0.31084680737E+02  0.51100000000E-03 0.  1.
         12    1    3    3    0    0  0.42943651034E+01  0.68181131661E-01  0.53275357312E+01  0.68431613510E+01  0.00000000000E+00 0. -1.
</event>
<event>
 7    1  0.6136531E-013  0.5052886E+02  0.7816164E-02  0.1300439E+00
        -11   -1    0    0    0    0  0.00000000000E+00  0.00000000000E+00  0.45593999997E+02  0.45594000000E+02  0.51100000000E-03 0.  1.
         11   -1    0    0    0    0 -0.00000000000E+00 -0.00000000000E+00 -0.45593999997E+02  0.45594000000E+02  0.51100000000E-03 0. -1.
    9900012    2    1    2    0    0  0.19585051217E+02 -0.23808350196E+01  0.35551693753E+02  0.50528861602E+02  0.30000005325E+02 0.  0.
         12    1    1    2    0    0 -0.19585051217E+02  0.23808350196E+01 -0.35551693753E+02  0.40659138398E+02  0.00000000000E+00 0. -1.
         11    1    3    3    0    0  0.15224486099E+02  0.26733410380E+01  0.27647244995E+01  0.15702720500E+02  0.51100000000E-03 0. -1.
        -11    1    3    3    0    0 -0.27877184250E+01 -0.30753622584E+01  0.14770239381E+02  0.15342398726E+02  0.51100000000E-03 0.  1.
         12    1    3    3    0    0  0.71482835427E+01 -0.19788137992E+01  0.18016729873E+02  0.19483742376E+02  0.00000000000E+00 0. -1.
</event>
<event>
 7    1  0.6136531E-013  0.5052885E+02  0.7816164E-02  0.1300439E+00
        -11   -1    0    0    0    0  0.00000000000E+00  0.00000000000E+00  0.45593999997E+02  0.45594000000E+02  0.51100000000E-03 0.  1.
         11   -1    0    0    0    0 -0.00000000000E+00 -0.00000000000E+00 -0.45593999997E+02  0.45594000000E+02  0.51100000000E-03 0. -1.
    9900012    2    1    2    0    0  0.15457490079E+02 -0.36602528633E+02  0.86305871659E+01  0.50528854206E+02  0.29999982844E+02 0.  0.
         12    1    1    2    0    0 -0.15457490079E+02  0.36602528633E+02 -0.86305871659E+01  0.40659145794E+02  0.00000000000E+00 0. -1.
         11    1    3    3    0    0 -0.57733622686E+01 -0.46021524995E+01  0.67610057372E+01  0.10011129724E+02  0.51100000000E-03 0. -1.
        -11    1    3    3    0    0  0.11437432802E+02 -0.27308297820E+02  0.17343626135E+01  0.29657478194E+02  0.51100000000E-03 0.  1.
         12    1    3    3    0    0  0.97934195455E+01 -0.46920783138E+01  0.13521881518E+00  0.10860246287E+02  0.00000000000E+00 0. -1.
</event>
<event>
 7    1  0.6136531E-013  0.5052882E+02  0.7816164E-02  0.1300439E+00
        -11   -1    0    0    0    0  0.00000000000E+00  0.00000000000E+00  0.45593999997E+02  0.45594000000E+02  0.51100000000E-03 0.  1.
         11   -1    0    0    0    0 -0.00000000000E+00 -0.00000000000E+00 -0.45593999997E+02  0.45594000000E+02  0.51100000000E-03 0. -1.
    9900012    2    1    2    0    0  0.25550702180E+02 -0.25128182721E+02  0.19206909418E+02  0.50528815082E+02  0.29999863924E+02 0.  0.
         12    1    1    2    0    0 -0.25550702180E+02  0.25128182721E+02 -0.19206909418E+02  0.40659184918E+02  0.00000000000E+00 0. -1.
         11    1    3    3    0    0  0.15692411063E+02 -0.23362720644E+02  0.19961584849E+02  0.34504106289E+02  0.51100000000E-03 0. -1.
        -11    1    3    3    0    0  0.12512253908E+02 -0.21946625296E+01 -0.23205601387E+01  0.12913482919E+02  0.51100000000E-03 0.  1.
        -12    1    3    3    0    0 -0.26539627909E+01  0.42920045258E+00  0.15658847086E+01  0.31112258749E+01  0.00000000000E+00 0.  1.
</event>
<event>
 7    1  0.6136531E-013  0.5052885E+02  0.7816164E-02  0.1300439E+00
        -11   -1    0    0    0    0  0.00000000000E+00  0.00000000000E+00  0.45593999997E+02  0.45594000000E+02  0.51100000000E-03 0.  1.
         11   -1    0    0    0    0 -0.00000000000E+00 -0.00000000000E+00 -0.45593999997E+02  0.45594000000E+02  0.51100000000E-03 0. -1.
    9900012    2    1    2    0    0 -0.96315517827E+01 -0.12339783128E+02  0.37525047032E+02  0.50528853524E+02  0.29999980771E+02 0.  0.
         12    1    1    2    0    0  0.96315517827E+01  0.12339783128E+02 -0.37525047032E+02  0.40659146476E+02  0.00000000000E+00 0. -1.
         11    1    3    3    0    0 -0.16930336029E+02 -0.49296034248E+01  0.23716833191E+02  0.29553772091E+02  0.51100000000E-03 0. -1.
        -11    1    3    3    0    0  0.79935149924E+01 -0.31891995872E+00  0.10274744093E+02  0.13021841587E+02  0.51100000000E-03 0.  1.
        -12    1    3    3    0    0 -0.69473074619E+00 -0.70912597448E+01  0.35334697488E+01  0.79532398457E+01  0.00000000000E+00 0.  1.
</event>
<event>
 7    1  0.6136531E-013  0.5052886E+02  0.7816164E-02  0.1300439E+00
        -11   -1    0    0    0    0  0.00000000000E+00  0.00000000000E+00  0.45593999997E+02  0.45594000000E+02  0.51100000000E-03 0.  1.
         11   -1    0    0    0    0 -0.00000000000E+00 -0.00000000000E+00 -0.45593999997E+02  0.45594000000E+02  0.51100000000E-03 0. -1.
    9900012    2    1    2    0    0 -0.29646017303E+02 -0.24541223138E+02 -0.13115182506E+02  0.50528856044E+02  0.29999988432E+02 0.  0.
         12    1    1    2    0    0  0.29646017303E+02  0.24541223138E+02  0.13115182506E+02  0.40659143956E+02  0.00000000000E+00 0. -1.
         11    1    3    3    0    0  0.65384505128E+00 -0.10402920646E+02 -0.47779989459E+01  0.11466365837E+02  0.51100000000E-03 0. -1.
        -11    1    3    3    0    0 -0.21891769514E+02 -0.11334594124E+02  0.28205536178E+01  0.24812861975E+02  0.51100000000E-03 0.  1.
        -12    1    3    3    0    0 -0.84080928404E+01 -0.28037083683E+01 -0.11157737178E+02  0.14249628232E+02  0.00000000000E+00 0.  1.
</event>
<event>
 7    1  0.6136531E-013  0.5052885E+02  0.7816164E-02  0.1300439E+00
        -11   -1    0    0    0    0  0.00000000000E+00  0.00000000000E+00  0.45593999997E+02  0.45594000000E+02  0.51100000000E-03 0.  1.
         11   -1    0    0    0    0 -0.00000000000E+00 -0.00000000000E+00 -0.45593999997E+02  0.45594000000E+02  0.51100000000E-03 0. -1.
    9900012    2    1    2    0    0  0.16605051598E+02 -0.12858748287E+02  0.34815105766E+02  0.50528846842E+02  0.29999960460E+02 0.  0.
         12    1    1    2    0    0 -0.16605051598E+02  0.12858748287E+02 -0.34815105766E+02  0.40659153158E+02  0.00000000000E+00 0. -1.
         11    1    3    3    0    0 -0.17549213563E+01  0.59545232213E+01  0.56006402674E+01  0.83608173898E+01  0.51100000000E-03 0. -1.
        -11    1    3    3    0    0  0.16290616910E+02 -0.87976076990E+01  0.24993611048E+02  0.31104062340E+02  0.51100000000E-03 0.  1.
        -12    1    3    3    0    0  0.20693560442E+01 -0.10015663809E+02  0.42208544502E+01  0.11063967112E+02  0.00000000000E+00 0.  1.
</event>
<event>
 7    1  0.6136531E-013  0.5052885E+02  0.7816164E-02  0.1300439E+00
        -11   -1    0    0    0    0  0.00000000000E+00  0.00000000000E+00  0.45593999997E+02  0.45594000000E+02  0.51100000000E-03 0.  1.
         11   -1    0    0    0    0 -0.00000000000E+00 -0.00000000000E+00 -0.45593999997E+02  0.45594000000E+02  0.51100000000E-03 0. -1.
    9900012    2    1    2    0    0 -0.36731589164E+02 -0.12835917505E+02  0.11798150523E+02  0.50528846338E+02  0.29999958930E+02 0.  0.
         12    1    1    2    0    0  0.36731589164E+02  0.12835917505E+02 -0.11798150523E+02  0.40659153662E+02  0.00000000000E+00 0. -1.
         11    1    3    3    0    0 -0.31943815807E+02 -0.14864647386E+02  0.55492467532E+00  0.35237381457E+02  0.51100000000E-03 0. -1.
        -11    1    3    3    0    0  0.11734717208E+00  0.13438746088E+01  0.10124516544E+02  0.10213990642E+02  0.51100000000E-03 0.  1.
        -12    1    3    3    0    0 -0.49051205288E+01  0.68485527232E+00  0.11187093032E+01  0.50774742393E+01  0.00000000000E+00 0.  1.
</event>
<event>
 7    1  0.6136531E-013  0.5052894E+02  0.7816164E-02  0.1300438E+00
        -11   -1    0    0    0    0  0.00000000000E+00  0.00000000000E+00  0.45593999997E+02  0.45594000000E+02  0.51100000000E-03 0.  1.
         11   -1    0    0    0    0 -0.00000000000E+00 -0.00000000000E+00 -0.45593999997E+02  0.45594000000E+02  0.51100000000E-03 0. -1.
    9900012    2    1    2    0    0 -0.35586596938E+02  0.18303224216E+02  0.71934004125E+01  0.50528943103E+02  0.30000253053E+02 0.  0.
         12    1    1    2    0    0  0.35586596938E+02 -0.18303224216E+02 -0.71934004125E+01  0.40659056897E+02  0.00000000000E+00 0. -1.
         11    1    3    3    0    0 -0.91990264073E+01  0.81017192018E+01 -0.72962352659E+01  0.14265167023E+02  0.51100000000E-03 0. -1.
        -11    1    3    3    0    0 -0.16750481861E+00  0.82035920335E+00  0.75075154985E+01  0.75540609150E+01  0.51100000000E-03 0.  1.
         12    1    3    3    0    0 -0.26220065712E+02  0.93811458108E+01  0.69821201799E+01  0.28709715165E+02  0.00000000000E+00 0. -1.
</event>
<event>
 7    1  0.6136531E-013  0.5052887E+02  0.7816164E-02  0.1300439E+00
        -11   -1    0    0    0    0  0.00000000000E+00  0.00000000000E+00  0.45593999997E+02  0.45594000000E+02  0.51100000000E-03 0. -1.
         11   -1    0    0    0    0 -0.00000000000E+00 -0.00000000000E+00 -0.45593999997E+02  0.45594000000E+02  0.51100000000E-03 0.  1.
    9900012    2    1    2    0    0  0.31614361146E+02 -0.12892650576E+02 -0.22078880728E+02  0.50528865186E+02  0.30000016221E+02 0.  0.
         12    1    1    2    0    0 -0.31614361146E+02  0.12892650576E+02  0.22078880728E+02  0.40659134814E+02  0.00000000000E+00 0. -1.
         11    1    3    3    0    0  0.71771673356E+01 -0.33451805523E+01  0.71560963123E+01  0.10672941421E+02  0.51100000000E-03 0. -1.
        -11    1    3    3    0    0  0.21083015498E+02 -0.81780738354E+01 -0.21005709403E+02  0.30864449808E+02  0.51100000000E-03 0.  1.
         12    1    3    3    0    0  0.33541783127E+01 -0.13693961888E+01 -0.82292676375E+01  0.89914739573E+01  0.00000000000E+00 0. -1.
</event>
<event>
 7    1  0.6136531E-013  0.5052886E+02  0.7816164E-02  0.1300439E+00
        -11   -1    0    0    0    0  0.00000000000E+00  0.00000000000E+00  0.45593999997E+02  0.45594000000E+02  0.51100000000E-03 0. -1.
         11   -1    0    0    0    0 -0.00000000000E+00 -0.00000000000E+00 -0.45593999997E+02  0.45594000000E+02  0.51100000000E-03 0.  1.
    9900012    2    1    2    0    0  0.21539467667E+02  0.21807576539E+02 -0.26714164542E+02  0.50528860203E+02  0.30000001073E+02 0.  0.
         12    1    1    2    0    0 -0.21539467667E+02 -0.21807576539E+02  0.26714164542E+02  0.40659139797E+02  0.00000000000E+00 0. -1.
         11    1    3    3    0    0  0.79266467990E+01  0.32934083111E+01 -0.23502975842E+02  0.25021353710E+02  0.51100000000E-03 0. -1.
        -11    1    3    3    0    0  0.13340158307E+02  0.14977391132E+02 -0.60659438209E+01  0.20954182004E+02  0.51100000000E-03 0.  1.
         12    1    3    3    0    0  0.27266256047E+00  0.35367770960E+01  0.28547551209E+01  0.45533244887E+01  0.00000000000E+00 0. -1.
</event>
<event>
 7    1  0.6136531E-013  0.5052887E+02  0.7816164E-02  0.1300439E+00
        -11   -1    0    0    0    0  0.00000000000E+00  0.00000000000E+00  0.45593999997E+02  0.45594000000E+02  0.51100000000E-03 0.  1.
         11   -1    0    0    0    0 -0.00000000000E+00 -0.00000000000E+00 -0.45593999997E+02  0.45594000000E+02  0.51100000000E-03 0. -1.
    9900012    2    1    2    0    0 -0.28084129596E+02 -0.12055373513E+02  0.26816316325E+02  0.50528865886E+02  0.30000018346E+02 0.  0.
         12    1    1    2    0    0  0.28084129596E+02  0.12055373513E+02 -0.26816316325E+02  0.40659134114E+02  0.00000000000E+00 0. -1.
         11    1    3    3    0    0 -0.14855603853E+01 -0.46753399950E+01 -0.56103497597E+01  0.74526316436E+01  0.51100000000E-03 0. -1.
        -11    1    3    3    0    0 -0.16993591527E+02 -0.74956384484E+01  0.19027819712E+02  0.26589935539E+02  0.51100000000E-03 0.  1.
         12    1    3    3    0    0 -0.96049776829E+01  0.11560493010E+00  0.13398846373E+02  0.16486298703E+02  0.00000000000E+00 0. -1.
</event>
<event>
 7    1  0.6136531E-013  0.5052887E+02  0.7816164E-02  0.1300439E+00
        -11   -1    0    0    0    0  0.00000000000E+00  0.00000000000E+00  0.45593999997E+02  0.45594000000E+02  0.51100000000E-03 0.  1.
         11   -1    0    0    0    0 -0.00000000000E+00 -0.00000000000E+00 -0.45593999997E+02  0.45594000000E+02  0.51100000000E-03 0. -1.
    9900012    2    1    2    0    0 -0.20876106034E+02  0.28154469898E+02  0.20607736675E+02  0.50528870776E+02  0.30000033212E+02 0.  0.
         12    1    1    2    0    0  0.20876106034E+02 -0.28154469898E+02 -0.20607736675E+02  0.40659129224E+02  0.00000000000E+00 0. -1.
         11    1    3    3    0    0 -0.14758870202E+02  0.28738787905E+02  0.66143729807E+01  0.32977145269E+02  0.51100000000E-03 0. -1.
        -11    1    3    3    0    0 -0.72808396616E+01  0.19398189177E+01  0.11846549510E+02  0.14039738572E+02  0.51100000000E-03 0.  1.
         12    1    3    3    0    0  0.11636038304E+01 -0.25241369253E+01  0.21468141843E+01  0.35119869354E+01  0.00000000000E+00 0. -1.
</event>
<event>
 7    1  0.6136531E-013  0.5052887E+02  0.7816164E-02  0.1300439E+00
        -11   -1    0    0    0    0  0.00000000000E+00  0.00000000000E+00  0.45593999997E+02  0.45594000000E+02  0.51100000000E-03 0.  1.
         11   -1    0    0    0    0 -0.00000000000E+00 -0.00000000000E+00 -0.45593999997E+02  0.45594000000E+02  0.51100000000E-03 0. -1.
    9900012    2    1    2    0    0  0.38911185083E+02  0.24944677873E+01  0.11526598251E+02  0.50528866201E+02  0.30000019303E+02 0.  0.
         12    1    1    2    0    0 -0.38911185083E+02 -0.24944677873E+01 -0.11526598251E+02  0.40659133799E+02  0.00000000000E+00 0. -1.
         11    1    3    3    0    0  0.63530408279E+01 -0.14665244612E+01 -0.39868949506E+01  0.76424572857E+01  0.51100000000E-03 0. -1.
        -11    1    3    3    0    0  0.30106550275E+01 -0.59623444808E+00  0.12461830854E+02  0.12834203041E+02  0.51100000000E-03 0.  1.
        -12    1    3    3    0    0  0.29547489227E+02  0.45572266966E+01  0.30516623478E+01  0.30052205874E+02  0.00000000000E+00 0.  1.
</event>
<event>
 7    1  0.6136531E-013  0.5052887E+02  0.7816164E-02  0.1300439E+00
        -11   -1    0    0    0    0  0.00000000000E+00  0.00000000000E+00  0.45593999997E+02  0.45594000000E+02  0.51100000000E-03 0.  1.
         11   -1    0    0    0    0 -0.00000000000E+00 -0.00000000000E+00 -0.45593999997E+02  0.45594000000E+02  0.51100000000E-03 0. -1.
    9900012    2    1    2    0    0 -0.89163045481E+01  0.39566264920E+02  0.28592163114E+01  0.50528869114E+02  0.30000028158E+02 0.  0.
         12    1    1    2    0    0  0.89163045481E+01 -0.39566264920E+02 -0.28592163114E+01  0.40659130886E+02  0.00000000000E+00 0. -1.
         11    1    3    3    0    0 -0.35083156292E+00  0.49121544195E+00 -0.23878547728E+01  0.24629709850E+01  0.51100000000E-03 0. -1.
        -11    1    3    3    0    0 -0.17774424080E+02  0.22382510908E+02  0.13898860685E+01  0.28615358280E+02  0.51100000000E-03 0.  1.
        -12    1    3    3    0    0  0.92089510949E+01  0.16692538570E+02  0.38571850157E+01  0.19450539849E+02  0.00000000000E+00 0.  1.
</event>
<event>
 7    1  0.6136531E-013  0.5052886E+02  0.7816164E-02  0.1300439E+00
        -11   -1    0    0    0    0  0.00000000000E+00  0.00000000000E+00  0.45593999997E+02  0.45594000000E+02  0.51100000000E-03 0. -1.
         11   -1    0    0    0    0 -0.00000000000E+00 -0.00000000000E+00 -0.45593999997E+02  0.45594000000E+02  0.51100000000E-03 0.  1.
    9900012    2    1    2    0    0 -0.32834300525E+02 -0.20300560247E+02 -0.12765652892E+02  0.50528856734E+02  0.29999990529E+02 0.  0.
         12    1    1    2    0    0  0.32834300525E+02  0.20300560247E+02  0.12765652892E+02  0.40659143266E+02  0.00000000000E+00 0. -1.
         11    1    3    3    0    0 -0.24368081417E+02 -0.21576157230E+02 -0.32359293301E+01  0.32707876600E+02  0.51100000000E-03 0.  1.
        -11    1    3    3    0    0 -0.43037337476E+01  0.45113554740E+01  0.73830706024E+00  0.62784990212E+01  0.51100000000E-03 0. -1.
         12    1    3    3    0    0 -0.41624853606E+01 -0.32357584913E+01 -0.10268030622E+02  0.11542481113E+02  0.00000000000E+00 0. -1.
</event>
<event>
 7    1  0.6136531E-013  0.5052886E+02  0.7816164E-02  0.1300439E+00
        -11   -1    0    0    0    0  0.00000000000E+00  0.00000000000E+00  0.45593999997E+02  0.45594000000E+02  0.51100000000E-03 0. -1.
         11   -1    0    0    0    0 -0.00000000000E+00 -0.00000000000E+00 -0.45593999997E+02  0.45594000000E+02  0.51100000000E-03 0.  1.
    9900012    2    1    2    0    0 -0.37581748473E+02  0.39433440381E+01  0.15007592799E+02  0.50528860534E+02  0.30000002079E+02 0.  0.
         12    1    1    2    0    0  0.37581748473E+02 -0.39433440381E+01 -0.15007592799E+02  0.40659139466E+02  0.00000000000E+00 0. -1.
         11    1    3    3    0    0 -0.15883644563E+01  0.96576078486E+01  0.27473407535E+01  0.10165636846E+02  0.51100000000E-03 0. -1.
        -11    1    3    3    0    0 -0.30747956686E+02 -0.18747330286E+01  0.13685643282E+02  0.33708282315E+02  0.51100000000E-03 0.  1.
        -12    1    3    3    0    0 -0.52454273305E+01 -0.38395307818E+01 -0.14253912362E+01  0.66549413732E+01  0.00000000000E+00 0.  1.
</event>
<event>
 7    1  0.6136531E-013  0.5052886E+02  0.7816164E-02  0.1300439E+00
        -11   -1    0    0    0    0  0.00000000000E+00  0.00000000000E+00  0.45593999997E+02  0.45594000000E+02  0.51100000000E-03 0.  1.
         11   -1    0    0    0    0 -0.00000000000E+00 -0.00000000000E+00 -0.45593999997E+02  0.45594000000E+02  0.51100000000E-03 0. -1.
    9900012    2    1    2    0    0  0.35335540857E+02  0.16817685767E+02  0.11033149851E+02  0.50528863292E+02  0.30000010462E+02 0.  0.
         12    1    1    2    0    0 -0.35335540857E+02 -0.16817685767E+02 -0.11033149851E+02  0.40659136708E+02  0.00000000000E+00 0. -1.
         11    1    3    3    0    0  0.17453562081E+02 -0.75278437075E+01  0.38552563398E+01  0.19394799867E+02  0.51100000000E-03 0. -1.
        -11    1    3    3    0    0  0.11963956602E+02  0.17653135915E+02  0.57504499170E+01  0.22087035558E+02  0.51100000000E-03 0.  1.
         12    1    3    3    0    0  0.59180221744E+01  0.66923935590E+01  0.14274435946E+01  0.90470278667E+01  0.00000000000E+00 0. -1.
</event>
<event>
 7    1  0.6136531E-013  0.5052885E+02  0.7816164E-02  0.1300439E+00
        -11   -1    0    0    0    0  0.00000000000E+00  0.00000000000E+00  0.45593999997E+02  0.45594000000E+02  0.51100000000E-03 0.  1.
         11   -1    0    0    0    0 -0.00000000000E+00 -0.00000000000E+00 -0.45593999997E+02  0.45594000000E+02  0.51100000000E-03 0. -1.
    9900012    2    1    2    0    0 -0.33432657681E+01 -0.28050573936E+02  0.29243017484E+02  0.50528853480E+02  0.29999980639E+02 0.  0.
         12    1    1    2    0    0  0.33432657681E+01  0.28050573936E+02 -0.29243017484E+02  0.40659146520E+02  0.00000000000E+00 0. -1.
         11    1    3    3    0    0  0.76568269184E+01 -0.58950049227E+01  0.75689646908E+01  0.12274661227E+02  0.51100000000E-03 0. -1.
        -11    1    3    3    0    0 -0.74053110850E+01 -0.19179141288E+02  0.53046332206E+01  0.21232456915E+02  0.51100000000E-03 0.  1.
        -12    1    3    3    0    0 -0.35947816015E+01 -0.29764277260E+01  0.16369419572E+02  0.17021735338E+02  0.00000000000E+00 0.  1.
</event>
<event>
 7    1  0.6136531E-013  0.5052887E+02  0.7816164E-02  0.1300439E+00
        -11   -1    0    0    0    0  0.00000000000E+00  0.00000000000E+00  0.45593999997E+02  0.45594000000E+02  0.51100000000E-03 0.  1.
         11   -1    0    0    0    0 -0.00000000000E+00 -0.00000000000E+00 -0.45593999997E+02  0.45594000000E+02  0.51100000000E-03 0. -1.
    9900012    2    1    2    0    0  0.33724347354E+01 -0.40303476507E+02  0.41738582982E+01  0.50528872763E+02  0.30000039250E+02 0.  0.
         12    1    1    2    0    0 -0.33724347354E+01  0.40303476507E+02 -0.41738582982E+01  0.40659127237E+02  0.00000000000E+00 0. -1.
         11    1    3    3    0    0 -0.17152988457E+01 -0.24934386192E+00 -0.30335864368E+01  0.34938616776E+01  0.51100000000E-03 0. -1.
        -11    1    3    3    0    0  0.31374394304E+01 -0.35030590579E+02  0.14436523889E+02  0.38018403764E+02  0.51100000000E-03 0.  1.
        -12    1    3    3    0    0  0.19502941507E+01 -0.50235420659E+01 -0.72290791543E+01  0.90166073210E+01  0.00000000000E+00 0.  1.
</event>
<event>
 7    1  0.6136531E-013  0.5052886E+02  0.7816164E-02  0.1300439E+00
        -11   -1    0    0    0    0  0.00000000000E+00  0.00000000000E+00  0.45593999997E+02  0.45594000000E+02  0.51100000000E-03 0.  1.
         11   -1    0    0    0    0 -0.00000000000E+00 -0.00000000000E+00 -0.45593999997E+02  0.45594000000E+02  0.51100000000E-03 0. -1.
    9900012    2    1    2    0    0  0.29638153526E+01 -0.28457368113E+02  0.28888753201E+02  0.50528855114E+02  0.29999985605E+02 0.  0.
         12    1    1    2    0    0 -0.29638153526E+01  0.28457368113E+02 -0.28888753201E+02  0.40659144886E+02  0.00000000000E+00 0. -1.
         11    1    3    3    0    0  0.25865145967E+01 -0.11476538425E+02  0.30907882092E+02  0.33071107748E+02  0.51100000000E-03 0. -1.
        -11    1    3    3    0    0 -0.59259143238E+00 -0.95864070299E+01  0.41255261855E+00  0.96135614771E+01  0.51100000000E-03 0.  1.
         12    1    3    3    0    0  0.96989218830E+00 -0.73944226579E+01 -0.24316815100E+01  0.78441858894E+01  0.00000000000E+00 0. -1.
</event>
<event>
 7    1  0.6136531E-013  0.5052885E+02  0.7816164E-02  0.1300439E+00
        -11   -1    0    0    0    0  0.00000000000E+00  0.00000000000E+00  0.45593999997E+02  0.45594000000E+02  0.51100000000E-03 0. -1.
         11   -1    0    0    0    0 -0.00000000000E+00 -0.00000000000E+00 -0.45593999997E+02  0.45594000000E+02  0.51100000000E-03 0.  1.
    9900012    2    1    2    0    0 -0.32324429235E+02 -0.22391907827E+02 -0.10339257219E+02  0.50528849722E+02  0.29999969216E+02 0.  0.
         12    1    1    2    0    0  0.32324429235E+02  0.22391907827E+02  0.10339257219E+02  0.40659150278E+02  0.00000000000E+00 0. -1.
         11    1    3    3    0    0 -0.22135005924E+02 -0.13989063773E+02  0.46533825997E+01  0.26595231949E+02  0.51100000000E-03 0. -1.
        -11    1    3    3    0    0 -0.77992966744E+01 -0.26596758889E+01 -0.15641350879E+02  0.17679218366E+02  0.51100000000E-03 0.  1.
        -12    1    3    3    0    0 -0.23901266361E+01 -0.57431681648E+01  0.64871106102E+00  0.62543994073E+01  0.00000000000E+00 0.  1.
</event>
<event>
 7    1  0.6136531E-013  0.5052885E+02  0.7816164E-02  0.1300439E+00
        -11   -1    0    0    0    0  0.00000000000E+00  0.00000000000E+00  0.45593999997E+02  0.45594000000E+02  0.51100000000E-03 0.  1.
         11   -1    0    0    0    0 -0.00000000000E+00 -0.00000000000E+00 -0.45593999997E+02  0.45594000000E+02  0.51100000000E-03 0. -1.
    9900012    2    1    2    0    0  0.16623625415E+02 -0.37056140592E+02 -0.19140807293E+01  0.50528853642E+02  0.29999981131E+02 0.  0.
         12    1    1    2    0    0 -0.16623625415E+02  0.37056140592E+02  0.19140807293E+01  0.40659146358E+02  0.00000000000E+00 0. -1.
         11    1    3    3    0    0 -0.41161515067E+00 -0.13288714458E+02  0.11356020881E+02  0.17484809679E+02  0.51100000000E-03 0. -1.
        -11    1    3    3    0    0  0.30769881453E+00 -0.45650678870E+01 -0.64765700157E+00  0.46210370293E+01  0.51100000000E-03 0.  1.
         12    1    3    3    0    0  0.16727541751E+02 -0.19202358247E+02 -0.12622444609E+02  0.28423006934E+02  0.00000000000E+00 0. -1.
</event>
<event>
 7    1  0.6136531E-013  0.5052888E+02  0.7816164E-02  0.1300439E+00
        -11   -1    0    0    0    0  0.00000000000E+00  0.00000000000E+00  0.45593999997E+02  0.45594000000E+02  0.51100000000E-03 0. -1.
         11   -1    0    0    0    0 -0.00000000000E+00 -0.00000000000E+00 -0.45593999997E+02  0.45594000000E+02  0.51100000000E-03 0.  1.
    9900012    2    1    2    0    0  0.13135314793E+02  0.50968194069E+01 -0.38139871105E+02  0.50528882564E+02  0.30000069041E+02 0.  0.
         12    1    1    2    0    0 -0.13135314793E+02 -0.50968194069E+01  0.38139871105E+02  0.40659117436E+02  0.00000000000E+00 0. -1.
         11    1    3    3    0    0  0.70953357809E+01 -0.33525548735E+01 -0.21111538844E+01  0.81265235500E+01  0.51100000000E-03 0. -1.
        -11    1    3    3    0    0  0.91625207338E+01  0.26710940446E+01 -0.34310728759E+02  0.35613377232E+02  0.51100000000E-03 0.  1.
        -12    1    3    3    0    0 -0.31225417215E+01  0.57782802358E+01 -0.17179884614E+01  0.67889817822E+01  0.00000000000E+00 0.  1.
</event>
<event>
 7    1  0.6136531E-013  0.5052890E+02  0.7816164E-02  0.1300439E+00
        -11   -1    0    0    0    0  0.00000000000E+00  0.00000000000E+00  0.45593999997E+02  0.45594000000E+02  0.51100000000E-03 0.  1.
         11   -1    0    0    0    0 -0.00000000000E+00 -0.00000000000E+00 -0.45593999997E+02  0.45594000000E+02  0.51100000000E-03 0. -1.
    9900012    2    1    2    0    0  0.32338691772E+02 -0.96226452074E+00 -0.24626116021E+02  0.50528898573E+02  0.30000117703E+02 0.  0.
         12    1    1    2    0    0 -0.32338691772E+02  0.96226452074E+00  0.24626116021E+02  0.40659101427E+02  0.00000000000E+00 0. -1.
         11    1    3    3    0    0  0.33929318675E+01 -0.61179734021E+01 -0.10589772873E+02  0.12691921642E+02  0.51100000000E-03 0. -1.
        -11    1    3    3    0    0  0.16228194293E+02  0.12150905037E+02 -0.55309501908E+01  0.21014047528E+02  0.51100000000E-03 0.  1.
        -12    1    3    3    0    0  0.12717565612E+02 -0.69951961557E+01 -0.85053929576E+01  0.16822929403E+02  0.00000000000E+00 0.  1.
</event>
<event>
 7    1  0.6136531E-013  0.5052886E+02  0.7816164E-02  0.1300439E+00
        -11   -1    0    0    0    0  0.00000000000E+00  0.00000000000E+00  0.45593999997E+02  0.45594000000E+02  0.51100000000E-03 0.  1.
         11   -1    0    0    0    0 -0.00000000000E+00 -0.00000000000E+00 -0.45593999997E+02  0.45594000000E+02  0.51100000000E-03 0. -1.
    9900012    2    1    2    0    0 -0.24150365533E+02  0.11564590453E+02  0.30597155652E+02  0.50528857833E+02  0.29999993869E+02 0.  0.
         12    1    1    2    0    0  0.24150365533E+02 -0.11564590453E+02 -0.30597155652E+02  0.40659142167E+02  0.00000000000E+00 0. -1.
         11    1    3    3    0    0 -0.28121628364E+02  0.40457719140E+01  0.14120609570E+02  0.31726737416E+02  0.51100000000E-03 0.  1.
        -11    1    3    3    0    0  0.35037978192E+01  0.77579806907E+01  0.15782504889E+02  0.17931824347E+02  0.51100000000E-03 0. -1.
         12    1    3    3    0    0  0.46746501136E+00 -0.23916215153E+00  0.69404119310E+00  0.87029606990E+00  0.00000000000E+00 0. -1.
</event>
<event>
 7    1  0.6136531E-013  0.5052886E+02  0.7816164E-02  0.1300439E+00
        -11   -1    0    0    0    0  0.00000000000E+00  0.00000000000E+00  0.45593999997E+02  0.45594000000E+02  0.51100000000E-03 0.  1.
         11   -1    0    0    0    0 -0.00000000000E+00 -0.00000000000E+00 -0.45593999997E+02  0.45594000000E+02  0.51100000000E-03 0. -1.
    9900012    2    1    2    0    0  0.12019758024E+02  0.24109212298E+02  0.30453844051E+02  0.50528864273E+02  0.30000013444E+02 0.  0.
         12    1    1    2    0    0 -0.12019758024E+02 -0.24109212298E+02 -0.30453844051E+02  0.40659135727E+02  0.00000000000E+00 0. -1.
         11    1    3    3    0    0 -0.62985492108E+01  0.35393747720E+01  0.26721164573E+01  0.77031878180E+01  0.51100000000E-03 0. -1.
        -11    1    3    3    0    0  0.19625348275E+02  0.12672451465E+02  0.25320513912E+02  0.34451034035E+02  0.51100000000E-03 0.  1.
         12    1    3    3    0    0 -0.13070410399E+01  0.78973860611E+01  0.24612136820E+01  0.83746424202E+01  0.00000000000E+00 0. -1.
</event>
<event>
 7    1  0.6136531E-013  0.5052887E+02  0.7816164E-02  0.1300439E+00
        -11   -1    0    0    0    0  0.00000000000E+00  0.00000000000E+00  0.45593999997E+02  0.45594000000E+02  0.51100000000E-03 0.  1.
         11   -1    0    0    0    0 -0.00000000000E+00 -0.00000000000E+00 -0.45593999997E+02  0.45594000000E+02  0.51100000000E-03 0. -1.
    9900012    2    1    2    0    0  0.26945005207E+02  0.16424629500E+02  0.25639085299E+02  0.50528874889E+02  0.30000045713E+02 0.  0.
         12    1    1    2    0    0 -0.26945005207E+02 -0.16424629500E+02 -0.25639085299E+02  0.40659125111E+02  0.00000000000E+00 0. -1.
         11    1    3    3    0    0  0.21553573349E+02  0.25761476468E+01  0.82956108547E+01  0.23238119987E+02  0.51100000000E-03 0. -1.
        -11    1    3    3    0    0  0.19826419489E+01  0.42458287757E+01  0.16401280810E+02  0.17057547994E+02  0.51100000000E-03 0.  1.
        -12    1    3    3    0    0  0.34087899087E+01  0.96026530780E+01  0.94219363409E+00  0.10233206908E+02  0.00000000000E+00 0.  1.
</event>
<event>
 7    1  0.6136531E-013  0.5052886E+02  0.7816164E-02  0.1300439E+00
        -11   -1    0    0    0    0  0.00000000000E+00  0.00000000000E+00  0.45593999997E+02  0.45594000000E+02  0.51100000000E-03 0.  1.
         11   -1    0    0    0    0 -0.00000000000E+00 -0.00000000000E+00 -0.45593999997E+02  0.45594000000E+02  0.51100000000E-03 0. -1.
    9900012    2    1    2    0    0 -0.27538284886E+02 -0.29855942142E+02 -0.18523819435E+01  0.50528859152E+02  0.29999997877E+02 0.  0.
         12    1    1    2    0    0  0.27538284886E+02  0.29855942142E+02  0.18523819435E+01  0.40659140848E+02  0.00000000000E+00 0. -1.
         11    1    3    3    0    0 -0.40467054131E+00  0.34443045358E+01  0.44445723216E+01  0.56374830701E+01  0.51100000000E-03 0. -1.
        -11    1    3    3    0    0 -0.21563055153E+02 -0.23913318072E+02  0.17791847965E+00  0.32200058757E+02  0.51100000000E-03 0.  1.
         12    1    3    3    0    0 -0.55705591923E+01 -0.93869286062E+01 -0.64748727448E+01  0.12691317325E+02  0.00000000000E+00 0. -1.
</event>
<event>
 7    1  0.6136531E-013  0.5052885E+02  0.7816164E-02  0.1300439E+00
        -11   -1    0    0    0    0  0.00000000000E+00  0.00000000000E+00  0.45593999997E+02  0.45594000000E+02  0.51100000000E-03 0.  1.
         11   -1    0    0    0    0 -0.00000000000E+00 -0.00000000000E+00 -0.45593999997E+02  0.45594000000E+02  0.51100000000E-03 0. -1.
    9900012    2    1    2    0    0 -0.24978215022E+02 -0.11027088261E+02  0.30127368770E+02  0.50528852810E+02  0.29999978600E+02 0.  0.
         12    1    1    2    0    0  0.24978215022E+02  0.11027088261E+02 -0.30127368770E+02  0.40659147190E+02  0.00000000000E+00 0. -1.
         11    1    3    3    0    0 -0.76258345512E+01 -0.44479117289E+01  0.62709236243E+00  0.88504528948E+01  0.51100000000E-03 0. -1.
        -11    1    3    3    0    0  0.27814423785E+01 -0.35525147568E+01  0.17440641701E+02  0.18014792977E+02  0.51100000000E-03 0.  1.
        -12    1    3    3    0    0 -0.20133822849E+02 -0.30266617753E+01  0.12059634707E+02  0.23663606937E+02  0.00000000000E+00 0.  1.
</event>
<event>
 7    1  0.6136531E-013  0.5052889E+02  0.7816164E-02  0.1300439E+00
        -11   -1    0    0    0    0  0.00000000000E+00  0.00000000000E+00  0.45593999997E+02  0.45594000000E+02  0.51100000000E-03 0.  1.
         11   -1    0    0    0    0 -0.00000000000E+00 -0.00000000000E+00 -0.45593999997E+02  0.45594000000E+02  0.51100000000E-03 0. -1.
    9900012    2    1    2    0    0 -0.31491120343E+02  0.24428957569E+02 -0.80435658118E+01  0.50528885654E+02  0.30000078435E+02 0.  0.
         12    1    1    2    0    0  0.31491120343E+02 -0.24428957569E+02  0.80435658118E+01  0.40659114346E+02  0.00000000000E+00 0. -1.
         11    1    3    3    0    0 -0.25072225505E+01  0.31060139335E+01 -0.69493295024E+01  0.80141542452E+01  0.51100000000E-03 0. -1.
        -11    1    3    3    0    0 -0.32634614058E+02  0.17626830159E+02 -0.23663666902E+01  0.37166152178E+02  0.51100000000E-03 0.  1.
        -12    1    3    3    0    0  0.36507162650E+01  0.36961134772E+01  0.12721303808E+01  0.53485792310E+01  0.00000000000E+00 0.  1.
</event>
<event>
 7    1  0.6136531E-013  0.5052886E+02  0.7816164E-02  0.1300439E+00
        -11   -1    0    0    0    0  0.00000000000E+00  0.00000000000E+00  0.45593999997E+02  0.45594000000E+02  0.51100000000E-03 0.  1.
         11   -1    0    0    0    0 -0.00000000000E+00 -0.00000000000E+00 -0.45593999997E+02  0.45594000000E+02  0.51100000000E-03 0. -1.
    9900012    2    1    2    0    0  0.12523605097E+02 -0.28527474039E+02  0.26124858521E+02  0.50528859669E+02  0.29999999451E+02 0.  0.
         12    1    1    2    0    0 -0.12523605097E+02  0.28527474039E+02 -0.26124858521E+02  0.40659140331E+02  0.00000000000E+00 0. -1.
         11    1    3    3    0    0  0.23494600877E+01 -0.61061854375E+01  0.24079624096E+02  0.24952630326E+02  0.51100000000E-03 0. -1.
        -11    1    3    3    0    0  0.54223401709E+01 -0.48063749289E+01  0.38119051517E+00  0.72559161625E+01  0.51100000000E-03 0.  1.
         12    1    3    3    0    0  0.47518048388E+01 -0.17614913672E+02  0.16640439098E+01  0.18320313181E+02  0.00000000000E+00 0. -1.
</event>
<event>
 7    1  0.6136531E-013  0.5052886E+02  0.7816164E-02  0.1300439E+00
        -11   -1    0    0    0    0  0.00000000000E+00  0.00000000000E+00  0.45593999997E+02  0.45594000000E+02  0.51100000000E-03 0.  1.
         11   -1    0    0    0    0 -0.00000000000E+00 -0.00000000000E+00 -0.45593999997E+02  0.45594000000E+02  0.51100000000E-03 0. -1.
    9900012    2    1    2    0    0 -0.17592181510E+02  0.78319410870E+01  0.35809793084E+02  0.50528862870E+02  0.30000009178E+02 0.  0.
         12    1    1    2    0    0  0.17592181510E+02 -0.78319410870E+01 -0.35809793084E+02  0.40659137130E+02  0.00000000000E+00 0. -1.
         11    1    3    3    0    0  0.11432313384E+01 -0.56580560533E+01  0.11830878995E+02  0.13163976385E+02  0.51100000000E-03 0. -1.
        -11    1    3    3    0    0 -0.88844593589E+01  0.99483846957E+00  0.43753383168E+00  0.89506847669E+01  0.51100000000E-03 0.  1.
        -12    1    3    3    0    0 -0.98509534895E+01  0.12495158671E+02  0.23541380257E+02  0.28414201718E+02  0.00000000000E+00 0.  1.
</event>
<event>
 7    1  0.6136531E-013  0.5052886E+02  0.7816164E-02  0.1300439E+00
        -11   -1    0    0    0    0  0.00000000000E+00  0.00000000000E+00  0.45593999997E+02  0.45594000000E+02  0.51100000000E-03 0. -1.
         11   -1    0    0    0    0 -0.00000000000E+00 -0.00000000000E+00 -0.45593999997E+02  0.45594000000E+02  0.51100000000E-03 0.  1.
    9900012    2    1    2    0    0  0.31533265467E+02  0.60744944234E+01 -0.24938312303E+02  0.50528859157E+02  0.29999997895E+02 0.  0.
         12    1    1    2    0    0 -0.31533265467E+02 -0.60744944234E+01  0.24938312303E+02  0.40659140843E+02  0.00000000000E+00 0. -1.
         11    1    3    3    0    0  0.26462504841E+02 -0.84611430397E+01 -0.13117566708E+02  0.30723373197E+02  0.51100000000E-03 0. -1.
        -11    1    3    3    0    0  0.41550395926E+01  0.77634662678E+01 -0.48895289174E+01  0.10071904279E+02  0.51100000000E-03 0.  1.
         12    1    3    3    0    0  0.91572103325E+00  0.67721711953E+01 -0.69312166777E+01  0.97335816810E+01  0.00000000000E+00 0. -1.
</event>
<event>
 7    1  0.6136531E-013  0.5052887E+02  0.7816164E-02  0.1300439E+00
        -11   -1    0    0    0    0  0.00000000000E+00  0.00000000000E+00  0.45593999997E+02  0.45594000000E+02  0.51100000000E-03 0. -1.
         11   -1    0    0    0    0 -0.00000000000E+00 -0.00000000000E+00 -0.45593999997E+02  0.45594000000E+02  0.51100000000E-03 0.  1.
    9900012    2    1    2    0    0 -0.45030746961E+01 -0.33555940508E+02 -0.22514136200E+02  0.50528866292E+02  0.30000019581E+02 0.  0.
         12    1    1    2    0    0  0.45030746961E+01  0.33555940508E+02  0.22514136200E+02  0.40659133708E+02  0.00000000000E+00 0. -1.
         11    1    3    3    0    0 -0.35226869368E+01  0.16306442054E+01 -0.21618843506E+01  0.44432046977E+01  0.51100000000E-03 0. -1.
        -11    1    3    3    0    0  0.59689055399E+01 -0.33695350632E+02 -0.17396720759E+02  0.38388154175E+02  0.51100000000E-03 0.  1.
        -12    1    3    3    0    0 -0.69492932991E+01 -0.14912340817E+01 -0.29555310897E+01  0.76975074190E+01  0.00000000000E+00 0.  1.
</event>
<event>
 7    1  0.6136531E-013  0.5052886E+02  0.7816164E-02  0.1300439E+00
        -11   -1    0    0    0    0  0.00000000000E+00  0.00000000000E+00  0.45593999997E+02  0.45594000000E+02  0.51100000000E-03 0.  1.
         11   -1    0    0    0    0 -0.00000000000E+00 -0.00000000000E+00 -0.45593999997E+02  0.45594000000E+02  0.51100000000E-03 0. -1.
    9900012    2    1    2    0    0 -0.30753483921E+02 -0.18798210589E+02  0.18815314016E+02  0.50528861591E+02  0.30000005292E+02 0.  0.
         12    1    1    2    0    0  0.30753483921E+02  0.18798210589E+02 -0.18815314016E+02  0.40659138409E+02  0.00000000000E+00 0. -1.
         11    1    3    3    0    0 -0.51385015092E+00  0.62168292287E+01  0.43618282031E+01  0.76117378548E+01  0.51100000000E-03 0. -1.
        -11    1    3    3    0    0 -0.21881103945E+02 -0.22971191700E+02  0.10242223483E+02  0.33337088957E+02  0.51100000000E-03 0.  1.
         12    1    3    3    0    0 -0.83585298250E+01 -0.20438481177E+01  0.42112623308E+01  0.95800347798E+01  0.00000000000E+00 0. -1.
</event>
<event>
 7    1  0.6136531E-013  0.5052886E+02  0.7816164E-02  0.1300439E+00
        -11   -1    0    0    0    0  0.00000000000E+00  0.00000000000E+00  0.45593999997E+02  0.45594000000E+02  0.51100000000E-03 0.  1.
         11   -1    0    0    0    0 -0.00000000000E+00 -0.00000000000E+00 -0.45593999997E+02  0.45594000000E+02  0.51100000000E-03 0. -1.
    9900012    2    1    2    0    0  0.31652316075E+02 -0.25221616049E+02  0.38944416154E+01  0.50528859521E+02  0.29999998999E+02 0.  0.
         12    1    1    2    0    0 -0.31652316075E+02  0.25221616049E+02 -0.38944416154E+01  0.40659140479E+02  0.00000000000E+00 0. -1.
         11    1    3    3    0    0 -0.35561058187E+01 -0.64655298040E+01  0.27779725453E+01  0.78845479239E+01  0.51100000000E-03 0. -1.
        -11    1    3    3    0    0  0.13181078415E+02 -0.12743766732E+02  0.60071719413E+01  0.19293276904E+02  0.51100000000E-03 0.  1.
         12    1    3    3    0    0  0.22027343478E+02 -0.60123195132E+01 -0.48907028712E+01  0.23351034693E+02  0.00000000000E+00 0. -1.
</event>
<event>
 7    1  0.6136531E-013  0.5052884E+02  0.7816164E-02  0.1300439E+00
        -11   -1    0    0    0    0  0.00000000000E+00  0.00000000000E+00  0.45593999997E+02  0.45594000000E+02  0.51100000000E-03 0.  1.
         11   -1    0    0    0    0 -0.00000000000E+00 -0.00000000000E+00 -0.45593999997E+02  0.45594000000E+02  0.51100000000E-03 0. -1.
    9900012    2    1    2    0    0  0.32606755898E+02  0.19620669328E+02  0.14317687121E+02  0.50528839168E+02  0.29999937134E+02 0.  0.
         12    1    1    2    0    0 -0.32606755898E+02 -0.19620669328E+02 -0.14317687121E+02  0.40659160832E+02  0.00000000000E+00 0. -1.
         11    1    3    3    0    0  0.15491213927E+01  0.22715957779E+01 -0.77412248525E+01  0.82150159431E+01  0.51100000000E-03 0. -1.
        -11    1    3    3    0    0  0.11218510171E+02  0.79252029541E+01  0.54493634341E+01  0.14776988002E+02  0.51100000000E-03 0.  1.
         12    1    3    3    0    0  0.19839124335E+02  0.94238705963E+01  0.16609548540E+02  0.27536835223E+02  0.00000000000E+00 0. -1.
</event>
<event>
 7    1  0.6136531E-013  0.5052886E+02  0.7816164E-02  0.1300439E+00
        -11   -1    0    0    0    0  0.00000000000E+00  0.00000000000E+00  0.45593999997E+02  0.45594000000E+02  0.51100000000E-03 0.  1.
         11   -1    0    0    0    0 -0.00000000000E+00 -0.00000000000E+00 -0.45593999997E+02  0.45594000000E+02  0.51100000000E-03 0. -1.
    9900012    2    1    2    0    0 -0.20875497632E+02 -0.18565579888E+02  0.29541467756E+02  0.50528862342E+02  0.30000007573E+02 0.  0.
         12    1    1    2    0    0  0.20875497632E+02  0.18565579888E+02 -0.29541467756E+02  0.40659137658E+02  0.00000000000E+00 0. -1.
         11    1    3    3    0    0 -0.23717546540E+01  0.71446725052E+01  0.42541047522E+01  0.86469053915E+01  0.51100000000E-03 0. -1.
        -11    1    3    3    0    0 -0.13436516069E+02 -0.13579001963E+02  0.20152271832E+02  0.27767666784E+02  0.51100000000E-03 0.  1.
        -12    1    3    3    0    0 -0.50672269092E+01 -0.12131250430E+02  0.51350911719E+01  0.14114290166E+02  0.00000000000E+00 0.  1.
</event>
<event>
 7    1  0.6136531E-013  0.5052877E+02  0.7816164E-02  0.1300439E+00
        -11   -1    0    0    0    0  0.00000000000E+00  0.00000000000E+00  0.45593999997E+02  0.45594000000E+02  0.51100000000E-03 0. -1.
         11   -1    0    0    0    0 -0.00000000000E+00 -0.00000000000E+00 -0.45593999997E+02  0.45594000000E+02  0.51100000000E-03 0.  1.
    9900012    2    1    2    0    0 -0.21188128208E+02  0.63328336013E+01 -0.34119370394E+02  0.50528769874E+02  0.29999726507E+02 0.  0.
         12    1    1    2    0    0  0.21188128208E+02 -0.63328336013E+01  0.34119370394E+02  0.40659230126E+02  0.00000000000E+00 0. -1.
         11    1    3    3    0    0 -0.25321233479E+02  0.11067981786E+01 -0.18095348195E+02  0.31142117681E+02  0.51100000000E-03 0.  1.
        -11    1    3    3    0    0  0.57589546152E+01  0.11010357569E+01 -0.58219403204E+01  0.82627372797E+01  0.51100000000E-03 0. -1.
        -12    1    3    3    0    0 -0.16258493437E+01  0.41249996658E+01 -0.10202081879E+02  0.11123914913E+02  0.00000000000E+00 0.  1.
</event>
<event>
 7    1  0.6136531E-013  0.5052886E+02  0.7816164E-02  0.1300439E+00
        -11   -1    0    0    0    0  0.00000000000E+00  0.00000000000E+00  0.45593999997E+02  0.45594000000E+02  0.51100000000E-03 0. -1.
         11   -1    0    0    0    0 -0.00000000000E+00 -0.00000000000E+00 -0.45593999997E+02  0.45594000000E+02  0.51100000000E-03 0.  1.
    9900012    2    1    2    0    0 -0.35403991773E+02  0.18086954296E+02 -0.85196810313E+01  0.50528861863E+02  0.30000006118E+02 0.  0.
         12    1    1    2    0    0  0.35403991773E+02 -0.18086954296E+02  0.85196810313E+01  0.40659138137E+02  0.00000000000E+00 0. -1.
         11    1    3    3    0    0 -0.14598144816E+02  0.14969561322E+00  0.59959068088E+01  0.15782241272E+02  0.51100000000E-03 0. -1.
        -11    1    3    3    0    0 -0.20700121074E+01  0.11012174848E+02 -0.26524838761E+01  0.11514713022E+02  0.51100000000E-03 0.  1.
        -12    1    3    3    0    0 -0.18735834850E+02  0.69250838352E+01 -0.11863103964E+02  0.23231907570E+02  0.00000000000E+00 0.  1.
</event>
<event>
 7    1  0.6136531E-013  0.5052892E+02  0.7816164E-02  0.1300439E+00
        -11   -1    0    0    0    0  0.00000000000E+00  0.00000000000E+00  0.45593999997E+02  0.45594000000E+02  0.51100000000E-03 0.  1.
         11   -1    0    0    0    0 -0.00000000000E+00 -0.00000000000E+00 -0.45593999997E+02  0.45594000000E+02  0.51100000000E-03 0. -1.
    9900012    2    1    2    0    0 -0.15882411458E+02 -0.36352485658E+02 -0.89110437415E+01  0.50528918508E+02  0.30000178297E+02 0.  0.
         12    1    1    2    0    0  0.15882411458E+02  0.36352485658E+02  0.89110437415E+01  0.40659081492E+02  0.00000000000E+00 0. -1.
         11    1    3    3    0    0 -0.58567272653E+01  0.40173589531E+01 -0.16637463162E+01  0.72944142523E+01  0.51100000000E-03 0. -1.
        -11    1    3    3    0    0 -0.18319525047E+01 -0.17664047068E+02  0.83493329547E+00  0.17778406078E+02  0.51100000000E-03 0.  1.
         12    1    3    3    0    0 -0.81937316876E+01 -0.22705797543E+02 -0.80822307208E+01  0.25456098178E+02  0.00000000000E+00 0. -1.
</event>
<event>
 7    1  0.6136531E-013  0.5052886E+02  0.7816164E-02  0.1300439E+00
        -11   -1    0    0    0    0  0.00000000000E+00  0.00000000000E+00  0.45593999997E+02  0.45594000000E+02  0.51100000000E-03 0. -1.
         11   -1    0    0    0    0 -0.00000000000E+00 -0.00000000000E+00 -0.45593999997E+02  0.45594000000E+02  0.51100000000E-03 0.  1.
    9900012    2    1    2    0    0 -0.10057370148E+02  0.35183157473E+02 -0.17724574519E+02  0.50528858274E+02  0.29999995208E+02 0.  0.
         12    1    1    2    0    0  0.10057370148E+02 -0.35183157473E+02  0.17724574519E+02  0.40659141726E+02  0.00000000000E+00 0. -1.
         11    1    3    3    0    0  0.54022054108E+00  0.94196957916E+01  0.66367607208E+01  0.11535558078E+02  0.51100000000E-03 0. -1.
        -11    1    3    3    0    0 -0.22621486452E+01  0.36039992773E+01 -0.11030699281E+02  0.11822963003E+02  0.51100000000E-03 0.  1.
         12    1    3    3    0    0 -0.83354420443E+01  0.22159462404E+02 -0.13330635959E+02  0.27170337193E+02  0.00000000000E+00 0. -1.
</event>
<event>
 7    1  0.6136531E-013  0.5052886E+02  0.7816164E-02  0.1300439E+00
        -11   -1    0    0    0    0  0.00000000000E+00  0.00000000000E+00  0.45593999997E+02  0.45594000000E+02  0.51100000000E-03 0.  1.
         11   -1    0    0    0    0 -0.00000000000E+00 -0.00000000000E+00 -0.45593999997E+02  0.45594000000E+02  0.51100000000E-03 0. -1.
    9900012    2    1    2    0    0  0.34649433319E+02 -0.20773968631E+02  0.45852330000E+01  0.50528863712E+02  0.30000011740E+02 0.  0.
         12    1    1    2    0    0 -0.34649433319E+02  0.20773968631E+02 -0.45852330000E+01  0.40659136288E+02  0.00000000000E+00 0. -1.
         11    1    3    3    0    0  0.10399351218E+02 -0.45708614241E+01 -0.11918086842E+02  0.16464509533E+02  0.51100000000E-03 0. -1.
        -11    1    3    3    0    0  0.20542579801E+02 -0.10756288640E+02  0.13394584753E+02  0.26778913928E+02  0.51100000000E-03 0.  1.
         12    1    3    3    0    0  0.37075022990E+01 -0.54468185667E+01  0.31087350893E+01  0.72854402510E+01  0.00000000000E+00 0. -1.
</event>
<event>
 7    1  0.6136531E-013  0.5052886E+02  0.7816164E-02  0.1300439E+00
        -11   -1    0    0    0    0  0.00000000000E+00  0.00000000000E+00  0.45593999997E+02  0.45594000000E+02  0.51100000000E-03 0.  1.
         11   -1    0    0    0    0 -0.00000000000E+00 -0.00000000000E+00 -0.45593999997E+02  0.45594000000E+02  0.51100000000E-03 0. -1.
    9900012    2    1    2    0    0 -0.16368573540E+02 -0.37067826762E+02  0.33483640703E+01  0.50528861759E+02  0.30000005802E+02 0.  0.
         12    1    1    2    0    0  0.16368573540E+02  0.37067826762E+02 -0.33483640703E+01  0.40659138241E+02  0.00000000000E+00 0. -1.
         11    1    3    3    0    0 -0.14871055074E+01 -0.22122514626E+02  0.13884560897E+02  0.26161004716E+02  0.51100000000E-03 0. -1.
        -11    1    3    3    0    0 -0.12414831326E+02 -0.14991860567E+02 -0.98032261720E+01  0.21794200232E+02  0.51100000000E-03 0.  1.
         12    1    3    3    0    0 -0.24666367063E+01  0.46548431779E-01 -0.73297065480E+00  0.25736568104E+01  0.00000000000E+00 0. -1.
</event>
<event>
 7    1  0.6136531E-013  0.5052885E+02  0.7816164E-02  0.1300439E+00
        -11   -1    0    0    0    0  0.00000000000E+00  0.00000000000E+00  0.45593999997E+02  0.45594000000E+02  0.51100000000E-03 0.  1.
         11   -1    0    0    0    0 -0.00000000000E+00 -0.00000000000E+00 -0.45593999997E+02  0.45594000000E+02  0.51100000000E-03 0. -1.
    9900012    2    1    2    0    0  0.17859003548E+01 -0.39365745259E+02  0.10015724947E+02  0.50528854828E+02  0.29999984737E+02 0.  0.
         12    1    1    2    0    0 -0.17859003548E+01  0.39365745259E+02 -0.10015724947E+02  0.40659145172E+02  0.00000000000E+00 0. -1.
         11    1    3    3    0    0 -0.15071320110E+01 -0.57631059543E+01 -0.54426396601E+01  0.80689010324E+01  0.51100000000E-03 0. -1.
        -11    1    3    3    0    0  0.61732109194E+00 -0.33151056359E+02  0.74213366312E+01  0.33977196187E+02  0.51100000000E-03 0.  1.
        -12    1    3    3    0    0  0.26757112738E+01 -0.45158294557E+00  0.80370279757E+01  0.84827576093E+01  0.00000000000E+00 0.  1.
</event>
<event>
 7    1  0.6136531E-013  0.5052886E+02  0.7816164E-02  0.1300439E+00
        -11   -1    0    0    0    0  0.00000000000E+00  0.00000000000E+00  0.45593999997E+02  0.45594000000E+02  0.51100000000E-03 0.  1.
         11   -1    0    0    0    0 -0.00000000000E+00 -0.00000000000E+00 -0.45593999997E+02  0.45594000000E+02  0.51100000000E-03 0. -1.
    9900012    2    1    2    0    0  0.10631870368E+02  0.36953637824E+02 -0.13212021194E+02  0.50528861789E+02  0.30000005895E+02 0.  0.
         12    1    1    2    0    0 -0.10631870368E+02 -0.36953637824E+02  0.13212021194E+02  0.40659138211E+02  0.00000000000E+00 0. -1.
         11    1    3    3    0    0  0.30108331512E+01  0.14251763626E+02 -0.81856739482E+01  0.16708774370E+02  0.51100000000E-03 0. -1.
        -11    1    3    3    0    0  0.50852917059E+01  0.17528306353E+01  0.75383921006E+01  0.92606675080E+01  0.51100000000E-03 0.  1.
        -12    1    3    3    0    0  0.25357455114E+01  0.20949043564E+02 -0.12564739347E+02  0.24559419911E+02  0.00000000000E+00 0.  1.
</event>
<event>
 7    1  0.6136531E-013  0.5052886E+02  0.7816164E-02  0.1300439E+00
        -11   -1    0    0    0    0  0.00000000000E+00  0.00000000000E+00  0.45593999997E+02  0.45594000000E+02  0.51100000000E-03 0.  1.
         11   -1    0    0    0    0 -0.00000000000E+00 -0.00000000000E+00 -0.45593999997E+02  0.45594000000E+02  0.51100000000E-03 0. -1.
    9900012    2    1    2    0    0 -0.60597421922E+01 -0.23013778234E+02  0.32966823954E+02  0.50528856555E+02  0.29999989985E+02 0.  0.
         12    1    1    2    0    0  0.60597421922E+01  0.23013778234E+02 -0.32966823954E+02  0.40659143445E+02  0.00000000000E+00 0. -1.
         11    1    3    3    0    0 -0.22817855791E+01 -0.20525368901E+02  0.55735589023E+01  0.21390695946E+02  0.51100000000E-03 0. -1.
        -11    1    3    3    0    0  0.12486658038E+01 -0.38296128251E+01  0.68515359955E+01  0.79478705600E+01  0.51100000000E-03 0.  1.
         12    1    3    3    0    0 -0.50266224168E+01  0.13412034928E+01  0.20541729056E+02  0.21190290049E+02  0.00000000000E+00 0. -1.
</event>
<event>
 7    1  0.6136531E-013  0.5052885E+02  0.7816164E-02  0.1300439E+00
        -11   -1    0    0    0    0  0.00000000000E+00  0.00000000000E+00  0.45593999997E+02  0.45594000000E+02  0.51100000000E-03 0.  1.
         11   -1    0    0    0    0 -0.00000000000E+00 -0.00000000000E+00 -0.45593999997E+02  0.45594000000E+02  0.51100000000E-03 0. -1.
    9900012    2    1    2    0    0  0.20720485416E+02  0.44300044695E+01  0.34701626035E+02  0.50528852137E+02  0.29999976557E+02 0.  0.
         12    1    1    2    0    0 -0.20720485416E+02 -0.44300044695E+01 -0.34701626035E+02  0.40659147863E+02  0.00000000000E+00 0. -1.
         11    1    3    3    0    0 -0.43007201005E+01  0.39120795067E+01  0.90820384021E+00  0.58843346205E+01  0.51100000000E-03 0. -1.
        -11    1    3    3    0    0  0.16469653884E+02 -0.12450024031E+01  0.31577734594E+02  0.35636397859E+02  0.51100000000E-03 0.  1.
        -12    1    3    3    0    0  0.85515516325E+01  0.17629273659E+01  0.22156876006E+01  0.90081196575E+01  0.00000000000E+00 0.  1.
</event>
<event>
 7    1  0.6136531E-013  0.5052887E+02  0.7816164E-02  0.1300439E+00
        -11   -1    0    0    0    0  0.00000000000E+00  0.00000000000E+00  0.45593999997E+02  0.45594000000E+02  0.51100000000E-03 0.  1.
         11   -1    0    0    0    0 -0.00000000000E+00 -0.00000000000E+00 -0.45593999997E+02  0.45594000000E+02  0.51100000000E-03 0. -1.
    9900012    2    1    2    0    0  0.47939515726E+01  0.33031137404E+02  0.23219106887E+02  0.50528868990E+02  0.30000027781E+02 0.  0.
         12    1    1    2    0    0 -0.47939515726E+01 -0.33031137404E+02 -0.23219106887E+02  0.40659131010E+02  0.00000000000E+00 0. -1.
         11    1    3    3    0    0  0.65601785839E+00 -0.34848555553E+01  0.95766926899E+01  0.10212131061E+02  0.51100000000E-03 0. -1.
        -11    1    3    3    0    0 -0.15860287809E+00  0.20984326796E+02  0.34975795848E+01  0.21274402205E+02  0.51100000000E-03 0.  1.
        -12    1    3    3    0    0  0.42965365923E+01  0.15531666164E+02  0.10144834612E+02  0.19042335724E+02  0.00000000000E+00 0.  1.
</event>
<event>
 7    1  0.6136531E-013  0.5052886E+02  0.7816164E-02  0.1300439E+00
        -11   -1    0    0    0    0  0.00000000000E+00  0.00000000000E+00  0.45593999997E+02  0.45594000000E+02  0.51100000000E-03 0. -1.
         11   -1    0    0    0    0 -0.00000000000E+00 -0.00000000000E+00 -0.45593999997E+02  0.45594000000E+02  0.51100000000E-03 0.  1.
    9900012    2    1    2    0    0  0.30465078559E+02  0.26204176466E+02 -0.61956051801E+01  0.50528863273E+02  0.30000010404E+02 0.  0.
         12    1    1    2    0    0 -0.30465078559E+02 -0.26204176466E+02  0.61956051801E+01  0.40659136727E+02  0.00000000000E+00 0. -1.
         11    1    3    3    0    0 -0.32497985358E+01 -0.73583905556E+00  0.13629990794E+01  0.36000578316E+01  0.51100000000E-03 0. -1.
        -11    1    3    3    0    0  0.11967105568E+02  0.16466887218E+02  0.30116739502E+01  0.20577661932E+02  0.51100000000E-03 0.  1.
        -12    1    3    3    0    0  0.21747771526E+02  0.10473128303E+02 -0.10570278210E+02  0.26351143509E+02  0.00000000000E+00 0.  1.
</event>
<event>
 7    1  0.6136531E-013  0.5052887E+02  0.7816164E-02  0.1300439E+00
        -11   -1    0    0    0    0  0.00000000000E+00  0.00000000000E+00  0.45593999997E+02  0.45594000000E+02  0.51100000000E-03 0. -1.
         11   -1    0    0    0    0 -0.00000000000E+00 -0.00000000000E+00 -0.45593999997E+02  0.45594000000E+02  0.51100000000E-03 0.  1.
    9900012    2    1    2    0    0 -0.24227894672E+01 -0.40552061060E+02 -0.16809738561E+01  0.50528865256E+02  0.30000016433E+02 0.  0.
         12    1    1    2    0    0  0.24227894672E+01  0.40552061060E+02  0.16809738561E+01  0.40659134744E+02  0.00000000000E+00 0. -1.
         11    1    3    3    0    0  0.51230243671E+00 -0.34721521774E+02  0.89900276886E+01  0.35870142544E+02  0.51100000000E-03 0.  1.
        -11    1    3    3    0    0 -0.27724701589E+00 -0.70849377222E+01 -0.79652359156E+01  0.10663873212E+02  0.51100000000E-03 0. -1.
        -12    1    3    3    0    0 -0.26578448880E+01  0.12543984360E+01 -0.27057656290E+01  0.39948494995E+01  0.00000000000E+00 0.  1.
</event>
<event>
 7    1  0.6136531E-013  0.5052887E+02  0.7816164E-02  0.1300439E+00
        -11   -1    0    0    0    0  0.00000000000E+00  0.00000000000E+00  0.45593999997E+02  0.45594000000E+02  0.51100000000E-03 0.  1.
         11   -1    0    0    0    0 -0.00000000000E+00 -0.00000000000E+00 -0.45593999997E+02  0.45594000000E+02  0.51100000000E-03 0. -1.
    9900012    2    1    2    0    0  0.18738319304E+02 -0.34307274485E+02  0.11182630727E+02  0.50528869133E+02  0.30000028215E+02 0.  0.
         12    1    1    2    0    0 -0.18738319304E+02  0.34307274485E+02 -0.11182630727E+02  0.40659130867E+02  0.00000000000E+00 0. -1.
         11    1    3    3    0    0  0.62813577159E+01 -0.21510142735E+02 -0.66734250274E+01  0.23381109835E+02  0.51100000000E-03 0. -1.
        -11    1    3    3    0    0  0.82144779348E+01 -0.13722430055E+02  0.12812461188E+02  0.20492483898E+02  0.51100000000E-03 0.  1.
         12    1    3    3    0    0  0.42424836533E+01  0.92529830509E+00  0.50435945664E+01  0.66552754001E+01  0.00000000000E+00 0. -1.
</event>
<event>
 7    1  0.6136531E-013  0.5052886E+02  0.7816164E-02  0.1300439E+00
        -11   -1    0    0    0    0  0.00000000000E+00  0.00000000000E+00  0.45593999997E+02  0.45594000000E+02  0.51100000000E-03 0.  1.
         11   -1    0    0    0    0 -0.00000000000E+00 -0.00000000000E+00 -0.45593999997E+02  0.45594000000E+02  0.51100000000E-03 0. -1.
    9900012    2    1    2    0    0  0.17254242637E+02 -0.36770998021E+02 -0.18303757632E+01  0.50528862530E+02  0.30000008145E+02 0.  0.
         12    1    1    2    0    0 -0.17254242637E+02  0.36770998021E+02  0.18303757632E+01  0.40659137470E+02  0.00000000000E+00 0. -1.
         11    1    3    3    0    0  0.41931382977E+01  0.34058075482E+01  0.11867673987E+01  0.55308544510E+01  0.51100000000E-03 0. -1.
        -11    1    3    3    0    0  0.45351841539E+01 -0.29317145085E+02  0.32350191559E+01  0.29841719797E+02  0.51100000000E-03 0.  1.
        -12    1    3    3    0    0  0.85259201851E+01 -0.10859660484E+02 -0.62521623179E+01  0.15156288281E+02  0.00000000000E+00 0.  1.
</event>
<event>
 7    1  0.6136531E-013  0.5052886E+02  0.7816164E-02  0.1300439E+00
        -11   -1    0    0    0    0  0.00000000000E+00  0.00000000000E+00  0.45593999997E+02  0.45594000000E+02  0.51100000000E-03 0.  1.
         11   -1    0    0    0    0 -0.00000000000E+00 -0.00000000000E+00 -0.45593999997E+02  0.45594000000E+02  0.51100000000E-03 0. -1.
    9900012    2    1    2    0    0 -0.26818608576E+02  0.30170029145E+02 -0.48679715245E+01  0.50528861159E+02  0.30000003978E+02 0.  0.
         12    1    1    2    0    0  0.26818608576E+02 -0.30170029145E+02  0.48679715245E+01  0.40659138841E+02  0.00000000000E+00 0. -1.
         11    1    3    3    0    0 -0.18449918163E+02  0.31633676029E+02 -0.10487209183E+02  0.38092919237E+02  0.51100000000E-03 0.  1.
        -11    1    3    3    0    0  0.34526492030E+00  0.13102613381E+01  0.23719509930E+01  0.27316925914E+01  0.51100000000E-03 0. -1.
         12    1    3    3    0    0 -0.87139553330E+01 -0.27739082221E+01  0.32472866657E+01  0.97042493300E+01  0.00000000000E+00 0. -1.
</event>
<event>
 7    1  0.6136531E-013  0.5052886E+02  0.7816164E-02  0.1300439E+00
        -11   -1    0    0    0    0  0.00000000000E+00  0.00000000000E+00  0.45593999997E+02  0.45594000000E+02  0.51100000000E-03 0.  1.
         11   -1    0    0    0    0 -0.00000000000E+00 -0.00000000000E+00 -0.45593999997E+02  0.45594000000E+02  0.51100000000E-03 0. -1.
    9900012    2    1    2    0    0  0.87078674868E+01  0.16615874961E+02  0.36072857055E+02  0.50528864827E+02  0.30000015129E+02 0.  0.
         12    1    1    2    0    0 -0.87078674868E+01 -0.16615874961E+02 -0.36072857055E+02  0.40659135173E+02  0.00000000000E+00 0. -1.
         11    1    3    3    0    0  0.51881257627E+01  0.83189341778E+01  0.67827001153E+01  0.11921675046E+02  0.51100000000E-03 0. -1.
        -11    1    3    3    0    0 -0.90430780263E+01  0.54095007296E+00  0.17527356495E+02  0.19730132111E+02  0.51100000000E-03 0.  1.
        -12    1    3    3    0    0  0.12562819750E+02  0.77559907102E+01  0.11762800445E+02  0.18877057670E+02  0.00000000000E+00 0.  1.
</event>
<event>
 7    1  0.6136531E-013  0.5052887E+02  0.7816164E-02  0.1300439E+00
        -11   -1    0    0    0    0  0.00000000000E+00  0.00000000000E+00  0.45593999997E+02  0.45594000000E+02  0.51100000000E-03 0.  1.
         11   -1    0    0    0    0 -0.00000000000E+00 -0.00000000000E+00 -0.45593999997E+02  0.45594000000E+02  0.51100000000E-03 0. -1.
    9900012    2    1    2    0    0 -0.14891045157E+02 -0.37752958323E+02 -0.24770118309E+01  0.50528872174E+02  0.30000037460E+02 0.  0.
         12    1    1    2    0    0  0.14891045157E+02  0.37752958323E+02  0.24770118309E+01  0.40659127826E+02  0.00000000000E+00 0. -1.
         11    1    3    3    0    0 -0.15827973312E+02 -0.10069690714E+02 -0.60254890389E+01  0.19703551169E+02  0.51100000000E-03 0. -1.
        -11    1    3    3    0    0 -0.44453296363E+01 -0.23040860543E+02  0.20002122762E+01  0.23550861121E+02  0.51100000000E-03 0.  1.
         12    1    3    3    0    0  0.53822577916E+01 -0.46424070654E+01  0.15482649318E+01  0.72744598834E+01  0.00000000000E+00 0. -1.
</event>
<event>
 7    1  0.6136531E-013  0.5052886E+02  0.7816164E-02  0.1300439E+00
        -11   -1    0    0    0    0  0.00000000000E+00  0.00000000000E+00  0.45593999997E+02  0.45594000000E+02  0.51100000000E-03 0.  1.
         11   -1    0    0    0    0 -0.00000000000E+00 -0.00000000000E+00 -0.45593999997E+02  0.45594000000E+02  0.51100000000E-03 0. -1.
    9900012    2    1    2    0    0  0.20801338741E+02  0.61877553650E+01  0.34382868877E+02  0.50528859796E+02  0.29999999837E+02 0.  0.
         12    1    1    2    0    0 -0.20801338741E+02 -0.61877553650E+01 -0.34382868877E+02  0.40659140204E+02  0.00000000000E+00 0. -1.
         11    1    3    3    0    0  0.19851621019E+02 -0.59651840177E+01  0.24312046954E+02  0.31949114304E+02  0.51100000000E-03 0. -1.
        -11    1    3    3    0    0  0.28420316783E+01  0.13369586885E+01  0.61767521500E+01  0.69294206092E+01  0.51100000000E-03 0.  1.
         12    1    3    3    0    0 -0.18923139563E+01  0.10815980694E+02  0.38940697729E+01  0.11650324883E+02  0.00000000000E+00 0. -1.
</event>
<event>
 7    1  0.6136531E-013  0.5052887E+02  0.7816164E-02  0.1300439E+00
        -11   -1    0    0    0    0  0.00000000000E+00  0.00000000000E+00  0.45593999997E+02  0.45594000000E+02  0.51100000000E-03 0.  1.
         11   -1    0    0    0    0 -0.00000000000E+00 -0.00000000000E+00 -0.45593999997E+02  0.45594000000E+02  0.51100000000E-03 0. -1.
    9900012    2    1    2    0    0 -0.11279261188E+02  0.55683575750E+01  0.38664405607E+02  0.50528873104E+02  0.30000040286E+02 0.  0.
         12    1    1    2    0    0  0.11279261188E+02 -0.55683575750E+01 -0.38664405607E+02  0.40659126896E+02  0.00000000000E+00 0. -1.
         11    1    3    3    0    0 -0.28815776423E+01  0.85951217523E+01 -0.12365024876E+01  0.91492374714E+01  0.51100000000E-03 0. -1.
        -11    1    3    3    0    0 -0.54222668071E+01 -0.21150976881E+01  0.12341028609E+02  0.13644618094E+02  0.51100000000E-03 0.  1.
         12    1    3    3    0    0 -0.29754167389E+01 -0.91166648918E+00  0.27559879486E+02  0.27735017538E+02  0.00000000000E+00 0. -1.
</event>
<event>
 7    1  0.6136531E-013  0.5052879E+02  0.7816164E-02  0.1300439E+00
        -11   -1    0    0    0    0  0.00000000000E+00  0.00000000000E+00  0.45593999997E+02  0.45594000000E+02  0.51100000000E-03 0.  1.
         11   -1    0    0    0    0 -0.00000000000E+00 -0.00000000000E+00 -0.45593999997E+02  0.45594000000E+02  0.51100000000E-03 0. -1.
    9900012    2    1    2    0    0  0.34172056224E+02 -0.17916933023E+02 -0.12822851070E+02  0.50528789173E+02  0.29999785169E+02 0.  0.
         12    1    1    2    0    0 -0.34172056224E+02  0.17916933023E+02  0.12822851070E+02  0.40659210827E+02  0.00000000000E+00 0. -1.
         11    1    3    3    0    0  0.33214956224E+01 -0.54778373757E+01 -0.76451932073E+01  0.99743678959E+01  0.51100000000E-03 0. -1.
        -11    1    3    3    0    0  0.32056829264E+02 -0.73761558428E+01 -0.89923722401E+01  0.34101477039E+02  0.51100000000E-03 0.  1.
        -12    1    3    3    0    0 -0.12062686626E+01 -0.50629398048E+01  0.38147143777E+01  0.64529442378E+01  0.00000000000E+00 0.  1.
</event>
<event>
 7    1  0.6136531E-013  0.5052886E+02  0.7816164E-02  0.1300439E+00
        -11   -1    0    0    0    0  0.00000000000E+00  0.00000000000E+00  0.45593999997E+02  0.45594000000E+02  0.51100000000E-03 0. -1.
         11   -1    0    0    0    0 -0.00000000000E+00 -0.00000000000E+00 -0.45593999997E+02  0.45594000000E+02  0.51100000000E-03 0.  1.
    9900012    2    1    2    0    0  0.87588221800E+01 -0.41044625839E+01 -0.39491793878E+02  0.50528863723E+02  0.30000011773E+02 0.  0.
         12    1    1    2    0    0 -0.87588221800E+01  0.41044625839E+01  0.39491793878E+02  0.40659136277E+02  0.00000000000E+00 0. -1.
         11    1    3    3    0    0  0.12957348691E+02 -0.17274165452E+01 -0.32331716534E+01  0.13465892181E+02  0.51100000000E-03 0. -1.
        -11    1    3    3    0    0 -0.10087863233E+01  0.18638881137E+01 -0.15150923972E+02  0.15298438685E+02  0.51100000000E-03 0.  1.
         12    1    3    3    0    0 -0.31897401878E+01 -0.42409341524E+01 -0.21107698253E+02  0.21764532857E+02  0.00000000000E+00 0. -1.
</event>
<event>
 7    1  0.6136531E-013  0.5052886E+02  0.7816164E-02  0.1300439E+00
        -11   -1    0    0    0    0  0.00000000000E+00  0.00000000000E+00  0.45593999997E+02  0.45594000000E+02  0.51100000000E-03 0.  1.
         11   -1    0    0    0    0 -0.00000000000E+00 -0.00000000000E+00 -0.45593999997E+02  0.45594000000E+02  0.51100000000E-03 0. -1.
    9900012    2    1    2    0    0 -0.26863237168E+02  0.18160662142E+02  0.24530036956E+02  0.50528857440E+02  0.29999992675E+02 0.  0.
         12    1    1    2    0    0  0.26863237168E+02 -0.18160662142E+02 -0.24530036956E+02  0.40659142560E+02  0.00000000000E+00 0. -1.
         11    1    3    3    0    0  0.18785296994E+01  0.33684587571E+00  0.54044548017E+01  0.57315330358E+01  0.51100000000E-03 0. -1.
        -11    1    3    3    0    0 -0.32247488832E+02  0.13733527632E+02  0.15642153481E+02  0.38382121919E+02  0.51100000000E-03 0.  1.
        -12    1    3    3    0    0  0.35057219645E+01  0.40902886341E+01  0.34834286738E+01  0.64152024854E+01  0.00000000000E+00 0.  1.
</event>
<event>
 7    1  0.6136531E-013  0.5052886E+02  0.7816164E-02  0.1300439E+00
        -11   -1    0    0    0    0  0.00000000000E+00  0.00000000000E+00  0.45593999997E+02  0.45594000000E+02  0.51100000000E-03 0. -1.
         11   -1    0    0    0    0 -0.00000000000E+00 -0.00000000000E+00 -0.45593999997E+02  0.45594000000E+02  0.51100000000E-03 0.  1.
    9900012    2    1    2    0    0  0.21047762444E+02  0.25861877364E+02 -0.23266295251E+02  0.50528862043E+02  0.30000006667E+02 0.  0.
         12    1    1    2    0    0 -0.21047762444E+02 -0.25861877364E+02  0.23266295251E+02  0.40659137957E+02  0.00000000000E+00 0. -1.
         11    1    3    3    0    0  0.10823924817E+02  0.23043613905E+02 -0.25331916196E+01  0.25584810929E+02  0.51100000000E-03 0. -1.
        -11    1    3    3    0    0  0.72973597571E+01  0.13776645891E+01 -0.20346479985E+02  0.21659378274E+02  0.51100000000E-03 0.  1.
        -12    1    3    3    0    0  0.29264778697E+01  0.14405988699E+01 -0.38662364558E+00  0.32846728405E+01  0.00000000000E+00 0.  1.
</event>
<event>
 7    1  0.6136531E-013  0.5052886E+02  0.7816164E-02  0.1300439E+00
        -11   -1    0    0    0    0  0.00000000000E+00  0.00000000000E+00  0.45593999997E+02  0.45594000000E+02  0.51100000000E-03 0.  1.
         11   -1    0    0    0    0 -0.00000000000E+00 -0.00000000000E+00 -0.45593999997E+02  0.45594000000E+02  0.51100000000E-03 0. -1.
    9900012    2    1    2    0    0 -0.38846154724E+02  0.12002080217E+02  0.30266563709E+00  0.50528864829E+02  0.30000015135E+02 0.  0.
         12    1    1    2    0    0  0.38846154724E+02 -0.12002080217E+02 -0.30266563709E+00  0.40659135171E+02  0.00000000000E+00 0. -1.
         11    1    3    3    0    0  0.48873191933E+00  0.47265489359E+01  0.12251407409E+01  0.49071472190E+01  0.51100000000E-03 0. -1.
        -11    1    3    3    0    0 -0.22818597158E+02 -0.47461795578E+01  0.59747884364E+01  0.24060604601E+02  0.51100000000E-03 0.  1.
        -12    1    3    3    0    0 -0.16516289485E+02  0.12021710839E+02 -0.68972635403E+01  0.21561113009E+02  0.00000000000E+00 0.  1.
</event>
<event>
 7    1  0.6136531E-013  0.5052886E+02  0.7816164E-02  0.1300439E+00
        -11   -1    0    0    0    0  0.00000000000E+00  0.00000000000E+00  0.45593999997E+02  0.45594000000E+02  0.51100000000E-03 0.  1.
         11   -1    0    0    0    0 -0.00000000000E+00 -0.00000000000E+00 -0.45593999997E+02  0.45594000000E+02  0.51100000000E-03 0. -1.
    9900012    2    1    2    0    0  0.33914093579E+02 -0.22425497896E+02  0.31109525656E+00  0.50528862289E+02  0.30000007413E+02 0.  0.
         12    1    1    2    0    0 -0.33914093579E+02  0.22425497896E+02 -0.31109525656E+00  0.40659137711E+02  0.00000000000E+00 0. -1.
         11    1    3    3    0    0  0.22127069790E+02 -0.36956453190E+01 -0.11747661573E+02  0.25323360056E+02  0.51100000000E-03 0. -1.
        -11    1    3    3    0    0  0.23247486648E+01 -0.38638016722E+01  0.23042537939E+01  0.50638923294E+01  0.51100000000E-03 0.  1.
         12    1    3    3    0    0  0.94622751239E+01 -0.14866050905E+02  0.97545030357E+01  0.20141609903E+02  0.00000000000E+00 0. -1.
</event>
<event>
 7    1  0.6136531E-013  0.5052886E+02  0.7816164E-02  0.1300439E+00
        -11   -1    0    0    0    0  0.00000000000E+00  0.00000000000E+00  0.45593999997E+02  0.45594000000E+02  0.51100000000E-03 0.  1.
         11   -1    0    0    0    0 -0.00000000000E+00 -0.00000000000E+00 -0.45593999997E+02  0.45594000000E+02  0.51100000000E-03 0. -1.
    9900012    2    1    2    0    0 -0.22459017750E+02  0.13535976878E+02  0.31073066317E+02  0.50528860822E+02  0.30000002955E+02 0.  0.
         12    1    1    2    0    0  0.22459017750E+02 -0.13535976878E+02 -0.31073066317E+02  0.40659139178E+02  0.00000000000E+00 0. -1.
         11    1    3    3    0    0 -0.11110851456E+01  0.16557392908E+02  0.87680625607E+01  0.18768609204E+02  0.51100000000E-03 0. -1.
        -11    1    3    3    0    0 -0.97430405899E+01 -0.46023003022E+01  0.12341162525E+02  0.16383293342E+02  0.51100000000E-03 0.  1.
         12    1    3    3    0    0 -0.11604892014E+02  0.15808842723E+01  0.99638412316E+01  0.15376958276E+02  0.00000000000E+00 0. -1.
</event>
<event>
 7    1  0.6136531E-013  0.5052884E+02  0.7816164E-02  0.1300439E+00
        -11   -1    0    0    0    0  0.00000000000E+00  0.00000000000E+00  0.45593999997E+02  0.45594000000E+02  0.51100000000E-03 0.  1.
         11   -1    0    0    0    0 -0.00000000000E+00 -0.00000000000E+00 -0.45593999997E+02  0.45594000000E+02  0.51100000000E-03 0. -1.
    9900012    2    1    2    0    0  0.36381745885E+02 -0.98013517413E+01 -0.15279695434E+02  0.50528843317E+02  0.29999949747E+02 0.  0.
         12    1    1    2    0    0 -0.36381745885E+02  0.98013517413E+01  0.15279695434E+02  0.40659156683E+02  0.00000000000E+00 0. -1.
         11    1    3    3    0    0  0.78751815547E+01  0.53880840776E+01 -0.90834093781E+01  0.13174151234E+02  0.51100000000E-03 0. -1.
        -11    1    3    3    0    0  0.30539983859E+02 -0.12525982438E+02 -0.37826231017E+01  0.33224976869E+02  0.51100000000E-03 0.  1.
        -12    1    3    3    0    0 -0.20334195288E+01 -0.26634533813E+01 -0.24136629537E+01  0.41297152140E+01  0.00000000000E+00 0.  1.
</event>
<event>
 7    1  0.6136531E-013  0.5052886E+02  0.7816164E-02  0.1300439E+00
        -11   -1    0    0    0    0  0.00000000000E+00  0.00000000000E+00  0.45593999997E+02  0.45594000000E+02  0.51100000000E-03 0.  1.
         11   -1    0    0    0    0 -0.00000000000E+00 -0.00000000000E+00 -0.45593999997E+02  0.45594000000E+02  0.51100000000E-03 0. -1.
    9900012    2    1    2    0    0 -0.18063596125E+02 -0.27735026648E+02  0.23614412223E+02  0.50528859911E+02  0.30000000186E+02 0.  0.
         12    1    1    2    0    0  0.18063596125E+02  0.27735026648E+02 -0.23614412223E+02  0.40659140089E+02  0.00000000000E+00 0. -1.
         11    1    3    3    0    0 -0.20369193868E+02 -0.24967186718E+02  0.13650854622E+02  0.34994432466E+02  0.51100000000E-03 0.  1.
        -11    1    3    3    0    0 -0.26505155300E+01  0.32029915558E+01  0.33759050761E+01  0.53554759663E+01  0.51100000000E-03 0. -1.
         12    1    3    3    0    0  0.49561132735E+01 -0.59708314860E+01  0.65876525253E+01  0.10178951479E+02  0.00000000000E+00 0. -1.
</event>
<event>
 7    1  0.6136531E-013  0.5052886E+02  0.7816164E-02  0.1300439E+00
        -11   -1    0    0    0    0  0.00000000000E+00  0.00000000000E+00  0.45593999997E+02  0.45594000000E+02  0.51100000000E-03 0. -1.
         11   -1    0    0    0    0 -0.00000000000E+00 -0.00000000000E+00 -0.45593999997E+02  0.45594000000E+02  0.51100000000E-03 0.  1.
    9900012    2    1    2    0    0  0.97561610035E+01  0.25799501536E+02 -0.29872541412E+02  0.50528859730E+02  0.29999999636E+02 0.  0.
         12    1    1    2    0    0 -0.97561610035E+01 -0.25799501536E+02  0.29872541412E+02  0.40659140270E+02  0.00000000000E+00 0. -1.
         11    1    3    3    0    0  0.20863176768E+01 -0.44956949889E+01  0.20458181788E+01  0.53618436348E+01  0.51100000000E-03 0. -1.
        -11    1    3    3    0    0  0.25854923020E+01  0.38614635011E+01 -0.75028516286E+01  0.88254435376E+01  0.51100000000E-03 0.  1.
         12    1    3    3    0    0  0.50843510247E+01  0.26433733024E+02 -0.24415507963E+02  0.36341572558E+02  0.00000000000E+00 0. -1.
</event>
<event>
 7    1  0.6136531E-013  0.5052886E+02  0.7816164E-02  0.1300439E+00
        -11   -1    0    0    0    0  0.00000000000E+00  0.00000000000E+00  0.45593999997E+02  0.45594000000E+02  0.51100000000E-03 0. -1.
         11   -1    0    0    0    0 -0.00000000000E+00 -0.00000000000E+00 -0.45593999997E+02  0.45594000000E+02  0.51100000000E-03 0.  1.
    9900012    2    1    2    0    0  0.28520533135E+02 -0.28891071311E+02  0.22475007396E+01  0.50528855009E+02  0.29999985286E+02 0.  0.
         12    1    1    2    0    0 -0.28520533135E+02  0.28891071311E+02 -0.22475007396E+01  0.40659144991E+02  0.00000000000E+00 0. -1.
         11    1    3    3    0    0  0.37453303331E+01 -0.14528739256E+02 -0.38509591216E+01  0.15490050035E+02  0.51100000000E-03 0.  1.
        -11    1    3    3    0    0  0.22610517146E+01  0.39534370851E+01  0.37877874081E+01  0.59236267060E+01  0.51100000000E-03 0. -1.
        -12    1    3    3    0    0  0.22514151087E+02 -0.18315769140E+02  0.23106724531E+01  0.29115178268E+02  0.00000000000E+00 0.  1.
</event>
<event>
 7    1  0.6136531E-013  0.5052885E+02  0.7816164E-02  0.1300439E+00
        -11   -1    0    0    0    0  0.00000000000E+00  0.00000000000E+00  0.45593999997E+02  0.45594000000E+02  0.51100000000E-03 0.  1.
         11   -1    0    0    0    0 -0.00000000000E+00 -0.00000000000E+00 -0.45593999997E+02  0.45594000000E+02  0.51100000000E-03 0. -1.
    9900012    2    1    2    0    0 -0.30829753074E+02 -0.10960213438E+02  0.24136409994E+02  0.50528852929E+02  0.29999978962E+02 0.  0.
         12    1    1    2    0    0  0.30829753074E+02  0.10960213438E+02 -0.24136409994E+02  0.40659147071E+02  0.00000000000E+00 0. -1.
         11    1    3    3    0    0 -0.16723892621E+02  0.80656686023E+00  0.23491838891E+02  0.28847974439E+02  0.51100000000E-03 0.  1.
        -11    1    3    3    0    0 -0.14674802917E+02 -0.72748704810E+01 -0.18969634739E+01  0.16488543048E+02  0.51100000000E-03 0. -1.
        -12    1    3    3    0    0  0.56894246391E+00 -0.44919098172E+01  0.25415345767E+01  0.51923354415E+01  0.00000000000E+00 0.  1.
</event>
<event>
 7    1  0.6136531E-013  0.5052887E+02  0.7816164E-02  0.1300439E+00
        -11   -1    0    0    0    0  0.00000000000E+00  0.00000000000E+00  0.45593999997E+02  0.45594000000E+02  0.51100000000E-03 0.  1.
         11   -1    0    0    0    0 -0.00000000000E+00 -0.00000000000E+00 -0.45593999997E+02  0.45594000000E+02  0.51100000000E-03 0. -1.
    9900012    2    1    2    0    0 -0.39128277416E+02 -0.89117545005E+01 -0.65362838742E+01  0.50528874718E+02  0.30000045193E+02 0.  0.
         12    1    1    2    0    0  0.39128277416E+02  0.89117545005E+01  0.65362838742E+01  0.40659125282E+02  0.00000000000E+00 0. -1.
         11    1    3    3    0    0 -0.25416801770E+02  0.35034263580E+01  0.55463018716E+01  0.26249748059E+02  0.51100000000E-03 0. -1.
        -11    1    3    3    0    0 -0.10006229269E+02 -0.23037936850E+01 -0.64552415989E+01  0.12128570975E+02  0.51100000000E-03 0.  1.
         12    1    3    3    0    0 -0.37052463764E+01 -0.10111387173E+02 -0.56273441470E+01  0.12150555684E+02  0.00000000000E+00 0. -1.
</event>
<event>
 7    1  0.6136531E-013  0.5052886E+02  0.7816164E-02  0.1300439E+00
        -11   -1    0    0    0    0  0.00000000000E+00  0.00000000000E+00  0.45593999997E+02  0.45594000000E+02  0.51100000000E-03 0.  1.
         11   -1    0    0    0    0 -0.00000000000E+00 -0.00000000000E+00 -0.45593999997E+02  0.45594000000E+02  0.51100000000E-03 0. -1.
    9900012    2    1    2    0    0 -0.43518545566E+01  0.13033663098E+02  0.38266830700E+02  0.50528863958E+02  0.30000012488E+02 0.  0.
         12    1    1    2    0    0  0.43518545566E+01 -0.13033663098E+02 -0.38266830700E+02  0.40659136042E+02  0.00000000000E+00 0. -1.
         11    1    3    3    0    0  0.83557335052E+00  0.53427964023E+01 -0.18842656962E+01  0.57266145055E+01  0.51100000000E-03 0. -1.
        -11    1    3    3    0    0  0.24101463918E+01 -0.46834623287E+01  0.88869767284E+01  0.10330633119E+02  0.51100000000E-03 0.  1.
         12    1    3    3    0    0 -0.75975742989E+01  0.12374329024E+02  0.31264119668E+02  0.34471616333E+02  0.00000000000E+00 0. -1.
</event>
<event>
 7    1  0.6136531E-013  0.5052885E+02  0.7816164E-02  0.1300439E+00
        -11   -1    0    0    0    0  0.00000000000E+00  0.00000000000E+00  0.45593999997E+02  0.45594000000E+02  0.51100000000E-03 0.  1.
         11   -1    0    0    0    0 -0.00000000000E+00 -0.00000000000E+00 -0.45593999997E+02  0.45594000000E+02  0.51100000000E-03 0. -1.
    9900012    2    1    2    0    0 -0.20383860863E+02  0.12624287085E+02  0.32837357144E+02  0.50528850572E+02  0.29999971798E+02 0.  0.
         12    1    1    2    0    0  0.20383860863E+02 -0.12624287085E+02 -0.32837357144E+02  0.40659149428E+02  0.00000000000E+00 0. -1.
         11    1    3    3    0    0  0.58363131799E+00  0.76354725701E+01  0.10030595697E+02  0.12619584667E+02  0.51100000000E-03 0. -1.
        -11    1    3    3    0    0 -0.17891649005E+02  0.90759320357E+01  0.25242390466E+02  0.32243788908E+02  0.51100000000E-03 0.  1.
        -12    1    3    3    0    0 -0.30758431752E+01 -0.40871175210E+01 -0.24356290198E+01  0.56654769959E+01  0.00000000000E+00 0.  1.
</event>
<event>
 7    1  0.6136531E-013  0.5052887E+02  0.7816164E-02  0.1300439E+00
        -11   -1    0    0    0    0  0.00000000000E+00  0.00000000000E+00  0.45593999997E+02  0.45594000000E+02  0.51100000000E-03 0.  1.
         11   -1    0    0    0    0 -0.00000000000E+00 -0.00000000000E+00 -0.45593999997E+02  0.45594000000E+02  0.51100000000E-03 0. -1.
    9900012    2    1    2    0    0 -0.34832419442E+02 -0.19798706221E+02  0.69194372522E+01  0.50528870348E+02  0.30000031909E+02 0.  0.
         12    1    1    2    0    0  0.34832419442E+02  0.19798706221E+02 -0.69194372522E+01  0.40659129652E+02  0.00000000000E+00 0. -1.
         11    1    3    3    0    0 -0.27546068222E+02 -0.19396401804E+02  0.15649617980E+02  0.37147231668E+02  0.51100000000E-03 0. -1.
        -11    1    3    3    0    0 -0.60123722102E+01 -0.29602684656E+01 -0.79924423777E+01  0.10430289756E+02  0.51100000000E-03 0.  1.
         12    1    3    3    0    0 -0.12739790100E+01  0.25579640491E+01 -0.73773834996E+00  0.29513489234E+01  0.00000000000E+00 0. -1.
</event>
<event>
 7    1  0.6136531E-013  0.5052885E+02  0.7816164E-02  0.1300439E+00
        -11   -1    0    0    0    0  0.00000000000E+00  0.00000000000E+00  0.45593999997E+02  0.45594000000E+02  0.51100000000E-03 0. -1.
         11   -1    0    0    0    0 -0.00000000000E+00 -0.00000000000E+00 -0.45593999997E+02  0.45594000000E+02  0.51100000000E-03 0.  1.
    9900012    2    1    2    0    0  0.21006940113E+01  0.14291674222E+02 -0.38006594676E+02  0.50528854580E+02  0.29999983982E+02 0.  0.
         12    1    1    2    0    0 -0.21006940113E+01 -0.14291674222E+02  0.38006594676E+02  0.40659145420E+02  0.00000000000E+00 0. -1.
         11    1    3    3    0    0 -0.71825093744E+01  0.13069631191E+02 -0.12173657702E+02  0.19251016661E+02  0.51100000000E-03 0. -1.
        -11    1    3    3    0    0  0.81534003028E+01 -0.24021288999E+01 -0.45151718735E+01  0.96247045180E+01  0.51100000000E-03 0.  1.
        -12    1    3    3    0    0  0.11298030828E+01  0.36241719306E+01 -0.21317765101E+02  0.21653133401E+02  0.00000000000E+00 0.  1.
</event>
<event>
 7    1  0.6136531E-013  0.5052888E+02  0.7816164E-02  0.1300439E+00
        -11   -1    0    0    0    0  0.00000000000E+00  0.00000000000E+00  0.45593999997E+02  0.45594000000E+02  0.51100000000E-03 0.  1.
         11   -1    0    0    0    0 -0.00000000000E+00 -0.00000000000E+00 -0.45593999997E+02  0.45594000000E+02  0.51100000000E-03 0. -1.
    9900012    2    1    2    0    0 -0.28690199971E+00  0.40083596225E+02 -0.68108072106E+01  0.50528879327E+02  0.30000059202E+02 0.  0.
         12    1    1    2    0    0  0.28690199971E+00 -0.40083596225E+02  0.68108072106E+01  0.40659120673E+02  0.00000000000E+00 0. -1.
         11    1    3    3    0    0  0.78906324512E+00  0.10393865749E+01 -0.36665057923E+01  0.38918132333E+01  0.51100000000E-03 0. -1.
        -11    1    3    3    0    0 -0.12814955820E+02  0.25967632066E+02 -0.18373864335E+01  0.29015805985E+02  0.51100000000E-03 0.  1.
        -12    1    3    3    0    0  0.11738990576E+02  0.13076577584E+02 -0.13069149848E+01  0.17621260109E+02  0.00000000000E+00 0.  1.
</event>
<event>
 7    1  0.6136531E-013  0.5052887E+02  0.7816164E-02  0.1300439E+00
        -11   -1    0    0    0    0  0.00000000000E+00  0.00000000000E+00  0.45593999997E+02  0.45594000000E+02  0.51100000000E-03 0.  1.
         11   -1    0    0    0    0 -0.00000000000E+00 -0.00000000000E+00 -0.45593999997E+02  0.45594000000E+02  0.51100000000E-03 0. -1.
    9900012    2    1    2    0    0  0.26487162730E+02  0.14441457824E+02  0.27258747817E+02  0.50528870323E+02  0.30000031833E+02 0.  0.
         12    1    1    2    0    0 -0.26487162730E+02 -0.14441457824E+02 -0.27258747817E+02  0.40659129677E+02  0.00000000000E+00 0. -1.
         11    1    3    3    0    0 -0.33997066729E+01  0.52892857731E+01  0.78238550650E+01  0.10037293350E+02  0.51100000000E-03 0. -1.
        -11    1    3    3    0    0  0.30323172900E+02  0.46864883449E+01  0.14891123495E+02  0.34105769995E+02  0.51100000000E-03 0.  1.
        -12    1    3    3    0    0 -0.43630349733E+00  0.44656837056E+01  0.45437692573E+01  0.63858069783E+01  0.00000000000E+00 0.  1.
</event>
<event>
 7    1  0.6136531E-013  0.5052884E+02  0.7816164E-02  0.1300439E+00
        -11   -1    0    0    0    0  0.00000000000E+00  0.00000000000E+00  0.45593999997E+02  0.45594000000E+02  0.51100000000E-03 0.  1.
         11   -1    0    0    0    0 -0.00000000000E+00 -0.00000000000E+00 -0.45593999997E+02  0.45594000000E+02  0.51100000000E-03 0. -1.
    9900012    2    1    2    0    0 -0.31682268907E+02 -0.19095409544E+02  0.16875027249E+02  0.50528838998E+02  0.29999936618E+02 0.  0.
         12    1    1    2    0    0  0.31682268907E+02  0.19095409544E+02 -0.16875027249E+02  0.40659161002E+02  0.00000000000E+00 0. -1.
         11    1    3    3    0    0 -0.13555394124E+01 -0.18668236330E-01 -0.29442056676E+01  0.32413242473E+01  0.51100000000E-03 0. -1.
        -11    1    3    3    0    0 -0.15616383908E+02 -0.22141672661E+02  0.17036587793E+02  0.32005787578E+02  0.51100000000E-03 0.  1.
        -12    1    3    3    0    0 -0.14710345587E+02  0.30649313537E+01  0.27826451228E+01  0.15281727173E+02  0.00000000000E+00 0.  1.
</event>
<event>
 7    1  0.6136531E-013  0.5052887E+02  0.7816164E-02  0.1300439E+00
        -11   -1    0    0    0    0  0.00000000000E+00  0.00000000000E+00  0.45593999997E+02  0.45594000000E+02  0.51100000000E-03 0.  1.
         11   -1    0    0    0    0 -0.00000000000E+00 -0.00000000000E+00 -0.45593999997E+02  0.45594000000E+02  0.51100000000E-03 0. -1.
    9900012    2    1    2    0    0  0.46588563001E+01 -0.34537983522E+02  0.20942489030E+02  0.50528867021E+02  0.30000021798E+02 0.  0.
         12    1    1    2    0    0 -0.46588563001E+01  0.34537983522E+02 -0.20942489030E+02  0.40659132979E+02  0.00000000000E+00 0. -1.
         11    1    3    3    0    0 -0.44572652374E+01  0.55125882690E-01  0.52180128882E+01  0.68627917805E+01  0.51100000000E-03 0. -1.
        -11    1    3    3    0    0  0.10951317598E+02 -0.23626221762E+02  0.18813071161E+02  0.32125711800E+02  0.51100000000E-03 0.  1.
        -12    1    3    3    0    0 -0.18351960602E+01 -0.10966887643E+02 -0.30885950200E+01  0.11540363441E+02  0.00000000000E+00 0.  1.
</event>
<event>
 7    1  0.6136531E-013  0.5052886E+02  0.7816164E-02  0.1300439E+00
        -11   -1    0    0    0    0  0.00000000000E+00  0.00000000000E+00  0.45593999997E+02  0.45594000000E+02  0.51100000000E-03 0. -1.
         11   -1    0    0    0    0 -0.00000000000E+00 -0.00000000000E+00 -0.45593999997E+02  0.45594000000E+02  0.51100000000E-03 0.  1.
    9900012    2    1    2    0    0 -0.52536554250E+01 -0.35120314896E+02 -0.19802230239E+02  0.50528859131E+02  0.29999997816E+02 0.  0.
         12    1    1    2    0    0  0.52536554250E+01  0.35120314896E+02  0.19802230239E+02  0.40659140869E+02  0.00000000000E+00 0. -1.
         11    1    3    3    0    0  0.97148629599E+01 -0.14600618172E+02  0.98494339979E+00  0.17564928895E+02  0.51100000000E-03 0. -1.
        -11    1    3    3    0    0 -0.52933391894E+01 -0.49190127529E+01 -0.59132143562E+01  0.93371425244E+01  0.51100000000E-03 0.  1.
         12    1    3    3    0    0 -0.96751791955E+01 -0.15600683972E+02 -0.14873959282E+02  0.23626787712E+02  0.00000000000E+00 0. -1.
</event>
<event>
 7    1  0.6136531E-013  0.5052887E+02  0.7816164E-02  0.1300439E+00
        -11   -1    0    0    0    0  0.00000000000E+00  0.00000000000E+00  0.45593999997E+02  0.45594000000E+02  0.51100000000E-03 0.  1.
         11   -1    0    0    0    0 -0.00000000000E+00 -0.00000000000E+00 -0.45593999997E+02  0.45594000000E+02  0.51100000000E-03 0. -1.
    9900012    2    1    2    0    0 -0.70069135810E+01  0.39087154368E+02 -0.87328382348E+01  0.50528868945E+02  0.30000027646E+02 0.  0.
         12    1    1    2    0    0  0.70069135810E+01 -0.39087154368E+02  0.87328382348E+01  0.40659131055E+02  0.00000000000E+00 0. -1.
         11    1    3    3    0    0  0.37240481206E+01  0.23419546797E+01  0.43673925045E+01  0.61989840842E+01  0.51100000000E-03 0. -1.
        -11    1    3    3    0    0  0.25219368643E+00  0.27921845006E+02 -0.11316831228E+02  0.30129117137E+02  0.51100000000E-03 0.  1.
        -12    1    3    3    0    0 -0.10983155388E+02  0.88233546820E+01 -0.17833995116E+01  0.14200767724E+02  0.00000000000E+00 0.  1.
</event>
<event>
 7    1  0.6136531E-013  0.5052886E+02  0.7816164E-02  0.1300439E+00
        -11   -1    0    0    0    0  0.00000000000E+00  0.00000000000E+00  0.45593999997E+02  0.45594000000E+02  0.51100000000E-03 0.  1.
         11   -1    0    0    0    0 -0.00000000000E+00 -0.00000000000E+00 -0.45593999997E+02  0.45594000000E+02  0.51100000000E-03 0. -1.
    9900012    2    1    2    0    0  0.33244177348E+02 -0.14251164302E+02  0.18571341790E+02  0.50528858993E+02  0.29999997395E+02 0.  0.
         12    1    1    2    0    0 -0.33244177348E+02  0.14251164302E+02 -0.18571341790E+02  0.40659141007E+02  0.00000000000E+00 0. -1.
         11    1    3    3    0    0  0.24154107079E+02 -0.11654329070E+02  0.13455380383E+02  0.30004858546E+02  0.51100000000E-03 0.  1.
        -11    1    3    3    0    0  0.71315197630E+00  0.66168064907E+01  0.45439072354E+01  0.80583997854E+01  0.51100000000E-03 0. -1.
         12    1    3    3    0    0  0.83769182931E+01 -0.92136417230E+01  0.57205417230E+00  0.12465600662E+02  0.00000000000E+00 0. -1.
</event>
<event>
 7    1  0.6136531E-013  0.5052884E+02  0.7816164E-02  0.1300439E+00
        -11   -1    0    0    0    0  0.00000000000E+00  0.00000000000E+00  0.45593999997E+02  0.45594000000E+02  0.51100000000E-03 0.  1.
         11   -1    0    0    0    0 -0.00000000000E+00 -0.00000000000E+00 -0.45593999997E+02  0.45594000000E+02  0.51100000000E-03 0. -1.
    9900012    2    1    2    0    0  0.24995362479E+02 -0.19808901687E+02  0.25219173713E+02  0.50528838003E+02  0.29999933595E+02 0.  0.
         12    1    1    2    0    0 -0.24995362479E+02  0.19808901687E+02 -0.25219173713E+02  0.40659161997E+02  0.00000000000E+00 0. -1.
         11    1    3    3    0    0  0.10334359052E+02 -0.17246175604E+02  0.21400747178E+02  0.29363608941E+02  0.51100000000E-03 0.  1.
        -11    1    3    3    0    0  0.12231442841E+01  0.36361968876E+01 -0.30011013157E+01  0.48707924523E+01  0.51100000000E-03 0. -1.
        -12    1    3    3    0    0  0.13437859143E+02 -0.61989229705E+01  0.68195278505E+01  0.16294436610E+02  0.00000000000E+00 0.  1.
</event>
<event>
 7    1  0.6136531E-013  0.5052886E+02  0.7816164E-02  0.1300439E+00
        -11   -1    0    0    0    0  0.00000000000E+00  0.00000000000E+00  0.45593999997E+02  0.45594000000E+02  0.51100000000E-03 0.  1.
         11   -1    0    0    0    0 -0.00000000000E+00 -0.00000000000E+00 -0.45593999997E+02  0.45594000000E+02  0.51100000000E-03 0. -1.
    9900012    2    1    2    0    0  0.20912883470E+02 -0.31805311146E+02  0.14291216541E+02  0.50528863483E+02  0.30000011042E+02 0.  0.
         12    1    1    2    0    0 -0.20912883470E+02  0.31805311146E+02 -0.14291216541E+02  0.40659136517E+02  0.00000000000E+00 0. -1.
         11    1    3    3    0    0  0.19787227583E+02 -0.16220222277E+02  0.98859728905E+01  0.27429226136E+02  0.51100000000E-03 0.  1.
        -11    1    3    3    0    0 -0.67626058437E+01 -0.10285073427E+02 -0.66721106889E+00  0.12327235865E+02  0.51100000000E-03 0. -1.
         12    1    3    3    0    0  0.78882617304E+01 -0.53000154416E+01  0.50724547194E+01  0.10772401482E+02  0.00000000000E+00 0. -1.
</event>
<event>
 7    1  0.6136531E-013  0.5052890E+02  0.7816164E-02  0.1300439E+00
        -11   -1    0    0    0    0  0.00000000000E+00  0.00000000000E+00  0.45593999997E+02  0.45594000000E+02  0.51100000000E-03 0.  1.
         11   -1    0    0    0    0 -0.00000000000E+00 -0.00000000000E+00 -0.45593999997E+02  0.45594000000E+02  0.51100000000E-03 0. -1.
    9900012    2    1    2    0    0  0.40166237510E+01 -0.27466057585E+01  0.40366888559E+02  0.50528895220E+02  0.30000107512E+02 0.  0.
         12    1    1    2    0    0 -0.40166237510E+01  0.27466057585E+01 -0.40366888559E+02  0.40659104780E+02  0.00000000000E+00 0. -1.
         11    1    3    3    0    0 -0.17647361767E+01  0.35666112914E+01  0.14025557879E+02  0.14579138656E+02  0.51100000000E-03 0. -1.
        -11    1    3    3    0    0  0.94054936046E+01 -0.29271649092E+01  0.74640402923E+00  0.98787005009E+01  0.51100000000E-03 0.  1.
        -12    1    3    3    0    0 -0.36241336768E+01 -0.33860521407E+01  0.25594926651E+02  0.26071056064E+02  0.00000000000E+00 0.  1.
</event>
<event>
 7    1  0.6136531E-013  0.5052884E+02  0.7816164E-02  0.1300439E+00
        -11   -1    0    0    0    0  0.00000000000E+00  0.00000000000E+00  0.45593999997E+02  0.45594000000E+02  0.51100000000E-03 0.  1.
         11   -1    0    0    0    0 -0.00000000000E+00 -0.00000000000E+00 -0.45593999997E+02  0.45594000000E+02  0.51100000000E-03 0. -1.
    9900012    2    1    2    0    0  0.28068384582E+02  0.22989919662E+02 -0.18352011317E+02  0.50528844346E+02  0.29999952875E+02 0.  0.
         12    1    1    2    0    0 -0.28068384582E+02 -0.22989919662E+02  0.18352011317E+02  0.40659155654E+02  0.00000000000E+00 0. -1.
         11    1    3    3    0    0  0.95520588423E+00 -0.18892606485E+01 -0.12331568775E+01  0.24499796376E+01  0.51100000000E-03 0. -1.
        -11    1    3    3    0    0  0.27437726448E+02  0.91445043465E+01 -0.85474144745E+01  0.30158068354E+02  0.51100000000E-03 0.  1.
        -12    1    3    3    0    0 -0.32454774963E+00  0.15734675964E+02 -0.85714399647E+01  0.17920796355E+02  0.00000000000E+00 0.  1.
</event>
<event>
 7    1  0.6136531E-013  0.5052890E+02  0.7816164E-02  0.1300439E+00
        -11   -1    0    0    0    0  0.00000000000E+00  0.00000000000E+00  0.45593999997E+02  0.45594000000E+02  0.51100000000E-03 0. -1.
         11   -1    0    0    0    0 -0.00000000000E+00 -0.00000000000E+00 -0.45593999997E+02  0.45594000000E+02  0.51100000000E-03 0.  1.
    9900012    2    1    2    0    0  0.27101084290E+02 -0.92100275118E+01 -0.28876792382E+02  0.50528898746E+02  0.30000118229E+02 0.  0.
         12    1    1    2    0    0 -0.27101084290E+02  0.92100275118E+01  0.28876792382E+02  0.40659101254E+02  0.00000000000E+00 0. -1.
         11    1    3    3    0    0  0.14520502588E+01 -0.96514976876E+01 -0.68565529866E+01  0.11927790101E+02  0.51100000000E-03 0.  1.
        -11    1    3    3    0    0  0.94242012710E+01  0.91663241975E+01 -0.10943472236E+02  0.17105456841E+02  0.51100000000E-03 0. -1.
        -12    1    3    3    0    0  0.16224832760E+02 -0.87248540217E+01 -0.11076767159E+02  0.21495651805E+02  0.00000000000E+00 0.  1.
</event>
<event>
 7    1  0.6136531E-013  0.5052888E+02  0.7816164E-02  0.1300439E+00
        -11   -1    0    0    0    0  0.00000000000E+00  0.00000000000E+00  0.45593999997E+02  0.45594000000E+02  0.51100000000E-03 0. -1.
         11   -1    0    0    0    0 -0.00000000000E+00 -0.00000000000E+00 -0.45593999997E+02  0.45594000000E+02  0.51100000000E-03 0.  1.
    9900012    2    1    2    0    0 -0.96616127217E+01 -0.22223548427E+02 -0.32648599204E+02  0.50528881772E+02  0.30000066635E+02 0.  0.
         12    1    1    2    0    0  0.96616127217E+01  0.22223548427E+02  0.32648599204E+02  0.40659118228E+02  0.00000000000E+00 0. -1.
         11    1    3    3    0    0  0.15302792616E+01 -0.17828504561E+02 -0.70311991975E+01  0.19225896388E+02  0.51100000000E-03 0. -1.
        -11    1    3    3    0    0 -0.13651382980E+02 -0.39281615328E+01 -0.16141897810E+02  0.21502362090E+02  0.51100000000E-03 0.  1.
        -12    1    3    3    0    0  0.24594909965E+01 -0.46688233298E+00 -0.94755021968E+01  0.98006232942E+01  0.00000000000E+00 0.  1.
</event>
<event>
 7    1  0.6136531E-013  0.5052886E+02  0.7816164E-02  0.1300439E+00
        -11   -1    0    0    0    0  0.00000000000E+00  0.00000000000E+00  0.45593999997E+02  0.45594000000E+02  0.51100000000E-03 0.  1.
         11   -1    0    0    0    0 -0.00000000000E+00 -0.00000000000E+00 -0.45593999997E+02  0.45594000000E+02  0.51100000000E-03 0. -1.
    9900012    2    1    2    0    0  0.34277669022E+02 -0.14671519153E+02  0.16215851015E+02  0.50528857216E+02  0.29999991993E+02 0.  0.
         12    1    1    2    0    0 -0.34277669022E+02  0.14671519153E+02 -0.16215851015E+02  0.40659142784E+02  0.00000000000E+00 0. -1.
         11    1    3    3    0    0  0.45757362459E+01 -0.14698968353E+02  0.21022977909E+00  0.15396143337E+02  0.51100000000E-03 0. -1.
        -11    1    3    3    0    0  0.10522018921E+02  0.47127778326E+01  0.57137597733E+01  0.12867408755E+02  0.51100000000E-03 0.  1.
         12    1    3    3    0    0  0.19179913855E+02 -0.46853286326E+01  0.10291861463E+02  0.22265305124E+02  0.00000000000E+00 0. -1.
</event>
<event>
 7    1  0.6136531E-013  0.5052886E+02  0.7816164E-02  0.1300439E+00
        -11   -1    0    0    0    0  0.00000000000E+00  0.00000000000E+00  0.45593999997E+02  0.45594000000E+02  0.51100000000E-03 0.  1.
         11   -1    0    0    0    0 -0.00000000000E+00 -0.00000000000E+00 -0.45593999997E+02  0.45594000000E+02  0.51100000000E-03 0. -1.
    9900012    2    1    2    0    0 -0.40738754890E+01 -0.14426963590E+02  0.37794604955E+02  0.50528857072E+02  0.29999991556E+02 0.  0.
         12    1    1    2    0    0  0.40738754890E+01  0.14426963590E+02 -0.37794604955E+02  0.40659142928E+02  0.00000000000E+00 0. -1.
         11    1    3    3    0    0 -0.34672676357E+01 -0.28618349678E+01 -0.53061052584E+00  0.45269848720E+01  0.51100000000E-03 0. -1.
        -11    1    3    3    0    0  0.10853732143E+02 -0.49019091271E+01  0.21539739417E+02  0.24612854141E+02  0.51100000000E-03 0.  1.
        -12    1    3    3    0    0 -0.11460339996E+02 -0.66632194948E+01  0.16785476064E+02  0.21389018059E+02  0.00000000000E+00 0.  1.
</event>
<event>
 7    1  0.6136531E-013  0.5052886E+02  0.7816164E-02  0.1300439E+00
        -11   -1    0    0    0    0  0.00000000000E+00  0.00000000000E+00  0.45593999997E+02  0.45594000000E+02  0.51100000000E-03 0.  1.
         11   -1    0    0    0    0 -0.00000000000E+00 -0.00000000000E+00 -0.45593999997E+02  0.45594000000E+02  0.51100000000E-03 0. -1.
    9900012    2    1    2    0    0 -0.10092621807E+02 -0.35040748314E+02 -0.17984730136E+02  0.50528861108E+02  0.30000003825E+02 0.  0.
         12    1    1    2    0    0  0.10092621807E+02  0.35040748314E+02  0.17984730136E+02  0.40659138892E+02  0.00000000000E+00 0. -1.
         11    1    3    3    0    0 -0.53598446569E+01 -0.41301730697E+01 -0.15150320398E+02  0.16592723488E+02  0.51100000000E-03 0. -1.
        -11    1    3    3    0    0 -0.91166763996E+01 -0.21182806162E+02 -0.80817867549E+00  0.23075489561E+02  0.51100000000E-03 0.  1.
        -12    1    3    3    0    0  0.43838992493E+01 -0.97277690825E+01 -0.20262310628E+01  0.10860648059E+02  0.00000000000E+00 0.  1.
</event>
<event>
 7    1  0.6136531E-013  0.5052885E+02  0.7816164E-02  0.1300439E+00
        -11   -1    0    0    0    0  0.00000000000E+00  0.00000000000E+00  0.45593999997E+02  0.45594000000E+02  0.51100000000E-03 0. -1.
         11   -1    0    0    0    0 -0.00000000000E+00 -0.00000000000E+00 -0.45593999997E+02  0.45594000000E+02  0.51100000000E-03 0.  1.
    9900012    2    1    2    0    0  0.13415098136E+02 -0.16584272530E+02 -0.34614503732E+02  0.50528845779E+02  0.29999957229E+02 0.  0.
         12    1    1    2    0    0 -0.13415098136E+02  0.16584272530E+02  0.34614503732E+02  0.40659154221E+02  0.00000000000E+00 0. -1.
         11    1    3    3    0    0 -0.23951847632E+01 -0.37468705932E+01  0.43999880461E+01  0.62558647971E+01  0.51100000000E-03 0. -1.
        -11    1    3    3    0    0  0.18249154717E+01 -0.37576257033E+01 -0.94126337201E+01  0.10297948398E+02  0.51100000000E-03 0.  1.
         12    1    3    3    0    0  0.13985367428E+02 -0.90797762333E+01 -0.29601858058E+02  0.33975032583E+02  0.00000000000E+00 0. -1.
</event>
<event>
 7    1  0.6136531E-013  0.5052885E+02  0.7816164E-02  0.1300439E+00
        -11   -1    0    0    0    0  0.00000000000E+00  0.00000000000E+00  0.45593999997E+02  0.45594000000E+02  0.51100000000E-03 0.  1.
         11   -1    0    0    0    0 -0.00000000000E+00 -0.00000000000E+00 -0.45593999997E+02  0.45594000000E+02  0.51100000000E-03 0. -1.
    9900012    2    1    2    0    0 -0.19364297419E+02 -0.10773068569E+02  0.34090046575E+02  0.50528852242E+02  0.29999976875E+02 0.  0.
         12    1    1    2    0    0  0.19364297419E+02  0.10773068569E+02 -0.34090046575E+02  0.40659147758E+02  0.00000000000E+00 0. -1.
         11    1    3    3    0    0  0.36108444275E+01 -0.40229768144E+01 -0.23609233663E+01  0.58988557646E+01  0.51100000000E-03 0. -1.
        -11    1    3    3    0    0 -0.11905971425E+02  0.12344090643E+01  0.19310349091E+02  0.22719276036E+02  0.51100000000E-03 0.  1.
         12    1    3    3    0    0 -0.11069170421E+02 -0.79845008193E+01  0.17140620850E+02  0.21910720442E+02  0.00000000000E+00 0. -1.
</event>
<event>
 7    1  0.6136531E-013  0.5052896E+02  0.7816164E-02  0.1300438E+00
        -11   -1    0    0    0    0  0.00000000000E+00  0.00000000000E+00  0.45593999997E+02  0.45594000000E+02  0.51100000000E-03 0.  1.
         11   -1    0    0    0    0 -0.00000000000E+00 -0.00000000000E+00 -0.45593999997E+02  0.45594000000E+02  0.51100000000E-03 0. -1.
    9900012    2    1    2    0    0 -0.34636169923E+01  0.32621432241E+02  0.24020890687E+02  0.50528958281E+02  0.30000299188E+02 0.  0.
         12    1    1    2    0    0  0.34636169923E+01 -0.32621432241E+02 -0.24020890687E+02  0.40659041719E+02  0.00000000000E+00 0. -1.
         11    1    3    3    0    0 -0.58053806930E+01  0.12513901936E+02  0.77319235438E+01  0.15814007354E+02  0.51100000000E-03 0. -1.
        -11    1    3    3    0    0  0.11402452618E+02  0.99962401697E+01  0.14570753894E+02  0.21029684081E+02  0.51100000000E-03 0.  1.
        -12    1    3    3    0    0 -0.90606889173E+01  0.10111290136E+02  0.17182132491E+01  0.13685266846E+02  0.00000000000E+00 0.  1.
</event>
<event>
 7    1  0.6136531E-013  0.5052886E+02  0.7816164E-02  0.1300439E+00
        -11   -1    0    0    0    0  0.00000000000E+00  0.00000000000E+00  0.45593999997E+02  0.45594000000E+02  0.51100000000E-03 0. -1.
         11   -1    0    0    0    0 -0.00000000000E+00 -0.00000000000E+00 -0.45593999997E+02  0.45594000000E+02  0.51100000000E-03 0.  1.
    9900012    2    1    2    0    0 -0.28636850875E+02  0.21054535227E+02 -0.19743433139E+02  0.50528857931E+02  0.29999994168E+02 0.  0.
         12    1    1    2    0    0  0.28636850875E+02 -0.21054535227E+02  0.19743433139E+02  0.40659142069E+02  0.00000000000E+00 0. -1.
         11    1    3    3    0    0 -0.13575258305E+00  0.13621899435E+01  0.91655077348E+00  0.16474391605E+01  0.51100000000E-03 0.  1.
        -11    1    3    3    0    0 -0.10040947551E+02  0.14907195053E+02  0.32841363297E+01  0.18271032915E+02  0.51100000000E-03 0. -1.
        -12    1    3    3    0    0 -0.18460150741E+02  0.47851502301E+01 -0.23944120242E+02  0.30610385856E+02  0.00000000000E+00 0.  1.
</event>
<event>
 7    1  0.6136531E-013  0.5052887E+02  0.7816164E-02  0.1300439E+00
        -11   -1    0    0    0    0  0.00000000000E+00  0.00000000000E+00  0.45593999997E+02  0.45594000000E+02  0.51100000000E-03 0.  1.
         11   -1    0    0    0    0 -0.00000000000E+00 -0.00000000000E+00 -0.45593999997E+02  0.45594000000E+02  0.51100000000E-03 0. -1.
    9900012    2    1    2    0    0 -0.18596338577E+02  0.16516529563E+02  0.32164353611E+02  0.50528865719E+02  0.30000017838E+02 0.  0.
         12    1    1    2    0    0  0.18596338577E+02 -0.16516529563E+02 -0.32164353611E+02  0.40659134281E+02  0.00000000000E+00 0. -1.
         11    1    3    3    0    0  0.26103468895E+01  0.11846319922E+01  0.10102421277E+01  0.30393836971E+01  0.51100000000E-03 0. -1.
        -11    1    3    3    0    0 -0.16635318088E+02  0.20614381192E+00  0.58080362255E+01  0.17621282252E+02  0.51100000000E-03 0.  1.
        -12    1    3    3    0    0 -0.45713673789E+01  0.15125753759E+02  0.25346075258E+02  0.29868199769E+02  0.00000000000E+00 0.  1.
</event>
<event>
 7    1  0.6136531E-013  0.5052886E+02  0.7816164E-02  0.1300439E+00
        -11   -1    0    0    0    0  0.00000000000E+00  0.00000000000E+00  0.45593999997E+02  0.45594000000E+02  0.51100000000E-03 0.  1.
         11   -1    0    0    0    0 -0.00000000000E+00 -0.00000000000E+00 -0.45593999997E+02  0.45594000000E+02  0.51100000000E-03 0. -1.
    9900012    2    1    2    0    0 -0.90944788118E+00  0.39467581769E+02  0.97287464953E+01  0.50528860628E+02  0.30000002364E+02 0.  0.
         12    1    1    2    0    0  0.90944788118E+00 -0.39467581769E+02 -0.97287464953E+01  0.40659139372E+02  0.00000000000E+00 0. -1.
         11    1    3    3    0    0 -0.22453405597E+01  0.54574079979E+01 -0.55318396524E+01  0.80886405833E+01  0.51100000000E-03 0. -1.
        -11    1    3    3    0    0  0.10732781192E+02  0.20553756120E+02  0.87457356867E+01  0.24781795249E+02  0.51100000000E-03 0.  1.
        -12    1    3    3    0    0 -0.93968885140E+01  0.13456417651E+02  0.65148504610E+01  0.17658424796E+02  0.00000000000E+00 0.  1.
</event>
<event>
 7    1  0.6136531E-013  0.5052887E+02  0.7816164E-02  0.1300439E+00
        -11   -1    0    0    0    0  0.00000000000E+00  0.00000000000E+00  0.45593999997E+02  0.45594000000E+02  0.51100000000E-03 0.  1.
         11   -1    0    0    0    0 -0.00000000000E+00 -0.00000000000E+00 -0.45593999997E+02  0.45594000000E+02  0.51100000000E-03 0. -1.
    9900012    2    1    2    0    0  0.38918221429E+02  0.11148383311E+01  0.11717244461E+02  0.50528872593E+02  0.30000038734E+02 0.  0.
         12    1    1    2    0    0 -0.38918221429E+02 -0.11148383311E+01 -0.11717244461E+02  0.40659127407E+02  0.00000000000E+00 0. -1.
         11    1    3    3    0    0  0.19579721141E+02 -0.38320841673E+01  0.40658109947E+00  0.19955341578E+02  0.51100000000E-03 0. -1.
        -11    1    3    3    0    0  0.16284383135E+02  0.18645136438E+01  0.16869905601E+02  0.23521293767E+02  0.51100000000E-03 0.  1.
        -12    1    3    3    0    0  0.30541171532E+01  0.30824088546E+01 -0.55592422395E+01  0.70522372485E+01  0.00000000000E+00 0.  1.
</event>
<event>
 7    1  0.6136531E-013  0.5052886E+02  0.7816164E-02  0.1300439E+00
        -11   -1    0    0    0    0  0.00000000000E+00  0.00000000000E+00  0.45593999997E+02  0.45594000000E+02  0.51100000000E-03 0. -1.
         11   -1    0    0    0    0 -0.00000000000E+00 -0.00000000000E+00 -0.45593999997E+02  0.45594000000E+02  0.51100000000E-03 0.  1.
    9900012    2    1    2    0    0  0.29185208497E+02  0.17848015823E+02 -0.21973573292E+02  0.50528856047E+02  0.29999988439E+02 0.  0.
         12    1    1    2    0    0 -0.29185208497E+02 -0.17848015823E+02  0.21973573292E+02  0.40659143953E+02  0.00000000000E+00 0. -1.
         11    1    3    3    0    0  0.45175873795E+01  0.73266523588E+01  0.31232302767E+01  0.91565822304E+01  0.51100000000E-03 0. -1.
        -11    1    3    3    0    0  0.18648157253E+02 -0.19612337622E+01 -0.11727212431E+02  0.22116232013E+02  0.51100000000E-03 0.  1.
        -12    1    3    3    0    0  0.60194638643E+01  0.12482597227E+02 -0.13369591138E+02  0.19256041803E+02  0.00000000000E+00 0.  1.
</event>
<event>
 7    1  0.6136531E-013  0.5052886E+02  0.7816164E-02  0.1300439E+00
        -11   -1    0    0    0    0  0.00000000000E+00  0.00000000000E+00  0.45593999997E+02  0.45594000000E+02  0.51100000000E-03 0.  1.
         11   -1    0    0    0    0 -0.00000000000E+00 -0.00000000000E+00 -0.45593999997E+02  0.45594000000E+02  0.51100000000E-03 0. -1.
    9900012    2    1    2    0    0 -0.36809888907E+02 -0.54071498849E+01  0.16400005876E+02  0.50528863463E+02  0.30000010982E+02 0.  0.
         12    1    1    2    0    0  0.36809888907E+02  0.54071498849E+01 -0.16400005876E+02  0.40659136537E+02  0.00000000000E+00 0. -1.
         11    1    3    3    0    0  0.22439400649E+01  0.28102813561E+01 -0.11874526308E+01  0.37872143228E+01  0.51100000000E-03 0. -1.
        -11    1    3    3    0    0 -0.21404843326E+02 -0.81615852069E+01  0.16597505028E+01  0.22968098809E+02  0.51100000000E-03 0.  1.
         12    1    3    3    0    0 -0.17648985646E+02 -0.55846034041E-01  0.15927708004E+02  0.23773550331E+02  0.00000000000E+00 0. -1.
</event>
<event>
 7    1  0.6136531E-013  0.5052886E+02  0.7816164E-02  0.1300439E+00
        -11   -1    0    0    0    0  0.00000000000E+00  0.00000000000E+00  0.45593999997E+02  0.45594000000E+02  0.51100000000E-03 0.  1.
         11   -1    0    0    0    0 -0.00000000000E+00 -0.00000000000E+00 -0.45593999997E+02  0.45594000000E+02  0.51100000000E-03 0. -1.
    9900012    2    1    2    0    0 -0.31121076300E+02 -0.92597786844E+01  0.24472446788E+02  0.50528861505E+02  0.30000005032E+02 0.  0.
         12    1    1    2    0    0  0.31121076300E+02  0.92597786844E+01 -0.24472446788E+02  0.40659138495E+02  0.00000000000E+00 0. -1.
         11    1    3    3    0    0 -0.24751672101E+02 -0.15106653328E+02  0.55789618957E+01  0.29529325469E+02  0.51100000000E-03 0. -1.
        -11    1    3    3    0    0 -0.44169308790E+01  0.25320004703E+01  0.83926724531E+01  0.98161731820E+01  0.51100000000E-03 0.  1.
         12    1    3    3    0    0 -0.19524733194E+01  0.33148741728E+01  0.10500812439E+02  0.11183362854E+02  0.00000000000E+00 0. -1.
</event>
<event>
 7    1  0.6136531E-013  0.5052885E+02  0.7816164E-02  0.1300439E+00
        -11   -1    0    0    0    0  0.00000000000E+00  0.00000000000E+00  0.45593999997E+02  0.45594000000E+02  0.51100000000E-03 0.  1.
         11   -1    0    0    0    0 -0.00000000000E+00 -0.00000000000E+00 -0.45593999997E+02  0.45594000000E+02  0.51100000000E-03 0. -1.
    9900012    2    1    2    0    0  0.10733475525E+02  0.77733461078E+01  0.38438705047E+02  0.50528850326E+02  0.29999971051E+02 0.  0.
         12    1    1    2    0    0 -0.10733475525E+02 -0.77733461078E+01 -0.38438705047E+02  0.40659149674E+02  0.00000000000E+00 0. -1.
         11    1    3    3    0    0  0.37925558170E+01  0.20016281544E+01 -0.43440530091E+01  0.61041618344E+01  0.51100000000E-03 0. -1.
        -11    1    3    3    0    0  0.66522391029E+01  0.53650706277E+00  0.25934956816E+02  0.26779882566E+02  0.51100000000E-03 0.  1.
         12    1    3    3    0    0  0.28868060514E+00  0.52352108906E+01  0.16847801240E+02  0.17644805926E+02  0.00000000000E+00 0. -1.
</event>
<event>
 7    1  0.6136531E-013  0.5052886E+02  0.7816164E-02  0.1300439E+00
        -11   -1    0    0    0    0  0.00000000000E+00  0.00000000000E+00  0.45593999997E+02  0.45594000000E+02  0.51100000000E-03 0.  1.
         11   -1    0    0    0    0 -0.00000000000E+00 -0.00000000000E+00 -0.45593999997E+02  0.45594000000E+02  0.51100000000E-03 0. -1.
    9900012    2    1    2    0    0 -0.24725440612E+02  0.20849982521E+02  0.24639334487E+02  0.50528856028E+02  0.29999988382E+02 0.  0.
         12    1    1    2    0    0  0.24725440612E+02 -0.20849982521E+02 -0.24639334487E+02  0.40659143972E+02  0.00000000000E+00 0. -1.
         11    1    3    3    0    0 -0.16978724818E+02  0.10958186818E+02  0.35123120814E+01  0.20510857886E+02  0.51100000000E-03 0. -1.
        -11    1    3    3    0    0  0.51568148119E+01  0.97631029866E+00  0.79871682615E+01  0.95572369387E+01  0.51100000000E-03 0.  1.
        -12    1    3    3    0    0 -0.12903530606E+02  0.89154854047E+01  0.13139854144E+02  0.20460761203E+02  0.00000000000E+00 0.  1.
</event>
<event>
 7    1  0.6136531E-013  0.5052886E+02  0.7816164E-02  0.1300439E+00
        -11   -1    0    0    0    0  0.00000000000E+00  0.00000000000E+00  0.45593999997E+02  0.45594000000E+02  0.51100000000E-03 0. -1.
         11   -1    0    0    0    0 -0.00000000000E+00 -0.00000000000E+00 -0.45593999997E+02  0.45594000000E+02  0.51100000000E-03 0.  1.
    9900012    2    1    2    0    0  0.23798504755E+02  0.30286454588E+02 -0.13020281108E+02  0.50528857360E+02  0.29999992431E+02 0.  0.
         12    1    1    2    0    0 -0.23798504755E+02 -0.30286454588E+02  0.13020281108E+02  0.40659142640E+02  0.00000000000E+00 0. -1.
         11    1    3    3    0    0  0.74870580247E+01  0.28001681985E+01  0.45176087252E+01  0.91818172853E+01  0.51100000000E-03 0. -1.
        -11    1    3    3    0    0 -0.97025548180E+00  0.14154989578E+02 -0.12586255743E+02  0.18966258448E+02  0.51100000000E-03 0.  1.
        -12    1    3    3    0    0  0.17281702212E+02  0.13331296812E+02 -0.49516340900E+01  0.22380781626E+02  0.00000000000E+00 0.  1.
</event>
<event>
 7    1  0.6136531E-013  0.5052886E+02  0.7816164E-02  0.1300439E+00
        -11   -1    0    0    0    0  0.00000000000E+00  0.00000000000E+00  0.45593999997E+02  0.45594000000E+02  0.51100000000E-03 0.  1.
         11   -1    0    0    0    0 -0.00000000000E+00 -0.00000000000E+00 -0.45593999997E+02  0.45594000000E+02  0.51100000000E-03 0. -1.
    9900012    2    1    2    0    0 -0.32228729783E+01 -0.16446407699E+02  0.37044490933E+02  0.50528861484E+02  0.30000004966E+02 0.  0.
         12    1    1    2    0    0  0.32228729783E+01  0.16446407699E+02 -0.37044490933E+02  0.40659138516E+02  0.00000000000E+00 0. -1.
         11    1    3    3    0    0 -0.40487363838E+01 -0.68543320255E+01  0.30476879700E+01  0.85242322848E+01  0.51100000000E-03 0. -1.
        -11    1    3    3    0    0  0.28345744302E+01 -0.15640807979E+02  0.31258015146E+02  0.35067551918E+02  0.51100000000E-03 0.  1.
        -12    1    3    3    0    0 -0.20087110247E+01  0.60487323058E+01  0.27387878172E+01  0.69370772805E+01  0.00000000000E+00 0.  1.
</event>
<event>
 7    1  0.6136531E-013  0.5052885E+02  0.7816164E-02  0.1300439E+00
        -11   -1    0    0    0    0  0.00000000000E+00  0.00000000000E+00  0.45593999997E+02  0.45594000000E+02  0.51100000000E-03 0. -1.
         11   -1    0    0    0    0 -0.00000000000E+00 -0.00000000000E+00 -0.45593999997E+02  0.45594000000E+02  0.51100000000E-03 0.  1.
    9900012    2    1    2    0    0  0.83259632173E+01 -0.27983533187E+02 -0.28297814211E+02  0.50528854876E+02  0.29999984880E+02 0.  0.
         12    1    1    2    0    0 -0.83259632173E+01  0.27983533187E+02  0.28297814211E+02  0.40659145124E+02  0.00000000000E+00 0. -1.
         11    1    3    3    0    0 -0.62324736626E+01 -0.11993038231E+02 -0.20923521831E+02  0.24909244469E+02  0.51100000000E-03 0. -1.
        -11    1    3    3    0    0 -0.72308313786E+00 -0.36912254814E+01 -0.43844979355E+01  0.57768345299E+01  0.51100000000E-03 0.  1.
         12    1    3    3    0    0  0.15281520018E+02 -0.12299269475E+02 -0.29897944448E+01  0.19842775877E+02  0.00000000000E+00 0. -1.
</event>
<event>
 7    1  0.6136531E-013  0.5052888E+02  0.7816164E-02  0.1300439E+00
        -11   -1    0    0    0    0  0.00000000000E+00  0.00000000000E+00  0.45593999997E+02  0.45594000000E+02  0.51100000000E-03 0.  1.
         11   -1    0    0    0    0 -0.00000000000E+00 -0.00000000000E+00 -0.45593999997E+02  0.45594000000E+02  0.51100000000E-03 0. -1.
    9900012    2    1    2    0    0  0.64367547286E+01 -0.23627229545E+01  0.40076797970E+02  0.50528880399E+02  0.30000062460E+02 0.  0.
         12    1    1    2    0    0 -0.64367547286E+01  0.23627229545E+01 -0.40076797970E+02  0.40659119601E+02  0.00000000000E+00 0. -1.
         11    1    3    3    0    0  0.14972671931E+02 -0.52970881695E+01  0.29204197235E+02  0.33243423172E+02  0.51100000000E-03 0. -1.
        -11    1    3    3    0    0 -0.10175245150E+02  0.38830297637E+01  0.10875767912E+02  0.15391421700E+02  0.51100000000E-03 0.  1.
         12    1    3    3    0    0  0.16393279475E+01 -0.94866454874E+00 -0.31671767506E-02  0.18940355267E+01  0.00000000000E+00 0. -1.
</event>
<event>
 7    1  0.6136531E-013  0.5052886E+02  0.7816164E-02  0.1300439E+00
        -11   -1    0    0    0    0  0.00000000000E+00  0.00000000000E+00  0.45593999997E+02  0.45594000000E+02  0.51100000000E-03 0. -1.
         11   -1    0    0    0    0 -0.00000000000E+00 -0.00000000000E+00 -0.45593999997E+02  0.45594000000E+02  0.51100000000E-03 0.  1.
    9900012    2    1    2    0    0  0.11649321923E+02 -0.38890531087E+02  0.22328506386E+01  0.50528859189E+02  0.29999997991E+02 0.  0.
         12    1    1    2    0    0 -0.11649321923E+02  0.38890531087E+02 -0.22328506386E+01  0.40659140811E+02  0.00000000000E+00 0. -1.
         11    1    3    3    0    0 -0.28804233187E+01 -0.71993392782E+01  0.11472970374E+02  0.13847612574E+02  0.51100000000E-03 0. -1.
        -11    1    3    3    0    0  0.56435112309E+01 -0.12508609686E+02 -0.70483861087E+01  0.15427063307E+02  0.51100000000E-03 0.  1.
         12    1    3    3    0    0  0.88862340108E+01 -0.19182582123E+02 -0.21917336265E+01  0.21254183308E+02  0.00000000000E+00 0. -1.
</event>
<event>
 7    1  0.6136531E-013  0.5052885E+02  0.7816164E-02  0.1300439E+00
        -11   -1    0    0    0    0  0.00000000000E+00  0.00000000000E+00  0.45593999997E+02  0.45594000000E+02  0.51100000000E-03 0. -1.
         11   -1    0    0    0    0 -0.00000000000E+00 -0.00000000000E+00 -0.45593999997E+02  0.45594000000E+02  0.51100000000E-03 0.  1.
    9900012    2    1    2    0    0 -0.21408355495E+02  0.29092044421E+02 -0.18668194579E+02  0.50528853151E+02  0.29999979639E+02 0.  0.
         12    1    1    2    0    0  0.21408355495E+02 -0.29092044421E+02  0.18668194579E+02  0.40659146849E+02  0.00000000000E+00 0. -1.
         11    1    3    3    0    0 -0.21128972681E+02  0.29559307781E+02 -0.15463646597E+02  0.39488106176E+02  0.51100000000E-03 0. -1.
        -11    1    3    3    0    0  0.47153036487E-01  0.13746583366E+01 -0.68267977294E+01  0.69639842368E+01  0.51100000000E-03 0.  1.
         12    1    3    3    0    0 -0.32653585109E+00 -0.18419216961E+01  0.36222497472E+01  0.40767627387E+01  0.00000000000E+00 0. -1.
</event>
<event>
 7    1  0.6136531E-013  0.5052884E+02  0.7816164E-02  0.1300439E+00
        -11   -1    0    0    0    0  0.00000000000E+00  0.00000000000E+00  0.45593999997E+02  0.45594000000E+02  0.51100000000E-03 0.  1.
         11   -1    0    0    0    0 -0.00000000000E+00 -0.00000000000E+00 -0.45593999997E+02  0.45594000000E+02  0.51100000000E-03 0. -1.
    9900012    2    1    2    0    0  0.23974926095E+01  0.33430583446E+02  0.23017714267E+02  0.50528842969E+02  0.29999948690E+02 0.  0.
         12    1    1    2    0    0 -0.23974926095E+01 -0.33430583446E+02 -0.23017714267E+02  0.40659157031E+02  0.00000000000E+00 0. -1.
         11    1    3    3    0    0 -0.24230924302E+01 -0.54500604341E+00  0.29490306653E+01  0.38555402525E+01  0.51100000000E-03 0. -1.
        -11    1    3    3    0    0  0.11197696547E+02  0.28835221115E+02  0.77655548856E+01  0.31892980853E+02  0.51100000000E-03 0.  1.
        -12    1    3    3    0    0 -0.63771115073E+01  0.51403683741E+01  0.12303128716E+02  0.14780321864E+02  0.00000000000E+00 0.  1.
</event>
<event>
 7    1  0.6136531E-013  0.5052886E+02  0.7816164E-02  0.1300439E+00
        -11   -1    0    0    0    0  0.00000000000E+00  0.00000000000E+00  0.45593999997E+02  0.45594000000E+02  0.51100000000E-03 0.  1.
         11   -1    0    0    0    0 -0.00000000000E+00 -0.00000000000E+00 -0.45593999997E+02  0.45594000000E+02  0.51100000000E-03 0. -1.
    9900012    2    1    2    0    0 -0.21403820023E+02 -0.32793324194E+02  0.10937991600E+02  0.50528864698E+02  0.30000014735E+02 0.  0.
         12    1    1    2    0    0  0.21403820023E+02  0.32793324194E+02 -0.10937991600E+02  0.40659135302E+02  0.00000000000E+00 0. -1.
         11    1    3    3    0    0  0.14287552191E+01 -0.43125768595E+01 -0.72750772638E+01  0.85770863410E+01  0.51100000000E-03 0. -1.
        -11    1    3    3    0    0 -0.22234505740E+02 -0.22962153038E+02  0.17240777593E+02  0.36316361739E+02  0.51100000000E-03 0.  1.
         12    1    3    3    0    0 -0.59806950204E+00 -0.55185942967E+01  0.97229127050E+00  0.56354166177E+01  0.00000000000E+00 0. -1.
</event>
<event>
 7    1  0.6136531E-013  0.5052884E+02  0.7816164E-02  0.1300439E+00
        -11   -1    0    0    0    0  0.00000000000E+00  0.00000000000E+00  0.45593999997E+02  0.45594000000E+02  0.51100000000E-03 0. -1.
         11   -1    0    0    0    0 -0.00000000000E+00 -0.00000000000E+00 -0.45593999997E+02  0.45594000000E+02  0.51100000000E-03 0.  1.
    9900012    2    1    2    0    0  0.23462054520E+02 -0.29547968617E+00 -0.33205596897E+02  0.50528843887E+02  0.29999951479E+02 0.  0.
         12    1    1    2    0    0 -0.23462054520E+02  0.29547968617E+00  0.33205596897E+02  0.40659156113E+02  0.00000000000E+00 0. -1.
         11    1    3    3    0    0  0.54122893734E+01 -0.94029142407E+00 -0.26176104306E+02  0.26746316777E+02  0.51100000000E-03 0. -1.
        -11    1    3    3    0    0  0.15995057349E+02 -0.43806742554E+01 -0.77500597419E+01  0.18305616427E+02  0.51100000000E-03 0.  1.
         12    1    3    3    0    0  0.20547077980E+01  0.50254859933E+01  0.72056715139E+00  0.54769106825E+01  0.00000000000E+00 0. -1.
</event>
<event>
 7    1  0.6136531E-013  0.5052886E+02  0.7816164E-02  0.1300439E+00
        -11   -1    0    0    0    0  0.00000000000E+00  0.00000000000E+00  0.45593999997E+02  0.45594000000E+02  0.51100000000E-03 0.  1.
         11   -1    0    0    0    0 -0.00000000000E+00 -0.00000000000E+00 -0.45593999997E+02  0.45594000000E+02  0.51100000000E-03 0. -1.
    9900012    2    1    2    0    0 -0.20542033492E+00 -0.35062808732E+02  0.20584529327E+02  0.50528860790E+02  0.30000002856E+02 0.  0.
         12    1    1    2    0    0  0.20542033492E+00  0.35062808732E+02 -0.20584529327E+02  0.40659139210E+02  0.00000000000E+00 0. -1.
         11    1    3    3    0    0  0.62514389492E+01 -0.82839604586E+01  0.13137764290E+02  0.16742321841E+02  0.51100000000E-03 0. -1.
        -11    1    3    3    0    0 -0.56662696685E+01 -0.26404908777E+02  0.73292484679E+00  0.27015976728E+02  0.51100000000E-03 0.  1.
         12    1    3    3    0    0 -0.79058961565E+00 -0.37393949643E+00  0.67138401899E+01  0.67705622206E+01  0.00000000000E+00 0. -1.
</event>
<event>
 7    1  0.6136531E-013  0.5052886E+02  0.7816164E-02  0.1300439E+00
        -11   -1    0    0    0    0  0.00000000000E+00  0.00000000000E+00  0.45593999997E+02  0.45594000000E+02  0.51100000000E-03 0.  1.
         11   -1    0    0    0    0 -0.00000000000E+00 -0.00000000000E+00 -0.45593999997E+02  0.45594000000E+02  0.51100000000E-03 0. -1.
    9900012    2    1    2    0    0  0.90990060213E+01 -0.20465028368E+02  0.33934587765E+02  0.50528861501E+02  0.30000005018E+02 0.  0.
         12    1    1    2    0    0 -0.90990060213E+01  0.20465028368E+02 -0.33934587765E+02  0.40659138499E+02  0.00000000000E+00 0. -1.
         11    1    3    3    0    0  0.87292755400E+01  0.36727877947E+01  0.17415017730E+02  0.19823533097E+02  0.51100000000E-03 0. -1.
        -11    1    3    3    0    0  0.37129646574E+01 -0.57444484235E+01  0.22966085125E+01  0.72152065222E+01  0.51100000000E-03 0.  1.
         12    1    3    3    0    0 -0.33432341760E+01 -0.18393367739E+02  0.14222961523E+02  0.23490121882E+02  0.00000000000E+00 0. -1.
</event>
<event>
 7    1  0.6136531E-013  0.5052889E+02  0.7816164E-02  0.1300439E+00
        -11   -1    0    0    0    0  0.00000000000E+00  0.00000000000E+00  0.45593999997E+02  0.45594000000E+02  0.51100000000E-03 0. -1.
         11   -1    0    0    0    0 -0.00000000000E+00 -0.00000000000E+00 -0.45593999997E+02  0.45594000000E+02  0.51100000000E-03 0.  1.
    9900012    2    1    2    0    0  0.27220850824E+02  0.28968953212E+02  0.85433257101E+01  0.50528888057E+02  0.30000085739E+02 0.  0.
         12    1    1    2    0    0 -0.27220850824E+02 -0.28968953212E+02 -0.85433257101E+01  0.40659111943E+02  0.00000000000E+00 0. -1.
         11    1    3    3    0    0  0.12029920256E+02 -0.24216749462E+01  0.12841305381E+01  0.12338252810E+02  0.51100000000E-03 0. -1.
        -11    1    3    3    0    0  0.14242383159E+02  0.16416610828E+02  0.51285941890E+00  0.21739678337E+02  0.51100000000E-03 0.  1.
         12    1    3    3    0    0  0.94854740879E+00  0.14974017330E+02  0.67463357532E+01  0.16450956911E+02  0.00000000000E+00 0. -1.
</event>
<event>
 7    1  0.6136531E-013  0.5052886E+02  0.7816164E-02  0.1300439E+00
        -11   -1    0    0    0    0  0.00000000000E+00  0.00000000000E+00  0.45593999997E+02  0.45594000000E+02  0.51100000000E-03 0.  1.
         11   -1    0    0    0    0 -0.00000000000E+00 -0.00000000000E+00 -0.45593999997E+02  0.45594000000E+02  0.51100000000E-03 0. -1.
    9900012    2    1    2    0    0  0.27638401147E+02 -0.19654740630E+02  0.22427109874E+02  0.50528864440E+02  0.30000013952E+02 0.  0.
         12    1    1    2    0    0 -0.27638401147E+02  0.19654740630E+02 -0.22427109874E+02  0.40659135560E+02  0.00000000000E+00 0. -1.
         11    1    3    3    0    0  0.22963244568E+02 -0.50793197013E+01  0.11030621159E+02  0.25976618200E+02  0.51100000000E-03 0. -1.
        -11    1    3    3    0    0 -0.18917623090E+01 -0.14430232047E+01  0.94453120680E+01  0.97403799170E+01  0.51100000000E-03 0.  1.
        -12    1    3    3    0    0  0.65669188878E+01 -0.13132397724E+02  0.19511766475E+01  0.14811866323E+02  0.00000000000E+00 0.  1.
</event>
<event>
 7    1  0.6136531E-013  0.5052886E+02  0.7816164E-02  0.1300439E+00
        -11   -1    0    0    0    0  0.00000000000E+00  0.00000000000E+00  0.45593999997E+02  0.45594000000E+02  0.51100000000E-03 0.  1.
         11   -1    0    0    0    0 -0.00000000000E+00 -0.00000000000E+00 -0.45593999997E+02  0.45594000000E+02  0.51100000000E-03 0. -1.
    9900012    2    1    2    0    0 -0.11246352020E+01  0.36979016569E+02 -0.16865730815E+02  0.50528863922E+02  0.30000012376E+02 0.  0.
         12    1    1    2    0    0  0.11246352020E+01 -0.36979016569E+02  0.16865730815E+02  0.40659136078E+02  0.00000000000E+00 0. -1.
         11    1    3    3    0    0 -0.18932203854E+01 -0.42017149161E+01  0.22887367618E+00  0.46142252962E+01  0.51100000000E-03 0. -1.
        -11    1    3    3    0    0  0.28894850351E+01  0.96168907707E+01 -0.18365456966E+00  0.10043278405E+02  0.51100000000E-03 0.  1.
         12    1    3    3    0    0 -0.21208998517E+01  0.31563840714E+02 -0.16910949921E+02  0.35871360220E+02  0.00000000000E+00 0. -1.
</event>
<event>
 7    1  0.6136531E-013  0.5052886E+02  0.7816164E-02  0.1300439E+00
        -11   -1    0    0    0    0  0.00000000000E+00  0.00000000000E+00  0.45593999997E+02  0.45594000000E+02  0.51100000000E-03 0.  1.
         11   -1    0    0    0    0 -0.00000000000E+00 -0.00000000000E+00 -0.45593999997E+02  0.45594000000E+02  0.51100000000E-03 0. -1.
    9900012    2    1    2    0    0  0.36494407439E+02 -0.13385225239E+02  0.11923078647E+02  0.50528857935E+02  0.29999994180E+02 0.  0.
         12    1    1    2    0    0 -0.36494407439E+02  0.13385225239E+02 -0.11923078647E+02  0.40659142065E+02  0.00000000000E+00 0. -1.
         11    1    3    3    0    0  0.25858284210E+02 -0.34675124276E+01  0.15354892280E+02  0.30272879313E+02  0.51100000000E-03 0. -1.
        -11    1    3    3    0    0  0.13018338438E+02 -0.10379149375E+02 -0.78892821355E+00  0.16668121833E+02  0.51100000000E-03 0.  1.
         12    1    3    3    0    0 -0.23822152089E+01  0.46143656405E+00 -0.26428854189E+01  0.35878567894E+01  0.00000000000E+00 0. -1.
</event>
<event>
 7    1  0.6136531E-013  0.5052889E+02  0.7816164E-02  0.1300439E+00
        -11   -1    0    0    0    0  0.00000000000E+00  0.00000000000E+00  0.45593999997E+02  0.45594000000E+02  0.51100000000E-03 0. -1.
         11   -1    0    0    0    0 -0.00000000000E+00 -0.00000000000E+00 -0.45593999997E+02  0.45594000000E+02  0.51100000000E-03 0.  1.
    9900012    2    1    2    0    0  0.27485182577E+02 -0.12557108659E+02 -0.27203799862E+02  0.50528893196E+02  0.30000101358E+02 0.  0.
         12    1    1    2    0    0 -0.27485182577E+02  0.12557108659E+02  0.27203799862E+02  0.40659106804E+02  0.00000000000E+00 0. -1.
         11    1    3    3    0    0  0.13514119814E+02 -0.21182267623E+02 -0.11835791239E+02  0.27774193967E+02  0.51100000000E-03 0. -1.
        -11    1    3    3    0    0  0.91356248237E+01  0.66799293872E+01 -0.12266036326E+02  0.16689420150E+02  0.51100000000E-03 0.  1.
         12    1    3    3    0    0  0.48354379398E+01  0.19452295768E+01 -0.31019722966E+01  0.60652790789E+01  0.00000000000E+00 0. -1.
</event>
<event>
 7    1  0.6136531E-013  0.5052885E+02  0.7816164E-02  0.1300439E+00
        -11   -1    0    0    0    0  0.00000000000E+00  0.00000000000E+00  0.45593999997E+02  0.45594000000E+02  0.51100000000E-03 0.  1.
         11   -1    0    0    0    0 -0.00000000000E+00 -0.00000000000E+00 -0.45593999997E+02  0.45594000000E+02  0.51100000000E-03 0. -1.
    9900012    2    1    2    0    0  0.16687211197E+02 -0.23334140191E+02  0.28813555365E+02  0.50528854795E+02  0.29999984636E+02 0.  0.
         12    1    1    2    0    0 -0.16687211197E+02  0.23334140191E+02 -0.28813555365E+02  0.40659145205E+02  0.00000000000E+00 0. -1.
         11    1    3    3    0    0 -0.44457904540E+01 -0.42975255773E+00 -0.22810346778E+01  0.50152626535E+01  0.51100000000E-03 0. -1.
        -11    1    3    3    0    0  0.16186708731E+02 -0.16725418725E+02  0.29260731409E+02  0.37389030128E+02  0.51100000000E-03 0.  1.
        -12    1    3    3    0    0  0.49462929201E+01 -0.61789689085E+01  0.18338586338E+01  0.81245620136E+01  0.00000000000E+00 0.  1.
</event>
<event>
 7    1  0.6136531E-013  0.5052887E+02  0.7816164E-02  0.1300439E+00
        -11   -1    0    0    0    0  0.00000000000E+00  0.00000000000E+00  0.45593999997E+02  0.45594000000E+02  0.51100000000E-03 0. -1.
         11   -1    0    0    0    0 -0.00000000000E+00 -0.00000000000E+00 -0.45593999997E+02  0.45594000000E+02  0.51100000000E-03 0.  1.
    9900012    2    1    2    0    0  0.13032278138E+02  0.31478092562E+02 -0.22191309857E+02  0.50528870423E+02  0.30000032139E+02 0.  0.
         12    1    1    2    0    0 -0.13032278138E+02 -0.31478092562E+02  0.22191309857E+02  0.40659129577E+02  0.00000000000E+00 0. -1.
         11    1    3    3    0    0 -0.33146709272E+01  0.59560364395E+01 -0.16978356872E+02  0.18295519007E+02  0.51100000000E-03 0. -1.
        -11    1    3    3    0    0  0.16943479777E+02  0.22086615713E+02 -0.27671221797E+01  0.27974221455E+02  0.51100000000E-03 0.  1.
        -12    1    3    3    0    0 -0.59653071223E+00  0.34354404095E+01 -0.24458308052E+01  0.42591299611E+01  0.00000000000E+00 0.  1.
</event>
<event>
 7    1  0.6136531E-013  0.5052886E+02  0.7816164E-02  0.1300439E+00
        -11   -1    0    0    0    0  0.00000000000E+00  0.00000000000E+00  0.45593999997E+02  0.45594000000E+02  0.51100000000E-03 0.  1.
         11   -1    0    0    0    0 -0.00000000000E+00 -0.00000000000E+00 -0.45593999997E+02  0.45594000000E+02  0.51100000000E-03 0. -1.
    9900012    2    1    2    0    0 -0.22141153762E+02  0.31802857801E+02  0.12309061989E+02  0.50528862512E+02  0.30000008093E+02 0.  0.
         12    1    1    2    0    0  0.22141153762E+02 -0.31802857801E+02 -0.12309061989E+02  0.40659137488E+02  0.00000000000E+00 0. -1.
         11    1    3    3    0    0 -0.11601330976E+02  0.25276746107E+02  0.20172554561E+02  0.34357484366E+02  0.51100000000E-03 0. -1.
        -11    1    3    3    0    0 -0.35748755220E+01  0.38036277152E+01 -0.68691533665E+01  0.86274322383E+01  0.51100000000E-03 0.  1.
         12    1    3    3    0    0 -0.69649472643E+01  0.27224839783E+01 -0.99433920602E+00  0.75439459080E+01  0.00000000000E+00 0. -1.
</event>
<event>
 7    1  0.6136531E-013  0.5052886E+02  0.7816164E-02  0.1300439E+00
        -11   -1    0    0    0    0  0.00000000000E+00  0.00000000000E+00  0.45593999997E+02  0.45594000000E+02  0.51100000000E-03 0. -1.
         11   -1    0    0    0    0 -0.00000000000E+00 -0.00000000000E+00 -0.45593999997E+02  0.45594000000E+02  0.51100000000E-03 0.  1.
    9900012    2    1    2    0    0  0.65495935687E+01 -0.23287860912E+02 -0.32679414043E+02  0.50528859036E+02  0.29999997525E+02 0.  0.
         12    1    1    2    0    0 -0.65495935687E+01  0.23287860912E+02  0.32679414043E+02  0.40659140964E+02  0.00000000000E+00 0. -1.
         11    1    3    3    0    0  0.56215577404E+00 -0.21357254373E+02 -0.71173653309E+01  0.22518996936E+02  0.51100000000E-03 0. -1.
        -11    1    3    3    0    0  0.61767285479E+00 -0.50756348865E+01 -0.95815976598E+01  0.10860506583E+02  0.51100000000E-03 0.  1.
         12    1    3    3    0    0  0.53697649399E+01  0.31450283481E+01 -0.15980451052E+02  0.17149355517E+02  0.00000000000E+00 0. -1.
</event>
<event>
 7    1  0.6136531E-013  0.5052887E+02  0.7816164E-02  0.1300439E+00
        -11   -1    0    0    0    0  0.00000000000E+00  0.00000000000E+00  0.45593999997E+02  0.45594000000E+02  0.51100000000E-03 0. -1.
         11   -1    0    0    0    0 -0.00000000000E+00 -0.00000000000E+00 -0.45593999997E+02  0.45594000000E+02  0.51100000000E-03 0.  1.
    9900012    2    1    2    0    0 -0.36696477407E+02  0.10855334352E+02  0.13736646960E+02  0.50528865631E+02  0.30000017571E+02 0.  0.
         12    1    1    2    0    0  0.36696477407E+02 -0.10855334352E+02 -0.13736646960E+02  0.40659134369E+02  0.00000000000E+00 0. -1.
         11    1    3    3    0    0  0.12365975373E+01  0.43688614878E+01  0.83480160012E+01  0.95029203715E+01  0.51100000000E-03 0. -1.
        -11    1    3    3    0    0 -0.38332292562E+02  0.46379947735E+01  0.59165844615E+01  0.39062534742E+02  0.51100000000E-03 0.  1.
         12    1    3    3    0    0  0.39921761705E+00  0.18484780903E+01 -0.52795350320E+00  0.19634105168E+01  0.00000000000E+00 0. -1.
</event>
<event>
 7    1  0.6136531E-013  0.5052885E+02  0.7816164E-02  0.1300439E+00
        -11   -1    0    0    0    0  0.00000000000E+00  0.00000000000E+00  0.45593999997E+02  0.45594000000E+02  0.51100000000E-03 0.  1.
         11   -1    0    0    0    0 -0.00000000000E+00 -0.00000000000E+00 -0.45593999997E+02  0.45594000000E+02  0.51100000000E-03 0. -1.
    9900012    2    1    2    0    0  0.19935065502E+02 -0.14685760659E+02  0.32250394901E+02  0.50528851289E+02  0.29999973977E+02 0.  0.
         12    1    1    2    0    0 -0.19935065502E+02  0.14685760659E+02 -0.32250394901E+02  0.40659148711E+02  0.00000000000E+00 0. -1.
         11    1    3    3    0    0  0.35815194564E+01 -0.76634193364E+01 -0.29172278058E+01  0.89479324916E+01  0.51100000000E-03 0. -1.
        -11    1    3    3    0    0  0.16798768259E+02 -0.68545525829E+01  0.22497748025E+02  0.28902113635E+02  0.51100000000E-03 0.  1.
         12    1    3    3    0    0 -0.44522221430E+00 -0.16778873978E+00  0.12669874682E+02  0.12678805162E+02  0.00000000000E+00 0. -1.
</event>
<event>
 7    1  0.6136531E-013  0.5052886E+02  0.7816164E-02  0.1300439E+00
        -11   -1    0    0    0    0  0.00000000000E+00  0.00000000000E+00  0.45593999997E+02  0.45594000000E+02  0.51100000000E-03 0. -1.
         11   -1    0    0    0    0 -0.00000000000E+00 -0.00000000000E+00 -0.45593999997E+02  0.45594000000E+02  0.51100000000E-03 0.  1.
    9900012    2    1    2    0    0 -0.13687107054E+02  0.37575531445E+02 -0.73422311695E+01  0.50528858083E+02  0.29999994629E+02 0.  0.
         12    1    1    2    0    0  0.13687107054E+02 -0.37575531445E+02  0.73422311695E+01  0.40659141917E+02  0.00000000000E+00 0. -1.
         11    1    3    3    0    0 -0.22699469730E+00 -0.90218849898E+00  0.16331698958E+01  0.18795517684E+01  0.51100000000E-03 0. -1.
        -11    1    3    3    0    0 -0.14617125202E+02  0.35445097532E+02 -0.15505176255E+02  0.41357294147E+02  0.51100000000E-03 0.  1.
        -12    1    3    3    0    0  0.11570128447E+01  0.30326224116E+01  0.65297751900E+01  0.72920121672E+01  0.00000000000E+00 0.  1.
</event>
<event>
 7    1  0.6136531E-013  0.5052886E+02  0.7816164E-02  0.1300439E+00
        -11   -1    0    0    0    0  0.00000000000E+00  0.00000000000E+00  0.45593999997E+02  0.45594000000E+02  0.51100000000E-03 0. -1.
         11   -1    0    0    0    0 -0.00000000000E+00 -0.00000000000E+00 -0.45593999997E+02  0.45594000000E+02  0.51100000000E-03 0.  1.
    9900012    2    1    2    0    0  0.14218677669E+02 -0.12486021804E+02 -0.35987413475E+02  0.50528862481E+02  0.30000007998E+02 0.  0.
         12    1    1    2    0    0 -0.14218677669E+02  0.12486021804E+02  0.35987413475E+02  0.40659137519E+02  0.00000000000E+00 0. -1.
         11    1    3    3    0    0  0.31663759650E+01 -0.63342598077E+01  0.68573632248E+00  0.71147043950E+01  0.51100000000E-03 0. -1.
        -11    1    3    3    0    0 -0.22874762695E+01  0.22537523231E+00 -0.23497730046E+02  0.23609884778E+02  0.51100000000E-03 0.  1.
        -12    1    3    3    0    0  0.13339777973E+02 -0.63771372287E+01 -0.13175419752E+02  0.19804273308E+02  0.00000000000E+00 0.  1.
</event>
<event>
 7    1  0.6136531E-013  0.5052886E+02  0.7816164E-02  0.1300439E+00
        -11   -1    0    0    0    0  0.00000000000E+00  0.00000000000E+00  0.45593999997E+02  0.45594000000E+02  0.51100000000E-03 0.  1.
         11   -1    0    0    0    0 -0.00000000000E+00 -0.00000000000E+00 -0.45593999997E+02  0.45594000000E+02  0.51100000000E-03 0. -1.
    9900012    2    1    2    0    0 -0.35666698539E+02  0.14385849142E+02  0.13194694580E+02  0.50528855822E+02  0.29999987757E+02 0.  0.
         12    1    1    2    0    0  0.35666698539E+02 -0.14385849142E+02 -0.13194694580E+02  0.40659144178E+02  0.00000000000E+00 0. -1.
         11    1    3    3    0    0 -0.25942217714E+02 -0.11215303903E+01  0.80050716256E+01  0.27172369465E+02  0.51100000000E-03 0. -1.
        -11    1    3    3    0    0 -0.12851148356E+02  0.14610014983E+02  0.50412183616E+01  0.20100209817E+02  0.51100000000E-03 0.  1.
         12    1    3    3    0    0  0.31266675309E+01  0.89736454903E+00  0.14840459288E+00  0.32562765402E+01  0.00000000000E+00 0. -1.
</event>
<event>
 7    1  0.6136531E-013  0.5052886E+02  0.7816164E-02  0.1300439E+00
        -11   -1    0    0    0    0  0.00000000000E+00  0.00000000000E+00  0.45593999997E+02  0.45594000000E+02  0.51100000000E-03 0.  1.
         11   -1    0    0    0    0 -0.00000000000E+00 -0.00000000000E+00 -0.45593999997E+02  0.45594000000E+02  0.51100000000E-03 0. -1.
    9900012    2    1    2    0    0 -0.40800594152E+00 -0.13637895730E+02  0.38301522431E+02  0.50528864626E+02  0.30000014519E+02 0.  0.
         12    1    1    2    0    0  0.40800594152E+00  0.13637895730E+02 -0.38301522431E+02  0.40659135374E+02  0.00000000000E+00 0. -1.
         11    1    3    3    0    0  0.14114336941E+00 -0.49378995192E-01 -0.39799783615E+01  0.39827864310E+01  0.51100000000E-03 0. -1.
        -11    1    3    3    0    0  0.52528799745E+01 -0.63321200747E+01  0.99749280162E+01  0.12930107573E+02  0.51100000000E-03 0.  1.
         12    1    3    3    0    0 -0.58020292854E+01 -0.72563966598E+01  0.32306572776E+02  0.33615970622E+02  0.00000000000E+00 0. -1.
</event>
<event>
 7    1  0.6136531E-013  0.5052886E+02  0.7816164E-02  0.1300439E+00
        -11   -1    0    0    0    0  0.00000000000E+00  0.00000000000E+00  0.45593999997E+02  0.45594000000E+02  0.51100000000E-03 0. -1.
         11   -1    0    0    0    0 -0.00000000000E+00 -0.00000000000E+00 -0.45593999997E+02  0.45594000000E+02  0.51100000000E-03 0.  1.
    9900012    2    1    2    0    0  0.12315928858E+02  0.38733232247E+02 -0.11048220761E+01  0.50528855693E+02  0.29999987364E+02 0.  0.
         12    1    1    2    0    0 -0.12315928858E+02 -0.38733232247E+02  0.11048220761E+01  0.40659144307E+02  0.00000000000E+00 0. -1.
         11    1    3    3    0    0  0.16340046557E+00 -0.21709021665E+01  0.20574707928E+01  0.29954469204E+01  0.51100000000E-03 0. -1.
        -11    1    3    3    0    0  0.12161749568E+02  0.38460310860E+02  0.34493310476E+01  0.40484584090E+02  0.51100000000E-03 0.  1.
        -12    1    3    3    0    0 -0.92211759400E-02  0.24438235543E+01 -0.66116239166E+01  0.70488246828E+01  0.00000000000E+00 0.  1.
</event>
<event>
 7    1  0.6136531E-013  0.5052887E+02  0.7816164E-02  0.1300439E+00
        -11   -1    0    0    0    0  0.00000000000E+00  0.00000000000E+00  0.45593999997E+02  0.45594000000E+02  0.51100000000E-03 0.  1.
         11   -1    0    0    0    0 -0.00000000000E+00 -0.00000000000E+00 -0.45593999997E+02  0.45594000000E+02  0.51100000000E-03 0. -1.
    9900012    2    1    2    0    0 -0.99012493585E+00 -0.39317257562E+02  0.10312037201E+02  0.50528865715E+02  0.30000017826E+02 0.  0.
         12    1    1    2    0    0  0.99012493585E+00  0.39317257562E+02 -0.10312037201E+02  0.40659134285E+02  0.00000000000E+00 0. -1.
         11    1    3    3    0    0  0.43714158747E+01 -0.24118316024E+02 -0.64728442936E+01  0.25351531672E+02  0.51100000000E-03 0.  1.
        -11    1    3    3    0    0 -0.60414102266E+01 -0.79840600962E+01  0.14418666221E+02  0.17553967899E+02  0.51100000000E-03 0. -1.
         12    1    3    3    0    0  0.67986941603E+00 -0.72148814416E+01  0.23662152740E+01  0.76233661438E+01  0.00000000000E+00 0. -1.
</event>
<event>
 7    1  0.6136531E-013  0.5052897E+02  0.7816164E-02  0.1300438E+00
        -11   -1    0    0    0    0  0.00000000000E+00  0.00000000000E+00  0.45593999997E+02  0.45594000000E+02  0.51100000000E-03 0.  1.
         11   -1    0    0    0    0 -0.00000000000E+00 -0.00000000000E+00 -0.45593999997E+02  0.45594000000E+02  0.51100000000E-03 0. -1.
    9900012    2    1    2    0    0  0.78332180220E+01 -0.30294641872E+00  0.39896190811E+02  0.50528965058E+02  0.30000319790E+02 0.  0.
         12    1    1    2    0    0 -0.78332180220E+01  0.30294641872E+00 -0.39896190811E+02  0.40659034942E+02  0.00000000000E+00 0. -1.
         11    1    3    3    0    0  0.53545043558E+01  0.30656427488E+01  0.21688613164E+01  0.65400949557E+01  0.51100000000E-03 0. -1.
        -11    1    3    3    0    0  0.92178005979E+00 -0.11355412383E+02  0.32189281267E+02  0.34145935302E+02  0.51100000000E-03 0.  1.
        -12    1    3    3    0    0  0.15569336064E+01  0.79868232151E+01  0.55380482277E+01  0.98429348010E+01  0.00000000000E+00 0.  1.
</event>
<event>
 7    1  0.6136531E-013  0.5052886E+02  0.7816164E-02  0.1300439E+00
        -11   -1    0    0    0    0  0.00000000000E+00  0.00000000000E+00  0.45593999997E+02  0.45594000000E+02  0.51100000000E-03 0.  1.
         11   -1    0    0    0    0 -0.00000000000E+00 -0.00000000000E+00 -0.45593999997E+02  0.45594000000E+02  0.51100000000E-03 0. -1.
    9900012    2    1    2    0    0 -0.52366128249E+01  0.38552486405E+02  0.11808865192E+02  0.50528860572E+02  0.30000002195E+02 0.  0.
         12    1    1    2    0    0  0.52366128249E+01 -0.38552486405E+02 -0.11808865192E+02  0.40659139428E+02  0.00000000000E+00 0. -1.
         11    1    3    3    0    0  0.14165230030E+01 -0.16950425952E+01  0.28668344129E+01  0.36191776179E+01  0.51100000000E-03 0. -1.
        -11    1    3    3    0    0 -0.66687505926E+01  0.41447996005E+02  0.43992346495E+01  0.42210921253E+02  0.51100000000E-03 0.  1.
        -12    1    3    3    0    0  0.15614764722E-01 -0.12004670045E+01  0.45427961294E+01  0.46987617010E+01  0.00000000000E+00 0.  1.
</event>
<event>
 7    1  0.6136531E-013  0.5052888E+02  0.7816164E-02  0.1300439E+00
        -11   -1    0    0    0    0  0.00000000000E+00  0.00000000000E+00  0.45593999997E+02  0.45594000000E+02  0.51100000000E-03 0.  1.
         11   -1    0    0    0    0 -0.00000000000E+00 -0.00000000000E+00 -0.45593999997E+02  0.45594000000E+02  0.51100000000E-03 0. -1.
    9900012    2    1    2    0    0  0.14139863013E+02 -0.15464295105E+02  0.34843707752E+02  0.50528879018E+02  0.30000058263E+02 0.  0.
         12    1    1    2    0    0 -0.14139863013E+02  0.15464295105E+02 -0.34843707752E+02  0.40659120982E+02  0.00000000000E+00 0. -1.
         11    1    3    3    0    0  0.29707985918E+00 -0.27805976308E+01 -0.48281298556E+01  0.55794997796E+01  0.51100000000E-03 0. -1.
        -11    1    3    3    0    0  0.41801359591E+01 -0.10376994901E+02  0.21743936448E+02  0.24453104758E+02  0.51100000000E-03 0.  1.
         12    1    3    3    0    0  0.96626471952E+01 -0.23067025732E+01  0.17927901159E+02  0.20496274480E+02  0.00000000000E+00 0. -1.
</event>
<event>
 7    1  0.6136531E-013  0.5052887E+02  0.7816164E-02  0.1300439E+00
        -11   -1    0    0    0    0  0.00000000000E+00  0.00000000000E+00  0.45593999997E+02  0.45594000000E+02  0.51100000000E-03 0.  1.
         11   -1    0    0    0    0 -0.00000000000E+00 -0.00000000000E+00 -0.45593999997E+02  0.45594000000E+02  0.51100000000E-03 0. -1.
    9900012    2    1    2    0    0 -0.36754686718E+02  0.11862111218E+02 -0.12710171630E+02  0.50528866448E+02  0.30000020056E+02 0.  0.
         12    1    1    2    0    0  0.36754686718E+02 -0.11862111218E+02  0.12710171630E+02  0.40659133552E+02  0.00000000000E+00 0. -1.
         11    1    3    3    0    0  0.21009894242E+01 -0.77578946991E+00  0.18306733079E+01  0.28926408148E+01  0.51100000000E-03 0. -1.
        -11    1    3    3    0    0 -0.25750861970E+02  0.11711822007E+02 -0.18635291905E+02  0.33875474484E+02  0.51100000000E-03 0.  1.
        -12    1    3    3    0    0 -0.13104814173E+02  0.92607868119E+00  0.40944469666E+01  0.13760751149E+02  0.00000000000E+00 0.  1.
</event>
<event>
 7    1  0.6136531E-013  0.5052886E+02  0.7816164E-02  0.1300439E+00
        -11   -1    0    0    0    0  0.00000000000E+00  0.00000000000E+00  0.45593999997E+02  0.45594000000E+02  0.51100000000E-03 0. -1.
         11   -1    0    0    0    0 -0.00000000000E+00 -0.00000000000E+00 -0.45593999997E+02  0.45594000000E+02  0.51100000000E-03 0.  1.
    9900012    2    1    2    0    0  0.36558187454E+02  0.16012379723E+02  0.77632828839E+01  0.50528856680E+02  0.29999990365E+02 0.  0.
         12    1    1    2    0    0 -0.36558187454E+02 -0.16012379723E+02 -0.77632828839E+01  0.40659143320E+02  0.00000000000E+00 0. -1.
         11    1    3    3    0    0  0.71578985096E+01 -0.73889147250E+01  0.29045144747E+01  0.10689610680E+02  0.51100000000E-03 0. -1.
        -11    1    3    3    0    0  0.82151595901E+01  0.92722782104E+01 -0.37757780079E+01  0.12950694581E+02  0.51100000000E-03 0.  1.
         12    1    3    3    0    0  0.21185129355E+02  0.14129016238E+02  0.86345464171E+01  0.26888551420E+02  0.00000000000E+00 0. -1.
</event>
<event>
 7    1  0.6136531E-013  0.5052886E+02  0.7816164E-02  0.1300439E+00
        -11   -1    0    0    0    0  0.00000000000E+00  0.00000000000E+00  0.45593999997E+02  0.45594000000E+02  0.51100000000E-03 0.  1.
         11   -1    0    0    0    0 -0.00000000000E+00 -0.00000000000E+00 -0.45593999997E+02  0.45594000000E+02  0.51100000000E-03 0. -1.
    9900012    2    1    2    0    0  0.14948955810E+02 -0.28541635248E+02  0.24800596167E+02  0.50528858437E+02  0.29999995704E+02 0.  0.
         12    1    1    2    0    0 -0.14948955810E+02  0.28541635248E+02 -0.24800596167E+02  0.40659141563E+02  0.00000000000E+00 0. -1.
         11    1    3    3    0    0 -0.86028427598E+01 -0.10232151857E+02  0.86494089140E+01  0.15922252039E+02  0.51100000000E-03 0. -1.
        -11    1    3    3    0    0  0.13829250040E+02 -0.82156283807E+01  0.11739603302E+02  0.19913889431E+02  0.51100000000E-03 0.  1.
         12    1    3    3    0    0  0.97225485303E+01 -0.10093855010E+02  0.44115839511E+01  0.14692716966E+02  0.00000000000E+00 0. -1.
</event>
<event>
 7    1  0.6136531E-013  0.5052886E+02  0.7816164E-02  0.1300439E+00
        -11   -1    0    0    0    0  0.00000000000E+00  0.00000000000E+00  0.45593999997E+02  0.45594000000E+02  0.51100000000E-03 0.  1.
         11   -1    0    0    0    0 -0.00000000000E+00 -0.00000000000E+00 -0.45593999997E+02  0.45594000000E+02  0.51100000000E-03 0. -1.
    9900012    2    1    2    0    0 -0.18735457950E+02  0.30049543548E+02 -0.19979321541E+02  0.50528859069E+02  0.29999997626E+02 0.  0.
         12    1    1    2    0    0  0.18735457950E+02 -0.30049543548E+02  0.19979321541E+02  0.40659140931E+02  0.00000000000E+00 0. -1.
         11    1    3    3    0    0  0.43340342604E+01  0.13264446630E+02 -0.40775109663E+01  0.14538070481E+02  0.51100000000E-03 0. -1.
        -11    1    3    3    0    0 -0.14332185165E+02  0.13695220741E+01 -0.53009535375E+01  0.15342334600E+02  0.51100000000E-03 0.  1.
         12    1    3    3    0    0 -0.87373070450E+01  0.15415574843E+02 -0.10600857037E+02  0.20648453987E+02  0.00000000000E+00 0. -1.
</event>
<event>
 7    1  0.6136531E-013  0.5052886E+02  0.7816164E-02  0.1300439E+00
        -11   -1    0    0    0    0  0.00000000000E+00  0.00000000000E+00  0.45593999997E+02  0.45594000000E+02  0.51100000000E-03 0.  1.
         11   -1    0    0    0    0 -0.00000000000E+00 -0.00000000000E+00 -0.45593999997E+02  0.45594000000E+02  0.51100000000E-03 0. -1.
    9900012    2    1    2    0    0 -0.14443667610E+02  0.22677484729E+02  0.30500450713E+02  0.50528863986E+02  0.30000012573E+02 0.  0.
         12    1    1    2    0    0  0.14443667610E+02 -0.22677484729E+02 -0.30500450713E+02  0.40659136014E+02  0.00000000000E+00 0. -1.
         11    1    3    3    0    0 -0.13415622248E+02  0.12211208799E+02  0.14303520657E+02  0.23101585315E+02  0.51100000000E-03 0. -1.
        -11    1    3    3    0    0  0.56662000632E+01  0.13604702564E+02  0.10568253718E+02  0.18135096965E+02  0.51100000000E-03 0.  1.
        -12    1    3    3    0    0 -0.66942454254E+01 -0.31384266336E+01  0.56286763381E+01  0.92921817067E+01  0.00000000000E+00 0.  1.
</event>
<event>
 7    1  0.6136531E-013  0.5052887E+02  0.7816164E-02  0.1300439E+00
        -11   -1    0    0    0    0  0.00000000000E+00  0.00000000000E+00  0.45593999997E+02  0.45594000000E+02  0.51100000000E-03 0. -1.
         11   -1    0    0    0    0 -0.00000000000E+00 -0.00000000000E+00 -0.45593999997E+02  0.45594000000E+02  0.51100000000E-03 0.  1.
    9900012    2    1    2    0    0 -0.39090947567E+02 -0.94301967200E+01  0.60111767415E+01  0.50528867721E+02  0.30000023926E+02 0.  0.
         12    1    1    2    0    0  0.39090947567E+02  0.94301967200E+01 -0.60111767415E+01  0.40659132279E+02  0.00000000000E+00 0. -1.
         11    1    3    3    0    0 -0.18674534777E+02 -0.11961132219E+00  0.80276764546E+01  0.20327226705E+02  0.51100000000E-03 0. -1.
        -11    1    3    3    0    0 -0.51666232130E+01 -0.10325345849E+00 -0.95514705819E+01  0.10859799595E+02  0.51100000000E-03 0.  1.
        -12    1    3    3    0    0 -0.15249789576E+02 -0.92073319393E+01  0.75349708687E+01  0.19341841421E+02  0.00000000000E+00 0.  1.
</event>
<event>
 7    1  0.6136531E-013  0.5052887E+02  0.7816164E-02  0.1300439E+00
        -11   -1    0    0    0    0  0.00000000000E+00  0.00000000000E+00  0.45593999997E+02  0.45594000000E+02  0.51100000000E-03 0.  1.
         11   -1    0    0    0    0 -0.00000000000E+00 -0.00000000000E+00 -0.45593999997E+02  0.45594000000E+02  0.51100000000E-03 0. -1.
    9900012    2    1    2    0    0 -0.86321980757E+01 -0.10174166084E+02  0.38407507531E+02  0.50528866538E+02  0.30000020330E+02 0.  0.
         12    1    1    2    0    0  0.86321980757E+01  0.10174166084E+02 -0.38407507531E+02  0.40659133462E+02  0.00000000000E+00 0. -1.
         11    1    3    3    0    0 -0.46039091845E+01  0.10057229797E+02  0.10069880984E+02  0.14958153437E+02  0.51100000000E-03 0. -1.
        -11    1    3    3    0    0 -0.47960506140E+00 -0.15663456963E+02  0.21690768573E+02  0.26759359981E+02  0.51100000000E-03 0.  1.
         12    1    3    3    0    0 -0.35486838298E+01 -0.45679389176E+01  0.66468579733E+01  0.88113531195E+01  0.00000000000E+00 0. -1.
</event>
<event>
 7    1  0.6136531E-013  0.5052886E+02  0.7816164E-02  0.1300439E+00
        -11   -1    0    0    0    0  0.00000000000E+00  0.00000000000E+00  0.45593999997E+02  0.45594000000E+02  0.51100000000E-03 0.  1.
         11   -1    0    0    0    0 -0.00000000000E+00 -0.00000000000E+00 -0.45593999997E+02  0.45594000000E+02  0.51100000000E-03 0. -1.
    9900012    2    1    2    0    0  0.58770875081E+01 -0.35350044219E+02  0.19209368596E+02  0.50528860490E+02  0.30000001946E+02 0.  0.
         12    1    1    2    0    0 -0.58770875081E+01  0.35350044219E+02 -0.19209368596E+02  0.40659139510E+02  0.00000000000E+00 0. -1.
         11    1    3    3    0    0 -0.23471738984E+01  0.27040082303E+01  0.88187014982E+01  0.95178979925E+01  0.51100000000E-03 0. -1.
        -11    1    3    3    0    0  0.21156900583E+01 -0.20195807666E+02  0.21619821071E+01  0.20421091023E+02  0.51100000000E-03 0.  1.
         12    1    3    3    0    0  0.61085713482E+01 -0.17858244783E+02  0.82286849903E+01  0.20589871474E+02  0.00000000000E+00 0. -1.
</event>
<event>
 7    1  0.6136531E-013  0.5052886E+02  0.7816164E-02  0.1300439E+00
        -11   -1    0    0    0    0  0.00000000000E+00  0.00000000000E+00  0.45593999997E+02  0.45594000000E+02  0.51100000000E-03 0. -1.
         11   -1    0    0    0    0 -0.00000000000E+00 -0.00000000000E+00 -0.45593999997E+02  0.45594000000E+02  0.51100000000E-03 0.  1.
    9900012    2    1    2    0    0 -0.19199038553E+02 -0.35278442857E+02 -0.63241008245E+01  0.50528857571E+02  0.29999993073E+02 0.  0.
         12    1    1    2    0    0  0.19199038553E+02  0.35278442857E+02  0.63241008245E+01  0.40659142429E+02  0.00000000000E+00 0. -1.
         11    1    3    3    0    0 -0.34058837613E+01 -0.11310277291E+02  0.11113402896E+02  0.16218203994E+02  0.51100000000E-03 0. -1.
        -11    1    3    3    0    0 -0.10162655173E+02 -0.13868650740E+02 -0.14210000739E+02  0.22305675394E+02  0.51100000000E-03 0.  1.
         12    1    3    3    0    0 -0.56304996184E+01 -0.10099514827E+02 -0.32275029817E+01  0.12004978184E+02  0.00000000000E+00 0. -1.
</event>
<event>
 7    1  0.6136531E-013  0.5052885E+02  0.7816164E-02  0.1300439E+00
        -11   -1    0    0    0    0  0.00000000000E+00  0.00000000000E+00  0.45593999997E+02  0.45594000000E+02  0.51100000000E-03 0.  1.
         11   -1    0    0    0    0 -0.00000000000E+00 -0.00000000000E+00 -0.45593999997E+02  0.45594000000E+02  0.51100000000E-03 0. -1.
    9900012    2    1    2    0    0  0.25635203943E+02  0.31555164930E+02 -0.52349972707E+00  0.50528853834E+02  0.29999981715E+02 0.  0.
         12    1    1    2    0    0 -0.25635203943E+02 -0.31555164930E+02  0.52349972707E+00  0.40659146166E+02  0.00000000000E+00 0. -1.
         11    1    3    3    0    0  0.11006076006E+02  0.24577021932E+02  0.68715315571E+01  0.27791755294E+02  0.51100000000E-03 0. -1.
        -11    1    3    3    0    0  0.17205282215E+02  0.70855527034E+01 -0.77065551336E+01  0.20139954953E+02  0.51100000000E-03 0.  1.
        -12    1    3    3    0    0 -0.25761542778E+01 -0.10740970593E+00  0.31152384936E+00  0.25971435880E+01  0.00000000000E+00 0.  1.
</event>
<event>
 7    1  0.6136531E-013  0.5052887E+02  0.7816164E-02  0.1300439E+00
        -11   -1    0    0    0    0  0.00000000000E+00  0.00000000000E+00  0.45593999997E+02  0.45594000000E+02  0.51100000000E-03 0. -1.
         11   -1    0    0    0    0 -0.00000000000E+00 -0.00000000000E+00 -0.45593999997E+02  0.45594000000E+02  0.51100000000E-03 0.  1.
    9900012    2    1    2    0    0  0.40487255032E+02 -0.37234367802E+01 -0.28755046849E+00  0.50528874496E+02  0.30000044517E+02 0.  0.
         12    1    1    2    0    0 -0.40487255032E+02  0.37234367802E+01  0.28755046849E+00  0.40659125504E+02  0.00000000000E+00 0. -1.
         11    1    3    3    0    0  0.18139940801E+01 -0.16929125381E+01  0.14561449603E+01  0.28769577318E+01  0.51100000000E-03 0. -1.
        -11    1    3    3    0    0  0.29331335342E+00 -0.69819424124E+01  0.46992705833E+01  0.84212051899E+01  0.51100000000E-03 0.  1.
        -12    1    3    3    0    0  0.38379947599E+02  0.49514181703E+01 -0.64429660121E+01  0.39230711574E+02  0.00000000000E+00 0.  1.
</event>
<event>
 7    1  0.6136531E-013  0.5052887E+02  0.7816164E-02  0.1300439E+00
        -11   -1    0    0    0    0  0.00000000000E+00  0.00000000000E+00  0.45593999997E+02  0.45594000000E+02  0.51100000000E-03 0.  1.
         11   -1    0    0    0    0 -0.00000000000E+00 -0.00000000000E+00 -0.45593999997E+02  0.45594000000E+02  0.51100000000E-03 0. -1.
    9900012    2    1    2    0    0 -0.10799049078E+02  0.54749921431E+01  0.38814557852E+02  0.50528869399E+02  0.30000029026E+02 0.  0.
         12    1    1    2    0    0  0.10799049078E+02 -0.54749921431E+01 -0.38814557852E+02  0.40659130601E+02  0.00000000000E+00 0. -1.
         11    1    3    3    0    0 -0.34540170801E+01 -0.10644752399E+01  0.13043818771E+01  0.38424931839E+01  0.51100000000E-03 0. -1.
        -11    1    3    3    0    0  0.94215617291E+01 -0.41604708218E+00  0.15653779025E+02  0.18275112000E+02  0.51100000000E-03 0.  1.
        -12    1    3    3    0    0 -0.16766593728E+02  0.69555144651E+01  0.21856396950E+02  0.28411264216E+02  0.00000000000E+00 0.  1.
</event>
<event>
 7    1  0.6136531E-013  0.5052885E+02  0.7816164E-02  0.1300439E+00
        -11   -1    0    0    0    0  0.00000000000E+00  0.00000000000E+00  0.45593999997E+02  0.45594000000E+02  0.51100000000E-03 0. -1.
         11   -1    0    0    0    0 -0.00000000000E+00 -0.00000000000E+00 -0.45593999997E+02  0.45594000000E+02  0.51100000000E-03 0.  1.
    9900012    2    1    2    0    0 -0.93294564091E+01  0.15593499971E+02 -0.36372657999E+02  0.50528852835E+02  0.29999978678E+02 0.  0.
         12    1    1    2    0    0  0.93294564091E+01 -0.15593499971E+02  0.36372657999E+02  0.40659147165E+02  0.00000000000E+00 0. -1.
         11    1    3    3    0    0 -0.40132690975E+01  0.16654301043E+02 -0.15995011430E+02  0.23437415877E+02  0.51100000000E-03 0. -1.
        -11    1    3    3    0    0  0.60016482557E+01 -0.18723672983E+01 -0.53111062261E+01  0.82300298111E+01  0.51100000000E-03 0.  1.
         12    1    3    3    0    0 -0.11317835567E+02  0.81156622604E+00 -0.15066540343E+02  0.18861407148E+02  0.00000000000E+00 0. -1.
</event>
<event>
 7    1  0.6136531E-013  0.5052886E+02  0.7816164E-02  0.1300439E+00
        -11   -1    0    0    0    0  0.00000000000E+00  0.00000000000E+00  0.45593999997E+02  0.45594000000E+02  0.51100000000E-03 0.  1.
         11   -1    0    0    0    0 -0.00000000000E+00 -0.00000000000E+00 -0.45593999997E+02  0.45594000000E+02  0.51100000000E-03 0. -1.
    9900012    2    1    2    0    0  0.18932426575E+02  0.29503385598E+02  0.20598028968E+02  0.50528864063E+02  0.30000012807E+02 0.  0.
         12    1    1    2    0    0 -0.18932426575E+02 -0.29503385598E+02 -0.20598028968E+02  0.40659135937E+02  0.00000000000E+00 0. -1.
         11    1    3    3    0    0  0.11229448957E+02  0.22111868441E+02  0.12671075662E+01  0.24832253455E+02  0.51100000000E-03 0. -1.
        -11    1    3    3    0    0  0.60873622080E+01  0.11192396700E+02  0.15490516668E+02  0.20056964611E+02  0.51100000000E-03 0.  1.
         12    1    3    3    0    0  0.16156154099E+01 -0.38008795422E+01  0.38404047340E+01  0.56396459967E+01  0.00000000000E+00 0. -1.
</event>
<event>
 7    1  0.6136531E-013  0.5052886E+02  0.7816164E-02  0.1300439E+00
        -11   -1    0    0    0    0  0.00000000000E+00  0.00000000000E+00  0.45593999997E+02  0.45594000000E+02  0.51100000000E-03 0. -1.
         11   -1    0    0    0    0 -0.00000000000E+00 -0.00000000000E+00 -0.45593999997E+02  0.45594000000E+02  0.51100000000E-03 0.  1.
    9900012    2    1    2    0    0 -0.18829036667E+02  0.17164006766E+02 -0.31686429391E+02  0.50528861328E+02  0.30000004491E+02 0.  0.
         12    1    1    2    0    0  0.18829036667E+02 -0.17164006766E+02  0.31686429391E+02  0.40659138672E+02  0.00000000000E+00 0. -1.
         11    1    3    3    0    0  0.63100705049E+01  0.71374385508E+01 -0.26612080005E+01  0.98915138946E+01  0.51100000000E-03 0. -1.
        -11    1    3    3    0    0 -0.27896558132E+01  0.29159979612E+01 -0.87472134111E+01  0.96332220148E+01  0.51100000000E-03 0.  1.
         12    1    3    3    0    0 -0.22349451358E+02  0.71105702542E+01 -0.20278007979E+02  0.31004125418E+02  0.00000000000E+00 0. -1.
</event>
<event>
 7    1  0.6136531E-013  0.5052889E+02  0.7816164E-02  0.1300439E+00
        -11   -1    0    0    0    0  0.00000000000E+00  0.00000000000E+00  0.45593999997E+02  0.45594000000E+02  0.51100000000E-03 0. -1.
         11   -1    0    0    0    0 -0.00000000000E+00 -0.00000000000E+00 -0.45593999997E+02  0.45594000000E+02  0.51100000000E-03 0.  1.
    9900012    2    1    2    0    0  0.81148659850E-01  0.17787458036E+02 -0.36561774392E+02  0.50528885460E+02  0.30000077845E+02 0.  0.
         12    1    1    2    0    0 -0.81148659850E-01 -0.17787458036E+02  0.36561774392E+02  0.40659114540E+02  0.00000000000E+00 0. -1.
         11    1    3    3    0    0 -0.96065597923E+01 -0.37252991748E+01 -0.10932822381E+02  0.15022997386E+02  0.51100000000E-03 0. -1.
        -11    1    3    3    0    0  0.10365888013E+01  0.67655101266E+01 -0.11237434884E+02  0.13157757661E+02  0.51100000000E-03 0.  1.
         12    1    3    3    0    0  0.86511196509E+01  0.14747247085E+02 -0.14391517126E+02  0.22348130414E+02  0.00000000000E+00 0. -1.
</event>
<event>
 7    1  0.6136531E-013  0.5052888E+02  0.7816164E-02  0.1300439E+00
        -11   -1    0    0    0    0  0.00000000000E+00  0.00000000000E+00  0.45593999997E+02  0.45594000000E+02  0.51100000000E-03 0.  1.
         11   -1    0    0    0    0 -0.00000000000E+00 -0.00000000000E+00 -0.45593999997E+02  0.45594000000E+02  0.51100000000E-03 0. -1.
    9900012    2    1    2    0    0 -0.11122491256E+02 -0.28963650804E+02  0.26278532548E+02  0.50528878606E+02  0.30000057011E+02 0.  0.
         12    1    1    2    0    0  0.11122491256E+02  0.28963650804E+02 -0.26278532548E+02  0.40659121394E+02  0.00000000000E+00 0. -1.
         11    1    3    3    0    0  0.67345967662E+01 -0.41314539280E+01  0.13311216894E+01  0.80122150729E+01  0.51100000000E-03 0. -1.
        -11    1    3    3    0    0 -0.15391278044E+02 -0.80653093357E+01  0.14283018370E+02  0.22493227170E+02  0.51100000000E-03 0.  1.
        -12    1    3    3    0    0 -0.24658099788E+01 -0.16766887541E+02  0.10664392488E+02  0.20023436363E+02  0.00000000000E+00 0.  1.
</event>
<event>
 7    1  0.6136531E-013  0.5052887E+02  0.7816164E-02  0.1300439E+00
        -11   -1    0    0    0    0  0.00000000000E+00  0.00000000000E+00  0.45593999997E+02  0.45594000000E+02  0.51100000000E-03 0.  1.
         11   -1    0    0    0    0 -0.00000000000E+00 -0.00000000000E+00 -0.45593999997E+02  0.45594000000E+02  0.51100000000E-03 0. -1.
    9900012    2    1    2    0    0  0.15137152838E+02 -0.54859918338E+01  0.37335446131E+02  0.50528867690E+02  0.30000023829E+02 0.  0.
         12    1    1    2    0    0 -0.15137152838E+02  0.54859918338E+01 -0.37335446131E+02  0.40659132310E+02  0.00000000000E+00 0. -1.
         11    1    3    3    0    0  0.17904819049E+02  0.13186283401E+01  0.23883899247E+02  0.29879122634E+02  0.51100000000E-03 0. -1.
        -11    1    3    3    0    0  0.54587367506E+01 -0.12543452494E+01  0.35504452568E+01  0.66315044070E+01  0.51100000000E-03 0.  1.
         12    1    3    3    0    0 -0.82264029624E+01 -0.55502749246E+01  0.99011016273E+01  0.14018240648E+02  0.00000000000E+00 0. -1.
</event>
<event>
 7    1  0.6136531E-013  0.5052887E+02  0.7816164E-02  0.1300439E+00
        -11   -1    0    0    0    0  0.00000000000E+00  0.00000000000E+00  0.45593999997E+02  0.45594000000E+02  0.51100000000E-03 0. -1.
         11   -1    0    0    0    0 -0.00000000000E+00 -0.00000000000E+00 -0.45593999997E+02  0.45594000000E+02  0.51100000000E-03 0.  1.
    9900012    2    1    2    0    0  0.38952501492E+02 -0.11588692305E+02 -0.12528601168E+01  0.50528870394E+02  0.30000032050E+02 0.  0.
         12    1    1    2    0    0 -0.38952501492E+02  0.11588692305E+02  0.12528601168E+01  0.40659129606E+02  0.00000000000E+00 0. -1.
         11    1    3    3    0    0  0.21914292228E+02 -0.14337340522E+02  0.10057166965E+02  0.28052489100E+02  0.51100000000E-03 0. -1.
        -11    1    3    3    0    0  0.13959889409E+02 -0.13057463862E+01 -0.99949377691E+01  0.17218660436E+02  0.51100000000E-03 0.  1.
         12    1    3    3    0    0  0.30783198550E+01  0.40543946030E+01 -0.13150893123E+01  0.52577208585E+01  0.00000000000E+00 0. -1.
</event>
<event>
 7    1  0.6136531E-013  0.5052885E+02  0.7816164E-02  0.1300439E+00
        -11   -1    0    0    0    0  0.00000000000E+00  0.00000000000E+00  0.45593999997E+02  0.45594000000E+02  0.51100000000E-03 0. -1.
         11   -1    0    0    0    0 -0.00000000000E+00 -0.00000000000E+00 -0.45593999997E+02  0.45594000000E+02  0.51100000000E-03 0.  1.
    9900012    2    1    2    0    0  0.53529846389E+00 -0.40307889995E+02 -0.53060004539E+01  0.50528853659E+02  0.29999981183E+02 0.  0.
         12    1    1    2    0    0 -0.53529846389E+00  0.40307889995E+02  0.53060004539E+01  0.40659146341E+02  0.00000000000E+00 0. -1.
         11    1    3    3    0    0  0.10615018347E+02 -0.30415631985E+02 -0.93298724808E+01  0.33538571888E+02  0.51100000000E-03 0. -1.
        -11    1    3    3    0    0 -0.31811002032E+01 -0.56628435535E+01 -0.21176669826E+01  0.68316695854E+01  0.51100000000E-03 0.  1.
         12    1    3    3    0    0 -0.68986196798E+01 -0.42294144573E+01  0.61415390095E+01  0.10158612186E+02  0.00000000000E+00 0. -1.
</event>
<event>
 7    1  0.6136531E-013  0.5052887E+02  0.7816164E-02  0.1300439E+00
        -11   -1    0    0    0    0  0.00000000000E+00  0.00000000000E+00  0.45593999997E+02  0.45594000000E+02  0.51100000000E-03 0.  1.
         11   -1    0    0    0    0 -0.00000000000E+00 -0.00000000000E+00 -0.45593999997E+02  0.45594000000E+02  0.51100000000E-03 0. -1.
    9900012    2    1    2    0    0 -0.19414452967E+02 -0.82901471203E-01  0.35724460447E+02  0.50528869034E+02  0.30000027916E+02 0.  0.
         12    1    1    2    0    0  0.19414452967E+02  0.82901471203E-01 -0.35724460447E+02  0.40659130966E+02  0.00000000000E+00 0. -1.
         11    1    3    3    0    0 -0.24399701349E+02  0.79993900113E+01  0.24652206648E+02  0.35595884022E+02  0.51100000000E-03 0. -1.
        -11    1    3    3    0    0  0.27185630733E+01 -0.16868106446E+01  0.41465542947E+01  0.52373493404E+01  0.51100000000E-03 0.  1.
         12    1    3    3    0    0  0.22666853089E+01 -0.63954808379E+01  0.69256995052E+01  0.96956356715E+01  0.00000000000E+00 0. -1.
</event>
<event>
 7    1  0.6136531E-013  0.5052886E+02  0.7816164E-02  0.1300439E+00
        -11   -1    0    0    0    0  0.00000000000E+00  0.00000000000E+00  0.45593999997E+02  0.45594000000E+02  0.51100000000E-03 0. -1.
         11   -1    0    0    0    0 -0.00000000000E+00 -0.00000000000E+00 -0.45593999997E+02  0.45594000000E+02  0.51100000000E-03 0.  1.
    9900012    2    1    2    0    0  0.35788858270E+02  0.17770829044E+02 -0.75180239181E+01  0.50528862960E+02  0.30000009454E+02 0.  0.
         12    1    1    2    0    0 -0.35788858270E+02 -0.17770829044E+02  0.75180239181E+01  0.40659137040E+02  0.00000000000E+00 0. -1.
         11    1    3    3    0    0  0.17732287739E+02  0.59876986671E+01  0.64221590033E+01  0.19787134464E+02  0.51100000000E-03 0. -1.
        -11    1    3    3    0    0 -0.29750747046E+01  0.86029267932E+00 -0.39597211257E+01  0.50269836529E+01  0.51100000000E-03 0.  1.
        -12    1    3    3    0    0  0.21031645236E+02  0.10922837697E+02 -0.99804617957E+01  0.25714744843E+02  0.00000000000E+00 0.  1.
</event>
<event>
 7    1  0.6136531E-013  0.5052886E+02  0.7816164E-02  0.1300439E+00
        -11   -1    0    0    0    0  0.00000000000E+00  0.00000000000E+00  0.45593999997E+02  0.45594000000E+02  0.51100000000E-03 0.  1.
         11   -1    0    0    0    0 -0.00000000000E+00 -0.00000000000E+00 -0.45593999997E+02  0.45594000000E+02  0.51100000000E-03 0. -1.
    9900012    2    1    2    0    0  0.37123931896E+02 -0.11374376188E+01  0.16543436747E+02  0.50528863473E+02  0.30000011012E+02 0.  0.
         12    1    1    2    0    0 -0.37123931896E+02  0.11374376188E+01 -0.16543436747E+02  0.40659136527E+02  0.00000000000E+00 0. -1.
         11    1    3    3    0    0 -0.76513426254E+00  0.11676928378E+00 -0.47614728624E+01  0.48239703135E+01  0.51100000000E-03 0. -1.
        -11    1    3    3    0    0  0.25419028543E+02  0.36757141206E+01  0.82134457629E+01  0.26964765490E+02  0.51100000000E-03 0.  1.
         12    1    3    3    0    0  0.12470037615E+02 -0.49299210231E+01  0.13091463846E+02  0.18740127669E+02  0.00000000000E+00 0. -1.
</event>
<event>
 7    1  0.6136531E-013  0.5052886E+02  0.7816164E-02  0.1300439E+00
        -11   -1    0    0    0    0  0.00000000000E+00  0.00000000000E+00  0.45593999997E+02  0.45594000000E+02  0.51100000000E-03 0. -1.
         11   -1    0    0    0    0 -0.00000000000E+00 -0.00000000000E+00 -0.45593999997E+02  0.45594000000E+02  0.51100000000E-03 0.  1.
    9900012    2    1    2    0    0 -0.37474963333E+02 -0.12888226429E+02 -0.90932270762E+01  0.50528855445E+02  0.29999986611E+02 0.  0.
         12    1    1    2    0    0  0.37474963333E+02  0.12888226429E+02  0.90932270762E+01  0.40659144555E+02  0.00000000000E+00 0. -1.
         11    1    3    3    0    0 -0.11058733334E+02 -0.19496955279E+01  0.85026390895E+01  0.14085161247E+02  0.51100000000E-03 0. -1.
        -11    1    3    3    0    0 -0.19490872270E+02 -0.19331176082E+01 -0.15299182353E+02  0.24853491233E+02  0.51100000000E-03 0.  1.
        -12    1    3    3    0    0 -0.69253577287E+01 -0.90054132924E+01 -0.22966838128E+01  0.11590202965E+02  0.00000000000E+00 0.  1.
</event>
<event>
 7    1  0.6136531E-013  0.5052880E+02  0.7816164E-02  0.1300439E+00
        -11   -1    0    0    0    0  0.00000000000E+00  0.00000000000E+00  0.45593999997E+02  0.45594000000E+02  0.51100000000E-03 0.  1.
         11   -1    0    0    0    0 -0.00000000000E+00 -0.00000000000E+00 -0.45593999997E+02  0.45594000000E+02  0.51100000000E-03 0. -1.
    9900012    2    1    2    0    0  0.30202719801E+01  0.33883966786E+02  0.22269379815E+02  0.50528800237E+02  0.29999818801E+02 0.  0.
         12    1    1    2    0    0 -0.30202719801E+01 -0.33883966786E+02 -0.22269379815E+02  0.40659199763E+02  0.00000000000E+00 0. -1.
         11    1    3    3    0    0  0.94606786199E+01  0.43127990386E+01  0.12024808912E+02  0.15896562682E+02  0.51100000000E-03 0. -1.
        -11    1    3    3    0    0 -0.66942462208E+00  0.25314884091E+02  0.10599848090E+02  0.27452654984E+02  0.51100000000E-03 0.  1.
         12    1    3    3    0    0 -0.57709820177E+01  0.42562836569E+01 -0.35527718709E+00  0.71795825712E+01  0.00000000000E+00 0. -1.
</event>
<event>
 7    1  0.6136531E-013  0.5052886E+02  0.7816164E-02  0.1300439E+00
        -11   -1    0    0    0    0  0.00000000000E+00  0.00000000000E+00  0.45593999997E+02  0.45594000000E+02  0.51100000000E-03 0. -1.
         11   -1    0    0    0    0 -0.00000000000E+00 -0.00000000000E+00 -0.45593999997E+02  0.45594000000E+02  0.51100000000E-03 0.  1.
    9900012    2    1    2    0    0 -0.10633120154E+02  0.39112958862E+02 -0.32061310601E+01  0.50528855007E+02  0.29999985280E+02 0.  0.
         12    1    1    2    0    0  0.10633120154E+02 -0.39112958862E+02  0.32061310601E+01  0.40659144993E+02  0.00000000000E+00 0. -1.
         11    1    3    3    0    0 -0.10985026806E+01  0.92734206654E+01  0.10210780045E+02  0.13837018045E+02  0.51100000000E-03 0. -1.
        -11    1    3    3    0    0 -0.12478408481E+02  0.21237757130E+02 -0.12297972274E+02  0.27531675003E+02  0.51100000000E-03 0.  1.
        -12    1    3    3    0    0  0.29437910076E+01  0.86017810668E+01 -0.11189388314E+01  0.91601619596E+01  0.00000000000E+00 0.  1.
</event>
<event>
 7    1  0.6136531E-013  0.5052886E+02  0.7816164E-02  0.1300439E+00
        -11   -1    0    0    0    0  0.00000000000E+00  0.00000000000E+00  0.45593999997E+02  0.45594000000E+02  0.51100000000E-03 0.  1.
         11   -1    0    0    0    0 -0.00000000000E+00 -0.00000000000E+00 -0.45593999997E+02  0.45594000000E+02  0.51100000000E-03 0. -1.
    9900012    2    1    2    0    0 -0.14332940781E+02  0.79234809301E+01  0.37214926563E+02  0.50528862029E+02  0.30000006623E+02 0.  0.
         12    1    1    2    0    0  0.14332940781E+02 -0.79234809301E+01 -0.37214926563E+02  0.40659137971E+02  0.00000000000E+00 0. -1.
         11    1    3    3    0    0 -0.20413651566E+01  0.10602718672E+02  0.57207936737E+01  0.12219341040E+02  0.51100000000E-03 0. -1.
        -11    1    3    3    0    0 -0.54496687500E+01 -0.17872314844E+01  0.30851264488E+02  0.31379828022E+02  0.51100000000E-03 0.  1.
         12    1    3    3    0    0 -0.68419068746E+01 -0.89200625709E+00  0.64286840038E+00  0.69296929675E+01  0.00000000000E+00 0. -1.
</event>
<event>
 7    1  0.6136531E-013  0.5052886E+02  0.7816164E-02  0.1300439E+00
        -11   -1    0    0    0    0  0.00000000000E+00  0.00000000000E+00  0.45593999997E+02  0.45594000000E+02  0.51100000000E-03 0. -1.
         11   -1    0    0    0    0 -0.00000000000E+00 -0.00000000000E+00 -0.45593999997E+02  0.45594000000E+02  0.51100000000E-03 0.  1.
    9900012    2    1    2    0    0  0.22450764936E+02  0.20390320045E+02 -0.27080692210E+02  0.50528857261E+02  0.29999992130E+02 0.  0.
         12    1    1    2    0    0 -0.22450764936E+02 -0.20390320045E+02  0.27080692210E+02  0.40659142739E+02  0.00000000000E+00 0. -1.
         11    1    3    3    0    0  0.12779170915E+02  0.18148011157E+02 -0.85449591281E+00  0.22212331749E+02  0.51100000000E-03 0. -1.
        -11    1    3    3    0    0  0.86348773680E+01  0.31595559618E+01 -0.21307363008E+02  0.23206628787E+02  0.51100000000E-03 0.  1.
         12    1    3    3    0    0  0.10367166529E+01 -0.91724707404E+00 -0.49188332887E+01  0.51098967245E+01  0.00000000000E+00 0. -1.
</event>
<event>
 7    1  0.6136531E-013  0.5052886E+02  0.7816164E-02  0.1300439E+00
        -11   -1    0    0    0    0  0.00000000000E+00  0.00000000000E+00  0.45593999997E+02  0.45594000000E+02  0.51100000000E-03 0.  1.
         11   -1    0    0    0    0 -0.00000000000E+00 -0.00000000000E+00 -0.45593999997E+02  0.45594000000E+02  0.51100000000E-03 0. -1.
    9900012    2    1    2    0    0  0.23057662154E+02 -0.70672077363E+01  0.32734757046E+02  0.50528861691E+02  0.30000005596E+02 0.  0.
         12    1    1    2    0    0 -0.23057662154E+02  0.70672077363E+01 -0.32734757046E+02  0.40659138309E+02  0.00000000000E+00 0. -1.
         11    1    3    3    0    0  0.58009651319E+01  0.56556598366E+01  0.20586610871E+02  0.22123431742E+02  0.51100000000E-03 0. -1.
        -11    1    3    3    0    0  0.13173776944E+02 -0.13562970176E+02  0.14307472666E+02  0.23710890606E+02  0.51100000000E-03 0.  1.
         12    1    3    3    0    0  0.40829200785E+01  0.84010260359E+00 -0.21593264908E+01  0.46945393433E+01  0.00000000000E+00 0. -1.
</event>
<event>
 7    1  0.6136531E-013  0.5052886E+02  0.7816164E-02  0.1300439E+00
        -11   -1    0    0    0    0  0.00000000000E+00  0.00000000000E+00  0.45593999997E+02  0.45594000000E+02  0.51100000000E-03 0.  1.
         11   -1    0    0    0    0 -0.00000000000E+00 -0.00000000000E+00 -0.45593999997E+02  0.45594000000E+02  0.51100000000E-03 0. -1.
    9900012    2    1    2    0    0 -0.15998597337E+02 -0.10877884570E+02  0.35761463030E+02  0.50528859237E+02  0.29999998138E+02 0.  0.
         12    1    1    2    0    0  0.15998597337E+02  0.10877884570E+02 -0.35761463030E+02  0.40659140763E+02  0.00000000000E+00 0. -1.
         11    1    3    3    0    0  0.47720142958E+01 -0.25676703658E+01  0.75944426723E+01  0.93295557939E+01  0.51100000000E-03 0. -1.
        -11    1    3    3    0    0 -0.17935971254E+02  0.39346577849E+00  0.92512580395E+01  0.20185134523E+02  0.51100000000E-03 0.  1.
        -12    1    3    3    0    0 -0.28346403790E+01 -0.87036799824E+01  0.18915762319E+02  0.21014168920E+02  0.00000000000E+00 0.  1.
</event>
<event>
 7    1  0.6136531E-013  0.5052886E+02  0.7816164E-02  0.1300439E+00
        -11   -1    0    0    0    0  0.00000000000E+00  0.00000000000E+00  0.45593999997E+02  0.45594000000E+02  0.51100000000E-03 0.  1.
         11   -1    0    0    0    0 -0.00000000000E+00 -0.00000000000E+00 -0.45593999997E+02  0.45594000000E+02  0.51100000000E-03 0. -1.
    9900012    2    1    2    0    0 -0.28490450594E+02 -0.10305840756E+02  0.27115485530E+02  0.50528859770E+02  0.29999999756E+02 0.  0.
         12    1    1    2    0    0  0.28490450594E+02  0.10305840756E+02 -0.27115485530E+02  0.40659140230E+02  0.00000000000E+00 0. -1.
         11    1    3    3    0    0  0.14639129766E+01  0.34954478953E+01  0.32524687471E+01  0.49939714060E+01  0.51100000000E-03 0. -1.
        -11    1    3    3    0    0 -0.16680568701E+02 -0.13933841749E+02  0.23839900050E+02  0.32260411539E+02  0.51100000000E-03 0.  1.
        -12    1    3    3    0    0 -0.13273794870E+02  0.13255309743E+00  0.23116733432E-01  0.13274476824E+02  0.00000000000E+00 0.  1.
</event>
<event>
 7    1  0.6136531E-013  0.5052886E+02  0.7816164E-02  0.1300439E+00
        -11   -1    0    0    0    0  0.00000000000E+00  0.00000000000E+00  0.45593999997E+02  0.45594000000E+02  0.51100000000E-03 0.  1.
         11   -1    0    0    0    0 -0.00000000000E+00 -0.00000000000E+00 -0.45593999997E+02  0.45594000000E+02  0.51100000000E-03 0. -1.
    9900012    2    1    2    0    0 -0.16881595988E+02  0.19830017924E+02 -0.31224153301E+02  0.50528860273E+02  0.30000001286E+02 0.  0.
         12    1    1    2    0    0  0.16881595988E+02 -0.19830017924E+02  0.31224153301E+02  0.40659139727E+02  0.00000000000E+00 0. -1.
         11    1    3    3    0    0 -0.15585102128E+02  0.21555948271E+02 -0.29095411626E+02  0.39422040689E+02  0.51100000000E-03 0. -1.
        -11    1    3    3    0    0  0.38729883374E+01  0.19188364627E+01  0.29698238029E+00  0.43324555194E+01  0.51100000000E-03 0.  1.
         12    1    3    3    0    0 -0.51694821972E+01 -0.36447668094E+01 -0.24257240558E+01  0.67743640643E+01  0.00000000000E+00 0. -1.
</event>
<event>
 7    1  0.6136531E-013  0.5052882E+02  0.7816164E-02  0.1300439E+00
        -11   -1    0    0    0    0  0.00000000000E+00  0.00000000000E+00  0.45593999997E+02  0.45594000000E+02  0.51100000000E-03 0.  1.
         11   -1    0    0    0    0 -0.00000000000E+00 -0.00000000000E+00 -0.45593999997E+02  0.45594000000E+02  0.51100000000E-03 0. -1.
    9900012    2    1    2    0    0 -0.15503216599E+02 -0.34998114045E+02  0.13709544028E+02  0.50528815194E+02  0.29999864263E+02 0.  0.
         12    1    1    2    0    0  0.15503216599E+02  0.34998114045E+02 -0.13709544028E+02  0.40659184806E+02  0.00000000000E+00 0. -1.
         11    1    3    3    0    0 -0.26999291650E+01 -0.15209901862E+02 -0.79339032820E+01  0.17365988417E+02  0.51100000000E-03 0. -1.
        -11    1    3    3    0    0 -0.10224427342E+02 -0.20014994315E+02  0.18652433304E+02  0.29207057029E+02  0.51100000000E-03 0.  1.
        -12    1    3    3    0    0 -0.25788600917E+01  0.22678213212E+00  0.29910140061E+01  0.39557697472E+01  0.00000000000E+00 0.  1.
</event>
<event>
 7    1  0.6136531E-013  0.5052887E+02  0.7816164E-02  0.1300439E+00
        -11   -1    0    0    0    0  0.00000000000E+00  0.00000000000E+00  0.45593999997E+02  0.45594000000E+02  0.51100000000E-03 0. -1.
         11   -1    0    0    0    0 -0.00000000000E+00 -0.00000000000E+00 -0.45593999997E+02  0.45594000000E+02  0.51100000000E-03 0.  1.
    9900012    2    1    2    0    0 -0.22467697350E+02  0.20651047809E+02  0.26868232860E+02  0.50528866501E+02  0.30000020217E+02 0.  0.
         12    1    1    2    0    0  0.22467697350E+02 -0.20651047809E+02 -0.26868232860E+02  0.40659133499E+02  0.00000000000E+00 0. -1.
         11    1    3    3    0    0 -0.64598211285E+01  0.15045895570E+02  0.22609188087E+02  0.27915652396E+02  0.51100000000E-03 0. -1.
        -11    1    3    3    0    0 -0.13934409892E+02 -0.12542168437E+01 -0.51912391354E+00  0.14000368882E+02  0.51100000000E-03 0.  1.
        -12    1    3    3    0    0 -0.20734663299E+01  0.68593690835E+01  0.47781686866E+01  0.86128452233E+01  0.00000000000E+00 0.  1.
</event>
<event>
 7    1  0.6136531E-013  0.5052888E+02  0.7816164E-02  0.1300439E+00
        -11   -1    0    0    0    0  0.00000000000E+00  0.00000000000E+00  0.45593999997E+02  0.45594000000E+02  0.51100000000E-03 0.  1.
         11   -1    0    0    0    0 -0.00000000000E+00 -0.00000000000E+00 -0.45593999997E+02  0.45594000000E+02  0.51100000000E-03 0. -1.
    9900012    2    1    2    0    0 -0.36402485573E+02  0.16975179668E+02 -0.63139634833E+01  0.50528882750E+02  0.30000069606E+02 0.  0.
         12    1    1    2    0    0  0.36402485573E+02 -0.16975179668E+02  0.63139634833E+01  0.40659117250E+02  0.00000000000E+00 0. -1.
         11    1    3    3    0    0 -0.13755612204E+02  0.10028566415E+00 -0.74885414480E+01  0.15662221350E+02  0.51100000000E-03 0. -1.
        -11    1    3    3    0    0 -0.59505884022E+01  0.12713194458E+02  0.82272206004E+01  0.16270278876E+02  0.51100000000E-03 0.  1.
        -12    1    3    3    0    0 -0.16696284967E+02  0.41616995465E+01 -0.70526426357E+01  0.18596382524E+02  0.00000000000E+00 0.  1.
</event>
<event>
 7    1  0.6136531E-013  0.5052886E+02  0.7816164E-02  0.1300439E+00
        -11   -1    0    0    0    0  0.00000000000E+00  0.00000000000E+00  0.45593999997E+02  0.45594000000E+02  0.51100000000E-03 0.  1.
         11   -1    0    0    0    0 -0.00000000000E+00 -0.00000000000E+00 -0.45593999997E+02  0.45594000000E+02  0.51100000000E-03 0. -1.
    9900012    2    1    2    0    0  0.35445268435E+02  0.16368672414E+02  0.11351895500E+02  0.50528855611E+02  0.29999987115E+02 0.  0.
         12    1    1    2    0    0 -0.35445268435E+02 -0.16368672414E+02 -0.11351895500E+02  0.40659144389E+02  0.00000000000E+00 0. -1.
         11    1    3    3    0    0  0.16774412935E+02  0.21241919640E+02  0.26934747431E+01  0.27200273634E+02  0.51100000000E-03 0. -1.
        -11    1    3    3    0    0  0.19363361133E+02 -0.43186827795E+01  0.63104109092E+01  0.20818550896E+02  0.51100000000E-03 0.  1.
         12    1    3    3    0    0 -0.69250563383E+00 -0.55456444632E+00  0.23480098477E+01  0.25100310801E+01  0.00000000000E+00 0. -1.
</event>
<event>
 7    1  0.6136531E-013  0.5052886E+02  0.7816164E-02  0.1300439E+00
        -11   -1    0    0    0    0  0.00000000000E+00  0.00000000000E+00  0.45593999997E+02  0.45594000000E+02  0.51100000000E-03 0. -1.
         11   -1    0    0    0    0 -0.00000000000E+00 -0.00000000000E+00 -0.45593999997E+02  0.45594000000E+02  0.51100000000E-03 0.  1.
    9900012    2    1    2    0    0 -0.20523993586E+02 -0.26764742982E+02 -0.22706386091E+02  0.50528858975E+02  0.29999997339E+02 0.  0.
         12    1    1    2    0    0  0.20523993586E+02  0.26764742982E+02  0.22706386091E+02  0.40659141025E+02  0.00000000000E+00 0. -1.
         11    1    3    3    0    0 -0.21117249972E+02 -0.19284748893E+02 -0.93064507147E+01  0.30074072079E+02  0.51100000000E-03 0. -1.
        -11    1    3    3    0    0 -0.11256397403E+01 -0.81934399725E+01 -0.15549131490E+02  0.17611786217E+02  0.51100000000E-03 0.  1.
         12    1    3    3    0    0  0.17188961264E+01  0.71344588324E+00  0.21491961139E+01  0.28430006785E+01  0.00000000000E+00 0. -1.
</event>
<event>
 7    1  0.6136531E-013  0.5052886E+02  0.7816164E-02  0.1300439E+00
        -11   -1    0    0    0    0  0.00000000000E+00  0.00000000000E+00  0.45593999997E+02  0.45594000000E+02  0.51100000000E-03 0.  1.
         11   -1    0    0    0    0 -0.00000000000E+00 -0.00000000000E+00 -0.45593999997E+02  0.45594000000E+02  0.51100000000E-03 0. -1.
    9900012    2    1    2    0    0  0.73573869907E+01 -0.19732442965E+02  0.34780238325E+02  0.50528862938E+02  0.30000009386E+02 0.  0.
         12    1    1    2    0    0 -0.73573869907E+01  0.19732442965E+02 -0.34780238325E+02  0.40659137062E+02  0.00000000000E+00 0. -1.
         11    1    3    3    0    0 -0.30064314196E+01 -0.98010998004E+00  0.78990597415E-01  0.31631448322E+01  0.51100000000E-03 0. -1.
        -11    1    3    3    0    0  0.14784192259E+02 -0.46172964441E+01  0.25783765933E+02  0.30078137462E+02  0.51100000000E-03 0.  1.
         12    1    3    3    0    0 -0.44203738488E+01 -0.14135036541E+02  0.89174817941E+01  0.17287580644E+02  0.00000000000E+00 0. -1.
</event>
<event>
 7    1  0.6136531E-013  0.5052885E+02  0.7816164E-02  0.1300439E+00
        -11   -1    0    0    0    0  0.00000000000E+00  0.00000000000E+00  0.45593999997E+02  0.45594000000E+02  0.51100000000E-03 0. -1.
         11   -1    0    0    0    0 -0.00000000000E+00 -0.00000000000E+00 -0.45593999997E+02  0.45594000000E+02  0.51100000000E-03 0.  1.
    9900012    2    1    2    0    0 -0.18570337442E+02  0.32832670156E+02 -0.15176457519E+02  0.50528849429E+02  0.29999968325E+02 0.  0.
         12    1    1    2    0    0  0.18570337442E+02 -0.32832670156E+02  0.15176457519E+02  0.40659150571E+02  0.00000000000E+00 0. -1.
         11    1    3    3    0    0 -0.36663215899E+01  0.92616621583E+01  0.74936601864E+01  0.12464960617E+02  0.51100000000E-03 0. -1.
        -11    1    3    3    0    0 -0.12450074598E+02  0.19456386797E+02 -0.23774015185E+02  0.33147536002E+02  0.51100000000E-03 0.  1.
        -12    1    3    3    0    0 -0.24539412542E+01  0.41146212012E+01  0.11038974803E+01  0.49163528103E+01  0.00000000000E+00 0.  1.
</event>
<event>
 7    1  0.6136531E-013  0.5052886E+02  0.7816164E-02  0.1300439E+00
        -11   -1    0    0    0    0  0.00000000000E+00  0.00000000000E+00  0.45593999997E+02  0.45594000000E+02  0.51100000000E-03 0.  1.
         11   -1    0    0    0    0 -0.00000000000E+00 -0.00000000000E+00 -0.45593999997E+02  0.45594000000E+02  0.51100000000E-03 0. -1.
    9900012    2    1    2    0    0  0.87867786056E+01  0.11370044356E+02  0.38035246325E+02  0.50528863882E+02  0.30000012254E+02 0.  0.
         12    1    1    2    0    0 -0.87867786056E+01 -0.11370044356E+02 -0.38035246325E+02  0.40659136118E+02  0.00000000000E+00 0. -1.
         11    1    3    3    0    0  0.51070069935E+01 -0.69714333016E+01  0.31810020089E+01  0.92087554399E+01  0.51100000000E-03 0. -1.
        -11    1    3    3    0    0  0.64615104179E+01  0.40439637133E+01  0.11567069685E+02  0.13852864713E+02  0.51100000000E-03 0.  1.
         12    1    3    3    0    0 -0.27817388058E+01  0.14297513944E+02  0.23287174631E+02  0.27467243729E+02  0.00000000000E+00 0. -1.
</event>
<event>
 7    1  0.6136531E-013  0.5052886E+02  0.7816164E-02  0.1300439E+00
        -11   -1    0    0    0    0  0.00000000000E+00  0.00000000000E+00  0.45593999997E+02  0.45594000000E+02  0.51100000000E-03 0.  1.
         11   -1    0    0    0    0 -0.00000000000E+00 -0.00000000000E+00 -0.45593999997E+02  0.45594000000E+02  0.51100000000E-03 0. -1.
    9900012    2    1    2    0    0  0.23235141873E+02  0.33311653611E+02 -0.19046784088E+01  0.50528857314E+02  0.29999992291E+02 0.  0.
         12    1    1    2    0    0 -0.23235141873E+02 -0.33311653611E+02  0.19046784088E+01  0.40659142686E+02  0.00000000000E+00 0. -1.
         11    1    3    3    0    0 -0.48218209058E+01  0.48495274574E+01  0.13059058420E+00  0.68399508456E+01  0.51100000000E-03 0.  1.
        -11    1    3    3    0    0  0.16181131387E+02  0.65270159497E+01 -0.59612541615E+01  0.18438207657E+02  0.51100000000E-03 0. -1.
        -12    1    3    3    0    0  0.11875831392E+02  0.21935110204E+02  0.39259851684E+01  0.25250698811E+02  0.00000000000E+00 0.  1.
</event>
<event>
 7    1  0.6136531E-013  0.5052885E+02  0.7816164E-02  0.1300439E+00
        -11   -1    0    0    0    0  0.00000000000E+00  0.00000000000E+00  0.45593999997E+02  0.45594000000E+02  0.51100000000E-03 0.  1.
         11   -1    0    0    0    0 -0.00000000000E+00 -0.00000000000E+00 -0.45593999997E+02  0.45594000000E+02  0.51100000000E-03 0. -1.
    9900012    2    1    2    0    0 -0.11141881244E+02 -0.14714537170E+02  0.36228538168E+02  0.50528854662E+02  0.29999984232E+02 0.  0.
         12    1    1    2    0    0  0.11141881244E+02  0.14714537170E+02 -0.36228538168E+02  0.40659145338E+02  0.00000000000E+00 0. -1.
         11    1    3    3    0    0 -0.98879401857E+01 -0.12026729435E+02  0.24298308313E+02  0.28858644618E+02  0.51100000000E-03 0. -1.
        -11    1    3    3    0    0 -0.70999834316E+01  0.47635214848E+01  0.47135923436E+01  0.97631375442E+01  0.51100000000E-03 0.  1.
         12    1    3    3    0    0  0.58460423731E+01 -0.74513292193E+01  0.72166375112E+01  0.11907072500E+02  0.00000000000E+00 0. -1.
</event>
<event>
 7    1  0.6136531E-013  0.5052884E+02  0.7816164E-02  0.1300439E+00
        -11   -1    0    0    0    0  0.00000000000E+00  0.00000000000E+00  0.45593999997E+02  0.45594000000E+02  0.51100000000E-03 0.  1.
         11   -1    0    0    0    0 -0.00000000000E+00 -0.00000000000E+00 -0.45593999997E+02  0.45594000000E+02  0.51100000000E-03 0. -1.
    9900012    2    1    2    0    0 -0.11213651723E+02  0.37067033184E+02  0.12387753500E+02  0.50528839029E+02  0.29999936714E+02 0.  0.
         12    1    1    2    0    0  0.11213651723E+02 -0.37067033184E+02 -0.12387753500E+02  0.40659160971E+02  0.00000000000E+00 0. -1.
         11    1    3    3    0    0 -0.19444731163E+01  0.34355533539E+01 -0.29307662105E+01  0.49166445254E+01  0.51100000000E-03 0. -1.
        -11    1    3    3    0    0 -0.80770354007E+00  0.32661499373E+01  0.13636176792E+02  0.14045121508E+02  0.51100000000E-03 0.  1.
        -12    1    3    3    0    0 -0.84614750668E+01  0.30365329893E+02  0.16823429188E+01  0.31567072996E+02  0.00000000000E+00 0.  1.
</event>
<event>
 7    1  0.6136531E-013  0.5052886E+02  0.7816164E-02  0.1300439E+00
        -11   -1    0    0    0    0  0.00000000000E+00  0.00000000000E+00  0.45593999997E+02  0.45594000000E+02  0.51100000000E-03 0.  1.
         11   -1    0    0    0    0 -0.00000000000E+00 -0.00000000000E+00 -0.45593999997E+02  0.45594000000E+02  0.51100000000E-03 0. -1.
    9900012    2    1    2    0    0 -0.25249981555E+02  0.31778589737E+02  0.23927268780E+01  0.50528862330E+02  0.30000007537E+02 0.  0.
         12    1    1    2    0    0  0.25249981555E+02 -0.31778589737E+02 -0.23927268780E+01  0.40659137670E+02  0.00000000000E+00 0. -1.
         11    1    3    3    0    0 -0.50177584356E+01  0.23325026899E+01  0.69065224535E+00  0.55763311686E+01  0.51100000000E-03 0. -1.
        -11    1    3    3    0    0 -0.31289923515E+01 -0.72017873744E+00  0.89650460482E+01  0.95226730206E+01  0.51100000000E-03 0.  1.
        -12    1    3    3    0    0 -0.17103230767E+02  0.30166265785E+02 -0.72629714155E+01  0.35429858140E+02  0.00000000000E+00 0.  1.
</event>
<event>
 7    1  0.6136531E-013  0.5052886E+02  0.7816164E-02  0.1300439E+00
        -11   -1    0    0    0    0  0.00000000000E+00  0.00000000000E+00  0.45593999997E+02  0.45594000000E+02  0.51100000000E-03 0.  1.
         11   -1    0    0    0    0 -0.00000000000E+00 -0.00000000000E+00 -0.45593999997E+02  0.45594000000E+02  0.51100000000E-03 0. -1.
    9900012    2    1    2    0    0 -0.39257897953E+02 -0.33157550853E+00  0.10576997055E+02  0.50528863748E+02  0.30000011850E+02 0.  0.
         12    1    1    2    0    0  0.39257897953E+02  0.33157550853E+00 -0.10576997055E+02  0.40659136252E+02  0.00000000000E+00 0. -1.
         11    1    3    3    0    0 -0.18422823008E+02 -0.13215661878E+02  0.67949817208E+01  0.23669091729E+02  0.51100000000E-03 0. -1.
        -11    1    3    3    0    0 -0.11732446580E+02  0.30968974331E+01 -0.19979301370E+01  0.12297674640E+02  0.51100000000E-03 0.  1.
         12    1    3    3    0    0 -0.91026283658E+01  0.97871889359E+01  0.57799454714E+01  0.14562097379E+02  0.00000000000E+00 0. -1.
</event>
<event>
 7    1  0.6136531E-013  0.5052886E+02  0.7816164E-02  0.1300439E+00
        -11   -1    0    0    0    0  0.00000000000E+00  0.00000000000E+00  0.45593999997E+02  0.45594000000E+02  0.51100000000E-03 0. -1.
         11   -1    0    0    0    0 -0.00000000000E+00 -0.00000000000E+00 -0.45593999997E+02  0.45594000000E+02  0.51100000000E-03 0.  1.
    9900012    2    1    2    0    0 -0.26110295944E+02  0.26278657305E+02 -0.16758592680E+02  0.50528858191E+02  0.29999994956E+02 0.  0.
         12    1    1    2    0    0  0.26110295944E+02 -0.26278657305E+02  0.16758592680E+02  0.40659141809E+02  0.00000000000E+00 0. -1.
         11    1    3    3    0    0 -0.25093098453E+02  0.14217115281E+02 -0.50906383487E+01  0.29286593451E+02  0.51100000000E-03 0. -1.
        -11    1    3    3    0    0 -0.29313793770E+01  0.10157413206E+02 -0.14089974625E+02  0.17615147268E+02  0.51100000000E-03 0.  1.
         12    1    3    3    0    0  0.19141818860E+01  0.19041288176E+01  0.24220202937E+01  0.36271174712E+01  0.00000000000E+00 0. -1.
</event>
<event>
 7    1  0.6136531E-013  0.5052886E+02  0.7816164E-02  0.1300439E+00
        -11   -1    0    0    0    0  0.00000000000E+00  0.00000000000E+00  0.45593999997E+02  0.45594000000E+02  0.51100000000E-03 0.  1.
         11   -1    0    0    0    0 -0.00000000000E+00 -0.00000000000E+00 -0.45593999997E+02  0.45594000000E+02  0.51100000000E-03 0. -1.
    9900012    2    1    2    0    0 -0.17476564768E+02  0.34433024327E+02  0.12731925654E+02  0.50528863127E+02  0.30000009960E+02 0.  0.
         12    1    1    2    0    0  0.17476564768E+02 -0.34433024327E+02 -0.12731925654E+02  0.40659136873E+02  0.00000000000E+00 0. -1.
         11    1    3    3    0    0  0.52649944236E+01 -0.17761764602E+00  0.13472080700E+01  0.54375255543E+01  0.51100000000E-03 0. -1.
        -11    1    3    3    0    0 -0.14456120438E+02  0.30008528590E+02  0.12437368512E+02  0.35555299774E+02  0.51100000000E-03 0.  1.
         12    1    3    3    0    0 -0.82854387527E+01  0.46021133830E+01 -0.10526509272E+01  0.95360377983E+01  0.00000000000E+00 0. -1.
</event>
<event>
 7    1  0.6136531E-013  0.5052886E+02  0.7816164E-02  0.1300439E+00
        -11   -1    0    0    0    0  0.00000000000E+00  0.00000000000E+00  0.45593999997E+02  0.45594000000E+02  0.51100000000E-03 0.  1.
         11   -1    0    0    0    0 -0.00000000000E+00 -0.00000000000E+00 -0.45593999997E+02  0.45594000000E+02  0.51100000000E-03 0. -1.
    9900012    2    1    2    0    0  0.40602248443E+02  0.21461172530E+01 -0.13123972765E+00  0.50528860538E+02  0.30000002092E+02 0.  0.
         12    1    1    2    0    0 -0.40602248443E+02 -0.21461172530E+01  0.13123972765E+00  0.40659139462E+02  0.00000000000E+00 0. -1.
         11    1    3    3    0    0  0.17808834045E+02  0.93837390288E+01  0.93941583382E+01  0.22213944705E+02  0.51100000000E-03 0. -1.
        -11    1    3    3    0    0  0.11910052456E+02 -0.87424641437E+01 -0.17993670841E+01  0.14883472410E+02  0.51100000000E-03 0.  1.
         12    1    3    3    0    0  0.10883361942E+02  0.15048423679E+01 -0.77260309817E+01  0.13431443424E+02  0.00000000000E+00 0. -1.
</event>
<event>
 7    1  0.6136531E-013  0.5052887E+02  0.7816164E-02  0.1300439E+00
        -11   -1    0    0    0    0  0.00000000000E+00  0.00000000000E+00  0.45593999997E+02  0.45594000000E+02  0.51100000000E-03 0. -1.
         11   -1    0    0    0    0 -0.00000000000E+00 -0.00000000000E+00 -0.45593999997E+02  0.45594000000E+02  0.51100000000E-03 0.  1.
    9900012    2    1    2    0    0 -0.51269749376E+01  0.21826472479E+02 -0.33918781632E+02  0.50528874084E+02  0.30000043265E+02 0.  0.
         12    1    1    2    0    0  0.51269749376E+01 -0.21826472479E+02  0.33918781632E+02  0.40659125916E+02  0.00000000000E+00 0. -1.
         11    1    3    3    0    0 -0.32569092690E+01  0.14259050789E+01  0.43242813086E+01  0.55982204652E+01  0.51100000000E-03 0. -1.
        -11    1    3    3    0    0  0.47651148162E+01  0.87457141040E+01 -0.19333473949E+02  0.21748035534E+02  0.51100000000E-03 0.  1.
         12    1    3    3    0    0 -0.66351804848E+01  0.11654853296E+02 -0.18909588992E+02  0.23182618085E+02  0.00000000000E+00 0. -1.
</event>
<event>
 7    1  0.6136531E-013  0.5052883E+02  0.7816164E-02  0.1300439E+00
        -11   -1    0    0    0    0  0.00000000000E+00  0.00000000000E+00  0.45593999997E+02  0.45594000000E+02  0.51100000000E-03 0.  1.
         11   -1    0    0    0    0 -0.00000000000E+00 -0.00000000000E+00 -0.45593999997E+02  0.45594000000E+02  0.51100000000E-03 0. -1.
    9900012    2    1    2    0    0  0.35242841346E+02 -0.76181853766E+01  0.18790244443E+02  0.50528832513E+02  0.29999916906E+02 0.  0.
         12    1    1    2    0    0 -0.35242841346E+02  0.76181853766E+01 -0.18790244443E+02  0.40659167487E+02  0.00000000000E+00 0. -1.
         11    1    3    3    0    0  0.14545266425E+02 -0.83405493828E+01 -0.29223423498E+01  0.17019683442E+02  0.51100000000E-03 0. -1.
        -11    1    3    3    0    0  0.52523065922E+01 -0.48978324201E+01  0.13133611489E+02  0.14968875641E+02  0.51100000000E-03 0.  1.
         12    1    3    3    0    0  0.15445268328E+02  0.56201964262E+01  0.85789753032E+01  0.18540273430E+02  0.00000000000E+00 0. -1.
</event>
<event>
 7    1  0.6136531E-013  0.5052886E+02  0.7816164E-02  0.1300439E+00
        -11   -1    0    0    0    0  0.00000000000E+00  0.00000000000E+00  0.45593999997E+02  0.45594000000E+02  0.51100000000E-03 0.  1.
         11   -1    0    0    0    0 -0.00000000000E+00 -0.00000000000E+00 -0.45593999997E+02  0.45594000000E+02  0.51100000000E-03 0. -1.
    9900012    2    1    2    0    0 -0.25859506779E+02 -0.25739887477E+02  0.17941834161E+02  0.50528864357E+02  0.30000013699E+02 0.  0.
         12    1    1    2    0    0  0.25859506779E+02  0.25739887477E+02 -0.17941834161E+02  0.40659135643E+02  0.00000000000E+00 0. -1.
         11    1    3    3    0    0 -0.20179826127E+02 -0.13449011748E+02 -0.37961934698E+01  0.24546127691E+02  0.51100000000E-03 0. -1.
        -11    1    3    3    0    0 -0.61586311714E+01 -0.92976332758E+01  0.17931708607E+02  0.21116839164E+02  0.51100000000E-03 0.  1.
         12    1    3    3    0    0  0.47895051950E+00 -0.29932424538E+01  0.38063190237E+01  0.48658975018E+01  0.00000000000E+00 0. -1.
</event>
<event>
 7    1  0.6136531E-013  0.5052888E+02  0.7816164E-02  0.1300439E+00
        -11   -1    0    0    0    0  0.00000000000E+00  0.00000000000E+00  0.45593999997E+02  0.45594000000E+02  0.51100000000E-03 0.  1.
         11   -1    0    0    0    0 -0.00000000000E+00 -0.00000000000E+00 -0.45593999997E+02  0.45594000000E+02  0.51100000000E-03 0. -1.
    9900012    2    1    2    0    0  0.20961379880E+02  0.26910777870E+02  0.22126792446E+02  0.50528876103E+02  0.30000049404E+02 0.  0.
         12    1    1    2    0    0 -0.20961379880E+02 -0.26910777870E+02 -0.22126792446E+02  0.40659123897E+02  0.00000000000E+00 0. -1.
         11    1    3    3    0    0  0.52643487018E+01  0.21287989320E+02  0.22986512166E+02  0.31769035213E+02  0.51100000000E-03 0. -1.
        -11    1    3    3    0    0  0.40094226566E+01  0.54842894983E+01  0.11784340129E+01  0.68950423004E+01  0.51100000000E-03 0.  1.
         12    1    3    3    0    0  0.11687608522E+02  0.13849905260E+00 -0.20381537330E+01  0.11864798590E+02  0.00000000000E+00 0. -1.
</event>
<event>
 7    1  0.6136531E-013  0.5052887E+02  0.7816164E-02  0.1300439E+00
        -11   -1    0    0    0    0  0.00000000000E+00  0.00000000000E+00  0.45593999997E+02  0.45594000000E+02  0.51100000000E-03 0. -1.
         11   -1    0    0    0    0 -0.00000000000E+00 -0.00000000000E+00 -0.45593999997E+02  0.45594000000E+02  0.51100000000E-03 0.  1.
    9900012    2    1    2    0    0 -0.12331729575E+01  0.93403860544E+01 -0.39552512285E+02  0.50528871194E+02  0.30000034481E+02 0.  0.
         12    1    1    2    0    0  0.12331729575E+01 -0.93403860544E+01  0.39552512285E+02  0.40659128806E+02  0.00000000000E+00 0. -1.
         11    1    3    3    0    0 -0.18589912357E+01  0.14503872307E+02 -0.68042758113E+01  0.16128122330E+02  0.51100000000E-03 0. -1.
        -11    1    3    3    0    0  0.33885032760E+00 -0.54517604073E+00 -0.27062348852E+02  0.27069960512E+02  0.51100000000E-03 0.  1.
         12    1    3    3    0    0  0.28696795059E+00 -0.46183102116E+01 -0.56858876222E+01  0.73307883524E+01  0.00000000000E+00 0. -1.
</event>
<event>
 7    1  0.6136531E-013  0.5052876E+02  0.7816164E-02  0.1300439E+00
        -11   -1    0    0    0    0  0.00000000000E+00  0.00000000000E+00  0.45593999997E+02  0.45594000000E+02  0.51100000000E-03 0.  1.
         11   -1    0    0    0    0 -0.00000000000E+00 -0.00000000000E+00 -0.45593999997E+02  0.45594000000E+02  0.51100000000E-03 0. -1.
    9900012    2    1    2    0    0 -0.15623562224E+02  0.66908998849E+00  0.37531722291E+02  0.50528762967E+02  0.29999705514E+02 0.  0.
         12    1    1    2    0    0  0.15623562224E+02 -0.66908998849E+00 -0.37531722291E+02  0.40659237033E+02  0.00000000000E+00 0. -1.
         11    1    3    3    0    0 -0.22048110001E+02  0.22659098885E+00  0.26578229740E+02  0.34533647281E+02  0.51100000000E-03 0. -1.
        -11    1    3    3    0    0  0.35330044107E+01 -0.20428447915E+01  0.11444851375E+02  0.12150718426E+02  0.51100000000E-03 0.  1.
         12    1    3    3    0    0  0.28915433671E+01  0.24853437912E+01 -0.49135882456E+00  0.38443972608E+01  0.00000000000E+00 0. -1.
</event>
<event>
 7    1  0.6136531E-013  0.5052886E+02  0.7816164E-02  0.1300439E+00
        -11   -1    0    0    0    0  0.00000000000E+00  0.00000000000E+00  0.45593999997E+02  0.45594000000E+02  0.51100000000E-03 0. -1.
         11   -1    0    0    0    0 -0.00000000000E+00 -0.00000000000E+00 -0.45593999997E+02  0.45594000000E+02  0.51100000000E-03 0.  1.
    9900012    2    1    2    0    0  0.35390120510E+02 -0.11118208914E+02  0.16646024553E+02  0.50528864095E+02  0.30000012903E+02 0.  0.
         12    1    1    2    0    0 -0.35390120510E+02  0.11118208914E+02 -0.16646024553E+02  0.40659135905E+02  0.00000000000E+00 0. -1.
         11    1    3    3    0    0 -0.26070185475E+01  0.17305526705E+01  0.31537697771E+01  0.44427043926E+01  0.51100000000E-03 0. -1.
        -11    1    3    3    0    0  0.26690244364E+02 -0.17104795172E+02  0.12071862081E+02  0.33921571550E+02  0.51100000000E-03 0.  1.
         12    1    3    3    0    0  0.11306894693E+02  0.42560335876E+01  0.14203926948E+01  0.12164588152E+02  0.00000000000E+00 0. -1.
</event>
<event>
 7    1  0.6136531E-013  0.5052886E+02  0.7816164E-02  0.1300439E+00
        -11   -1    0    0    0    0  0.00000000000E+00  0.00000000000E+00  0.45593999997E+02  0.45594000000E+02  0.51100000000E-03 0.  1.
         11   -1    0    0    0    0 -0.00000000000E+00 -0.00000000000E+00 -0.45593999997E+02  0.45594000000E+02  0.51100000000E-03 0. -1.
    9900012    2    1    2    0    0  0.16352047203E+02  0.74966918201E+01  0.36463350367E+02  0.50528858888E+02  0.29999997076E+02 0.  0.
         12    1    1    2    0    0 -0.16352047203E+02 -0.74966918201E+01 -0.36463350367E+02  0.40659141112E+02  0.00000000000E+00 0. -1.
         11    1    3    3    0    0  0.18541111716E+02  0.52952975644E+01  0.11129357506E+02  0.22263773236E+02  0.51100000000E-03 0. -1.
        -11    1    3    3    0    0 -0.25514392968E+01  0.21556156557E+01  0.26670870910E+02  0.26879209005E+02  0.51100000000E-03 0.  1.
        -12    1    3    3    0    0  0.36237478408E+00  0.45778599932E-01 -0.13368780488E+01  0.13858766474E+01  0.00000000000E+00 0.  1.
</event>
<event>
 7    1  0.6136531E-013  0.5052886E+02  0.7816164E-02  0.1300439E+00
        -11   -1    0    0    0    0  0.00000000000E+00  0.00000000000E+00  0.45593999997E+02  0.45594000000E+02  0.51100000000E-03 0.  1.
         11   -1    0    0    0    0 -0.00000000000E+00 -0.00000000000E+00 -0.45593999997E+02  0.45594000000E+02  0.51100000000E-03 0. -1.
    9900012    2    1    2    0    0  0.22440512916E+02 -0.26395923079E+02  0.21280142506E+02  0.50528857852E+02  0.29999993928E+02 0.  0.
         12    1    1    2    0    0 -0.22440512916E+02  0.26395923079E+02 -0.21280142506E+02  0.40659142148E+02  0.00000000000E+00 0. -1.
         11    1    3    3    0    0  0.76398446576E+00 -0.17766937145E+02  0.46847399653E+01  0.18390065704E+02  0.51100000000E-03 0. -1.
        -11    1    3    3    0    0  0.15572262468E+02 -0.41454225792E+00  0.15279351731E+02  0.21820306901E+02  0.51100000000E-03 0.  1.
        -12    1    3    3    0    0  0.61042659814E+01 -0.82144436759E+01  0.13160508103E+01  0.10318485248E+02  0.00000000000E+00 0.  1.
</event>
<event>
 7    1  0.6136531E-013  0.5052886E+02  0.7816164E-02  0.1300439E+00
        -11   -1    0    0    0    0  0.00000000000E+00  0.00000000000E+00  0.45593999997E+02  0.45594000000E+02  0.51100000000E-03 0. -1.
         11   -1    0    0    0    0 -0.00000000000E+00 -0.00000000000E+00 -0.45593999997E+02  0.45594000000E+02  0.51100000000E-03 0.  1.
    9900012    2    1    2    0    0 -0.40439054245E+02 -0.32923466826E+01 -0.26474425103E+01  0.50528860723E+02  0.30000002654E+02 0.  0.
         12    1    1    2    0    0  0.40439054245E+02  0.32923466826E+01  0.26474425103E+01  0.40659139277E+02  0.00000000000E+00 0. -1.
         11    1    3    3    0    0  0.41685320225E+01 -0.21743501529E+01 -0.30763472268E+01  0.56185736919E+01  0.51100000000E-03 0. -1.
        -11    1    3    3    0    0 -0.19704972515E+02  0.90980809536E+00  0.22772254945E+01  0.19856974814E+02  0.51100000000E-03 0.  1.
         12    1    3    3    0    0 -0.24902613753E+02 -0.20278046250E+01 -0.18483207780E+01  0.25053312217E+02  0.00000000000E+00 0. -1.
</event>
<event>
 7    1  0.6136531E-013  0.5052884E+02  0.7816164E-02  0.1300439E+00
        -11   -1    0    0    0    0  0.00000000000E+00  0.00000000000E+00  0.45593999997E+02  0.45594000000E+02  0.51100000000E-03 0.  1.
         11   -1    0    0    0    0 -0.00000000000E+00 -0.00000000000E+00 -0.45593999997E+02  0.45594000000E+02  0.51100000000E-03 0. -1.
    9900012    2    1    2    0    0  0.21578792834E+02 -0.19322955181E+02  0.28533256076E+02  0.50528836219E+02  0.29999928170E+02 0.  0.
         12    1    1    2    0    0 -0.21578792834E+02  0.19322955181E+02 -0.28533256076E+02  0.40659163781E+02  0.00000000000E+00 0. -1.
         11    1    3    3    0    0  0.11341924854E+02 -0.19572701364E+02  0.65073452277E+01  0.23538807112E+02  0.51100000000E-03 0.  1.
        -11    1    3    3    0    0  0.79276554197E+01  0.39473462876E+01  0.68376428742E+01  0.11188504078E+02  0.51100000000E-03 0. -1.
        -12    1    3    3    0    0  0.23092125604E+01 -0.36976001046E+01  0.15188267974E+02  0.15801525029E+02  0.00000000000E+00 0.  1.
</event>
<event>
 7    1  0.6136531E-013  0.5052885E+02  0.7816164E-02  0.1300439E+00
        -11   -1    0    0    0    0  0.00000000000E+00  0.00000000000E+00  0.45593999997E+02  0.45594000000E+02  0.51100000000E-03 0.  1.
         11   -1    0    0    0    0 -0.00000000000E+00 -0.00000000000E+00 -0.45593999997E+02  0.45594000000E+02  0.51100000000E-03 0. -1.
    9900012    2    1    2    0    0  0.20796276934E+02 -0.34558944838E+02  0.51342623432E+01  0.50528850323E+02  0.29999971042E+02 0.  0.
         12    1    1    2    0    0 -0.20796276934E+02  0.34558944838E+02 -0.51342623432E+01  0.40659149677E+02  0.00000000000E+00 0. -1.
         11    1    3    3    0    0  0.57518614611E+01 -0.16982919505E+02 -0.76563449452E+01  0.19496745456E+02  0.51100000000E-03 0. -1.
        -11    1    3    3    0    0  0.17948373704E+02 -0.15418015006E+02  0.13646031616E+02  0.27314345763E+02  0.51100000000E-03 0.  1.
         12    1    3    3    0    0 -0.29039582308E+01 -0.21580103274E+01 -0.85542432738E+00  0.37177591045E+01  0.00000000000E+00 0. -1.
</event>
<event>
 7    1  0.6136531E-013  0.5052887E+02  0.7816164E-02  0.1300439E+00
        -11   -1    0    0    0    0  0.00000000000E+00  0.00000000000E+00  0.45593999997E+02  0.45594000000E+02  0.51100000000E-03 0. -1.
         11   -1    0    0    0    0 -0.00000000000E+00 -0.00000000000E+00 -0.45593999997E+02  0.45594000000E+02  0.51100000000E-03 0.  1.
    9900012    2    1    2    0    0 -0.56546655024E+01  0.14639247913E+02 -0.37508427259E+02  0.50528868962E+02  0.30000027696E+02 0.  0.
         12    1    1    2    0    0  0.56546655024E+01 -0.14639247913E+02  0.37508427259E+02  0.40659131038E+02  0.00000000000E+00 0. -1.
         11    1    3    3    0    0  0.62704017809E+01  0.23887746870E+01 -0.30218225292E+01  0.73590484886E+01  0.51100000000E-03 0. -1.
        -11    1    3    3    0    0 -0.14416194048E+02  0.15796698098E+02 -0.26215796569E+02  0.33832385545E+02  0.51100000000E-03 0.  1.
        -12    1    3    3    0    0  0.24911267652E+01 -0.35462248728E+01 -0.82708081608E+01  0.93374349284E+01  0.00000000000E+00 0.  1.
</event>
<event>
 7    1  0.6136531E-013  0.5052886E+02  0.7816164E-02  0.1300439E+00
        -11   -1    0    0    0    0  0.00000000000E+00  0.00000000000E+00  0.45593999997E+02  0.45594000000E+02  0.51100000000E-03 0. -1.
         11   -1    0    0    0    0 -0.00000000000E+00 -0.00000000000E+00 -0.45593999997E+02  0.45594000000E+02  0.51100000000E-03 0.  1.
    9900012    2    1    2    0    0 -0.27581822449E+02 -0.28489945763E+02 -0.89850814776E+01  0.50528860457E+02  0.30000001845E+02 0.  0.
         12    1    1    2    0    0  0.27581822449E+02  0.28489945763E+02  0.89850814776E+01  0.40659139543E+02  0.00000000000E+00 0. -1.
         11    1    3    3    0    0 -0.16297461202E+01  0.38253145047E+00  0.44533551529E+01  0.47576018230E+01  0.51100000000E-03 0. -1.
        -11    1    3    3    0    0 -0.45477138817E+01 -0.19630987678E+02 -0.88557138674E+01  0.22010930174E+02  0.51100000000E-03 0.  1.
        -12    1    3    3    0    0 -0.21404362447E+02 -0.92414895363E+01 -0.45827227632E+01  0.23760328460E+02  0.00000000000E+00 0.  1.
</event>
<event>
 7    1  0.6136531E-013  0.5052887E+02  0.7816164E-02  0.1300439E+00
        -11   -1    0    0    0    0  0.00000000000E+00  0.00000000000E+00  0.45593999997E+02  0.45594000000E+02  0.51100000000E-03 0.  1.
         11   -1    0    0    0    0 -0.00000000000E+00 -0.00000000000E+00 -0.45593999997E+02  0.45594000000E+02  0.51100000000E-03 0. -1.
    9900012    2    1    2    0    0 -0.25288996785E+02 -0.66616048252E+01  0.31132859065E+02  0.50528865100E+02  0.30000015958E+02 0.  0.
         12    1    1    2    0    0  0.25288996785E+02  0.66616048252E+01 -0.31132859065E+02  0.40659134900E+02  0.00000000000E+00 0. -1.
         11    1    3    3    0    0 -0.61252692398E+00  0.43140394716E+01  0.10858742316E+02  0.11700359428E+02  0.51100000000E-03 0. -1.
        -11    1    3    3    0    0 -0.21163140957E+02  0.41073806846E+00  0.13784658897E+02  0.25259929970E+02  0.51100000000E-03 0.  1.
        -12    1    3    3    0    0 -0.35133289043E+01 -0.11386382365E+02  0.64894578517E+01  0.13568575701E+02  0.00000000000E+00 0.  1.
</event>
<event>
 7    1  0.6136531E-013  0.5052885E+02  0.7816164E-02  0.1300439E+00
        -11   -1    0    0    0    0  0.00000000000E+00  0.00000000000E+00  0.45593999997E+02  0.45594000000E+02  0.51100000000E-03 0.  1.
         11   -1    0    0    0    0 -0.00000000000E+00 -0.00000000000E+00 -0.45593999997E+02  0.45594000000E+02  0.51100000000E-03 0. -1.
    9900012    2    1    2    0    0  0.39898659827E+00 -0.39306953752E+01  0.40466734473E+02  0.50528853977E+02  0.29999982147E+02 0.  0.
         12    1    1    2    0    0 -0.39898659827E+00  0.39306953752E+01 -0.40466734473E+02  0.40659146023E+02  0.00000000000E+00 0. -1.
         11    1    3    3    0    0  0.76019295289E+01 -0.14900528923E+02  0.23913499967E+02  0.29183395548E+02  0.51100000000E-03 0. -1.
        -11    1    3    3    0    0 -0.42466671847E+01  0.45303143148E+01  0.94873822183E+01  0.11338798507E+02  0.51100000000E-03 0.  1.
         12    1    3    3    0    0 -0.29562757459E+01  0.64395192332E+01  0.70658522875E+01  0.10006659922E+02  0.00000000000E+00 0. -1.
</event>
<event>
 7    1  0.6136531E-013  0.5052889E+02  0.7816164E-02  0.1300439E+00
        -11   -1    0    0    0    0  0.00000000000E+00  0.00000000000E+00  0.45593999997E+02  0.45594000000E+02  0.51100000000E-03 0.  1.
         11   -1    0    0    0    0 -0.00000000000E+00 -0.00000000000E+00 -0.45593999997E+02  0.45594000000E+02  0.51100000000E-03 0. -1.
    9900012    2    1    2    0    0  0.40367045948E+02  0.20435663127E+01  0.44145657042E+01  0.50528893367E+02  0.30000101877E+02 0.  0.
         12    1    1    2    0    0 -0.40367045948E+02 -0.20435663127E+01 -0.44145657042E+01  0.40659106633E+02  0.00000000000E+00 0. -1.
         11    1    3    3    0    0 -0.41222401241E+01 -0.10186762878E+01 -0.14314647653E+01  0.44810329897E+01  0.51100000000E-03 0. -1.
        -11    1    3    3    0    0  0.12418302898E+02 -0.32842063973E+01  0.51057750567E-01  0.12845344125E+02  0.51100000000E-03 0.  1.
         12    1    3    3    0    0  0.32070983174E+02  0.63464489977E+01  0.57949727190E+01  0.33202516252E+02  0.00000000000E+00 0. -1.
</event>
<event>
 7    1  0.6136531E-013  0.5052885E+02  0.7816164E-02  0.1300439E+00
        -11   -1    0    0    0    0  0.00000000000E+00  0.00000000000E+00  0.45593999997E+02  0.45594000000E+02  0.51100000000E-03 0.  1.
         11   -1    0    0    0    0 -0.00000000000E+00 -0.00000000000E+00 -0.45593999997E+02  0.45594000000E+02  0.51100000000E-03 0. -1.
    9900012    2    1    2    0    0 -0.10540623256E+02 -0.37346814653E+02  0.12135783967E+02  0.50528849052E+02  0.29999967177E+02 0.  0.
         12    1    1    2    0    0  0.10540623256E+02  0.37346814653E+02 -0.12135783967E+02  0.40659150948E+02  0.00000000000E+00 0. -1.
         11    1    3    3    0    0  0.75835218621E+00  0.30665839049E+01 -0.22707041060E+01  0.38903897340E+01  0.51100000000E-03 0. -1.
        -11    1    3    3    0    0  0.69498594181E+00 -0.13325517627E+02  0.10029035180E+02  0.16692332743E+02  0.51100000000E-03 0.  1.
         12    1    3    3    0    0 -0.11993961384E+02 -0.27087880931E+02  0.43774528929E+01  0.29946126575E+02  0.00000000000E+00 0. -1.
</event>
<event>
 7    1  0.6136531E-013  0.5052888E+02  0.7816164E-02  0.1300439E+00
        -11   -1    0    0    0    0  0.00000000000E+00  0.00000000000E+00  0.45593999997E+02  0.45594000000E+02  0.51100000000E-03 0. -1.
         11   -1    0    0    0    0 -0.00000000000E+00 -0.00000000000E+00 -0.45593999997E+02  0.45594000000E+02  0.51100000000E-03 0.  1.
    9900012    2    1    2    0    0 -0.37378673413E+02 -0.15094358591E+02  0.53065230802E+01  0.50528879564E+02  0.30000059923E+02 0.  0.
         12    1    1    2    0    0  0.37378673413E+02  0.15094358591E+02 -0.53065230802E+01  0.40659120436E+02  0.00000000000E+00 0. -1.
         11    1    3    3    0    0 -0.15965953813E+01  0.16308949096E+01  0.46316951543E+01  0.51634809268E+01  0.51100000000E-03 0. -1.
        -11    1    3    3    0    0 -0.28656863689E+02 -0.15458245166E+02 -0.85273255665E+01  0.33658408484E+02  0.51100000000E-03 0.  1.
        -12    1    3    3    0    0 -0.71252143433E+01 -0.12670083346E+01  0.92021534925E+01  0.11706990154E+02  0.00000000000E+00 0.  1.
</event>
<event>
 7    1  0.6136531E-013  0.5052886E+02  0.7816164E-02  0.1300439E+00
        -11   -1    0    0    0    0  0.00000000000E+00  0.00000000000E+00  0.45593999997E+02  0.45594000000E+02  0.51100000000E-03 0.  1.
         11   -1    0    0    0    0 -0.00000000000E+00 -0.00000000000E+00 -0.45593999997E+02  0.45594000000E+02  0.51100000000E-03 0. -1.
    9900012    2    1    2    0    0 -0.31300226615E+02 -0.22063426982E+01  0.25857169944E+02  0.50528863613E+02  0.30000011438E+02 0.  0.
         12    1    1    2    0    0  0.31300226615E+02  0.22063426982E+01 -0.25857169944E+02  0.40659136387E+02  0.00000000000E+00 0. -1.
         11    1    3    3    0    0 -0.33391881749E+01  0.20443717878E+01 -0.64451599232E+01  0.75412015204E+01  0.51100000000E-03 0. -1.
        -11    1    3    3    0    0 -0.85277797139E+01 -0.20037141033E+01  0.11075966350E+02  0.14121435051E+02  0.51100000000E-03 0.  1.
         12    1    3    3    0    0 -0.19433258726E+02 -0.22470003827E+01  0.21226363518E+02  0.28866227041E+02  0.00000000000E+00 0. -1.
</event>
<event>
 7    1  0.6136531E-013  0.5052883E+02  0.7816164E-02  0.1300439E+00
        -11   -1    0    0    0    0  0.00000000000E+00  0.00000000000E+00  0.45593999997E+02  0.45594000000E+02  0.51100000000E-03 0.  1.
         11   -1    0    0    0    0 -0.00000000000E+00 -0.00000000000E+00 -0.45593999997E+02  0.45594000000E+02  0.51100000000E-03 0. -1.
    9900012    2    1    2    0    0 -0.55384558928E+01 -0.14233256582E+02  0.37681663389E+02  0.50528833231E+02  0.29999919088E+02 0.  0.
         12    1    1    2    0    0  0.55384558928E+01  0.14233256582E+02 -0.37681663389E+02  0.40659166769E+02  0.00000000000E+00 0. -1.
         11    1    3    3    0    0  0.62877956212E+01  0.34135251983E+01  0.12487551957E+02  0.14391924201E+02  0.51100000000E-03 0. -1.
        -11    1    3    3    0    0 -0.49097564302E+01 -0.18309109988E+02  0.18230767522E+02  0.26300001929E+02  0.51100000000E-03 0.  1.
        -12    1    3    3    0    0 -0.69164950838E+01  0.66232820808E+00  0.69633439097E+01  0.98369071005E+01  0.00000000000E+00 0.  1.
</event>
<event>
 7    1  0.6136531E-013  0.5052884E+02  0.7816164E-02  0.1300439E+00
        -11   -1    0    0    0    0  0.00000000000E+00  0.00000000000E+00  0.45593999997E+02  0.45594000000E+02  0.51100000000E-03 0.  1.
         11   -1    0    0    0    0 -0.00000000000E+00 -0.00000000000E+00 -0.45593999997E+02  0.45594000000E+02  0.51100000000E-03 0. -1.
    9900012    2    1    2    0    0  0.29251977625E+01 -0.28436948147E+02  0.28912811556E+02  0.50528837762E+02  0.29999932861E+02 0.  0.
         12    1    1    2    0    0 -0.29251977625E+01  0.28436948147E+02 -0.28912811556E+02  0.40659162238E+02  0.00000000000E+00 0. -1.
         11    1    3    3    0    0 -0.41492497248E+01 -0.38723868248E+01  0.15479428180E+01  0.58828377700E+01  0.51100000000E-03 0. -1.
        -11    1    3    3    0    0  0.12594140323E+02 -0.33795214261E+01  0.13294792297E+02  0.18622165235E+02  0.51100000000E-03 0.  1.
        -12    1    3    3    0    0 -0.55196928362E+01 -0.21185039896E+02  0.14070076441E+02  0.26023834757E+02  0.00000000000E+00 0.  1.
</event>
<event>
 7    1  0.6136531E-013  0.5052886E+02  0.7816164E-02  0.1300439E+00
        -11   -1    0    0    0    0  0.00000000000E+00  0.00000000000E+00  0.45593999997E+02  0.45594000000E+02  0.51100000000E-03 0.  1.
         11   -1    0    0    0    0 -0.00000000000E+00 -0.00000000000E+00 -0.45593999997E+02  0.45594000000E+02  0.51100000000E-03 0. -1.
    9900012    2    1    2    0    0 -0.30394852670E+02  0.25473947256E+02 -0.89664154063E+01  0.50528860033E+02  0.30000000555E+02 0.  0.
         12    1    1    2    0    0  0.30394852670E+02 -0.25473947256E+02  0.89664154063E+01  0.40659139967E+02  0.00000000000E+00 0. -1.
         11    1    3    3    0    0 -0.15806809375E+02  0.25541661990E+01 -0.10761037690E+02  0.19291939250E+02  0.51100000000E-03 0. -1.
        -11    1    3    3    0    0  0.18288519172E+01  0.90302827430E+01  0.30250374691E+01  0.96975026529E+01  0.51100000000E-03 0.  1.
         12    1    3    3    0    0 -0.16416895213E+02  0.13889498314E+02 -0.12304151851E+01  0.21539418130E+02  0.00000000000E+00 0. -1.
</event>
<event>
 7    1  0.6136531E-013  0.5052888E+02  0.7816164E-02  0.1300439E+00
        -11   -1    0    0    0    0  0.00000000000E+00  0.00000000000E+00  0.45593999997E+02  0.45594000000E+02  0.51100000000E-03 0.  1.
         11   -1    0    0    0    0 -0.00000000000E+00 -0.00000000000E+00 -0.45593999997E+02  0.45594000000E+02  0.51100000000E-03 0. -1.
    9900012    2    1    2    0    0 -0.18574635360E+02  0.28142917205E+02  0.22718343865E+02  0.50528880291E+02  0.30000062133E+02 0.  0.
         12    1    1    2    0    0  0.18574635360E+02 -0.28142917205E+02 -0.22718343865E+02  0.40659119709E+02  0.00000000000E+00 0. -1.
         11    1    3    3    0    0 -0.19760962061E+02  0.18955759383E+02  0.35307545874E+01  0.27609466919E+02  0.51100000000E-03 0.  1.
        -11    1    3    3    0    0 -0.14702979499E+01  0.89408379882E+01  0.17650292502E+02  0.19840191170E+02  0.51100000000E-03 0. -1.
        -12    1    3    3    0    0  0.26566246506E+01  0.24631983362E+00  0.15372967753E+01  0.30792222021E+01  0.00000000000E+00 0.  1.
</event>
<event>
 7    1  0.6136531E-013  0.5052888E+02  0.7816164E-02  0.1300439E+00
        -11   -1    0    0    0    0  0.00000000000E+00  0.00000000000E+00  0.45593999997E+02  0.45594000000E+02  0.51100000000E-03 0.  1.
         11   -1    0    0    0    0 -0.00000000000E+00 -0.00000000000E+00 -0.45593999997E+02  0.45594000000E+02  0.51100000000E-03 0. -1.
    9900012    2    1    2    0    0  0.16311127364E+02 -0.27192146028E+02  0.25449924812E+02  0.50528876123E+02  0.30000049465E+02 0.  0.
         12    1    1    2    0    0 -0.16311127364E+02  0.27192146028E+02 -0.25449924812E+02  0.40659123877E+02  0.00000000000E+00 0. -1.
         11    1    3    3    0    0  0.10297160399E+02 -0.15129255073E+02 -0.23846351924E+01  0.18455686295E+02  0.51100000000E-03 0. -1.
        -11    1    3    3    0    0  0.69036728810E+01 -0.61581672356E+01  0.21294001128E+02  0.23216765650E+02  0.51100000000E-03 0.  1.
        -12    1    3    3    0    0 -0.88970591591E+00 -0.59047237187E+01  0.65405588767E+01  0.88564241786E+01  0.00000000000E+00 0.  1.
</event>
<event>
 7    1  0.6136531E-013  0.5052884E+02  0.7816164E-02  0.1300439E+00
        -11   -1    0    0    0    0  0.00000000000E+00  0.00000000000E+00  0.45593999997E+02  0.45594000000E+02  0.51100000000E-03 0. -1.
         11   -1    0    0    0    0 -0.00000000000E+00 -0.00000000000E+00 -0.45593999997E+02  0.45594000000E+02  0.51100000000E-03 0.  1.
    9900012    2    1    2    0    0 -0.11374886188E+02 -0.19795701342E+02 -0.33643859670E+02  0.50528842103E+02  0.29999946056E+02 0.  0.
         12    1    1    2    0    0  0.11374886188E+02  0.19795701342E+02  0.33643859670E+02  0.40659157897E+02  0.00000000000E+00 0. -1.
         11    1    3    3    0    0  0.62052863210E+01 -0.33864584035E+01  0.13641357610E+01  0.71996212039E+01  0.51100000000E-03 0. -1.
        -11    1    3    3    0    0  0.21223845767E+00 -0.35214057101E+01 -0.41031699566E+01  0.54112241953E+01  0.51100000000E-03 0.  1.
         12    1    3    3    0    0 -0.17792410967E+02 -0.12887837229E+02 -0.30904825474E+02  0.37917996704E+02  0.00000000000E+00 0. -1.
</event>
<event>
 7    1  0.6136531E-013  0.5052885E+02  0.7816164E-02  0.1300439E+00
        -11   -1    0    0    0    0  0.00000000000E+00  0.00000000000E+00  0.45593999997E+02  0.45594000000E+02  0.51100000000E-03 0.  1.
         11   -1    0    0    0    0 -0.00000000000E+00 -0.00000000000E+00 -0.45593999997E+02  0.45594000000E+02  0.51100000000E-03 0. -1.
    9900012    2    1    2    0    0  0.25748310579E+02  0.25072202123E+02  0.19015143310E+02  0.50528849835E+02  0.29999969559E+02 0.  0.
         12    1    1    2    0    0 -0.25748310579E+02 -0.25072202123E+02 -0.19015143310E+02  0.40659150165E+02  0.00000000000E+00 0. -1.
         11    1    3    3    0    0  0.16697849791E+01 -0.13116434627E+01 -0.38192433606E+01  0.43698066958E+01  0.51100000000E-03 0. -1.
        -11    1    3    3    0    0  0.27124598253E+02  0.23175913105E+02  0.20697263878E+02  0.41246133285E+02  0.51100000000E-03 0.  1.
        -12    1    3    3    0    0 -0.30460726529E+01  0.32079324812E+01  0.21371227928E+01  0.49129098549E+01  0.00000000000E+00 0.  1.
</event>
<event>
 7    1  0.6136531E-013  0.5052888E+02  0.7816164E-02  0.1300439E+00
        -11   -1    0    0    0    0  0.00000000000E+00  0.00000000000E+00  0.45593999997E+02  0.45594000000E+02  0.51100000000E-03 0. -1.
         11   -1    0    0    0    0 -0.00000000000E+00 -0.00000000000E+00 -0.45593999997E+02  0.45594000000E+02  0.51100000000E-03 0.  1.
    9900012    2    1    2    0    0  0.23208545736E+02 -0.24215546152E+02 -0.22981187464E+02  0.50528877433E+02  0.30000053445E+02 0.  0.
         12    1    1    2    0    0 -0.23208545736E+02  0.24215546152E+02  0.22981187464E+02  0.40659122567E+02  0.00000000000E+00 0. -1.
         11    1    3    3    0    0 -0.48090581748E+01 -0.11110498749E+02 -0.27634746853E+01  0.12418011740E+02  0.51100000000E-03 0. -1.
        -11    1    3    3    0    0  0.19586331070E+02 -0.52429984369E+01 -0.95824322283E+01  0.22426243668E+02  0.51100000000E-03 0.  1.
         12    1    3    3    0    0  0.84312728416E+01 -0.78620489670E+01 -0.10635280551E+02  0.15684622025E+02  0.00000000000E+00 0. -1.
</event>
<event>
 7    1  0.6136531E-013  0.5052886E+02  0.7816164E-02  0.1300439E+00
        -11   -1    0    0    0    0  0.00000000000E+00  0.00000000000E+00  0.45593999997E+02  0.45594000000E+02  0.51100000000E-03 0.  1.
         11   -1    0    0    0    0 -0.00000000000E+00 -0.00000000000E+00 -0.45593999997E+02  0.45594000000E+02  0.51100000000E-03 0. -1.
    9900012    2    1    2    0    0 -0.76862952533E+01  0.33921724914E+02  0.21057131435E+02  0.50528864002E+02  0.30000012619E+02 0.  0.
         12    1    1    2    0    0  0.76862952533E+01 -0.33921724914E+02 -0.21057131435E+02  0.40659135998E+02  0.00000000000E+00 0. -1.
         11    1    3    3    0    0 -0.53618836742E+01  0.11612070634E+02 -0.48285706220E+01  0.13671323106E+02  0.51100000000E-03 0. -1.
        -11    1    3    3    0    0 -0.63759519400E+01  0.20983535494E+02  0.22429455525E+02  0.31369443737E+02  0.51100000000E-03 0.  1.
        -12    1    3    3    0    0  0.40515403610E+01  0.13261187854E+01  0.34562465321E+01  0.54880971584E+01  0.00000000000E+00 0.  1.
</event>
<event>
 7    1  0.6136531E-013  0.5052885E+02  0.7816164E-02  0.1300439E+00
        -11   -1    0    0    0    0  0.00000000000E+00  0.00000000000E+00  0.45593999997E+02  0.45594000000E+02  0.51100000000E-03 0.  1.
         11   -1    0    0    0    0 -0.00000000000E+00 -0.00000000000E+00 -0.45593999997E+02  0.45594000000E+02  0.51100000000E-03 0. -1.
    9900012    2    1    2    0    0 -0.63614069269E+01 -0.18622968451E+00  0.40157987660E+02  0.50528854011E+02  0.29999982253E+02 0.  0.
         12    1    1    2    0    0  0.63614069269E+01  0.18622968451E+00 -0.40157987660E+02  0.40659145989E+02  0.00000000000E+00 0. -1.
         11    1    3    3    0    0  0.40170161041E+01 -0.72018175900E+01  0.22672741998E+02  0.24125833145E+02  0.51100000000E-03 0. -1.
        -11    1    3    3    0    0 -0.12502773104E+02  0.88466762069E+01  0.17910611065E+02  0.23566353222E+02  0.51100000000E-03 0.  1.
        -12    1    3    3    0    0  0.21243500728E+01 -0.18310883014E+01 -0.42536540259E+00  0.28366676445E+01  0.00000000000E+00 0.  1.
</event>
<event>
 7    1  0.6136531E-013  0.5052886E+02  0.7816164E-02  0.1300439E+00
        -11   -1    0    0    0    0  0.00000000000E+00  0.00000000000E+00  0.45593999997E+02  0.45594000000E+02  0.51100000000E-03 0.  1.
         11   -1    0    0    0    0 -0.00000000000E+00 -0.00000000000E+00 -0.45593999997E+02  0.45594000000E+02  0.51100000000E-03 0. -1.
    9900012    2    1    2    0    0  0.29222723087E+02 -0.10394086828E+02  0.26289946241E+02  0.50528857621E+02  0.29999993225E+02 0.  0.
         12    1    1    2    0    0 -0.29222723087E+02  0.10394086828E+02 -0.26289946241E+02  0.40659142379E+02  0.00000000000E+00 0. -1.
         11    1    3    3    0    0 -0.17142067591E+01 -0.94700463407E+01  0.24507875860E+01  0.99310947312E+01  0.51100000000E-03 0. -1.
        -11    1    3    3    0    0  0.17907274761E+02 -0.28689453956E+01  0.75408613066E+01  0.19640924788E+02  0.51100000000E-03 0.  1.
         12    1    3    3    0    0  0.13029655086E+02  0.19449049080E+01  0.16298297349E+02  0.20956838102E+02  0.00000000000E+00 0. -1.
</event>
<event>
 7    1  0.6136531E-013  0.5052885E+02  0.7816164E-02  0.1300439E+00
        -11   -1    0    0    0    0  0.00000000000E+00  0.00000000000E+00  0.45593999997E+02  0.45594000000E+02  0.51100000000E-03 0.  1.
         11   -1    0    0    0    0 -0.00000000000E+00 -0.00000000000E+00 -0.45593999997E+02  0.45594000000E+02  0.51100000000E-03 0. -1.
    9900012    2    1    2    0    0  0.19447980586E+02 -0.94755667985E+01  0.34426097754E+02  0.50528849473E+02  0.29999968458E+02 0.  0.
         12    1    1    2    0    0 -0.19447980586E+02  0.94755667985E+01 -0.34426097754E+02  0.40659150527E+02  0.00000000000E+00 0. -1.
         11    1    3    3    0    0  0.18395953733E+02 -0.12581588184E+02  0.34582276114E+02  0.41141722090E+02  0.51100000000E-03 0.  1.
        -11    1    3    3    0    0 -0.19738564381E+01  0.31237277624E+01  0.31857624590E+01  0.48788182051E+01  0.51100000000E-03 0. -1.
         12    1    3    3    0    0  0.30258832909E+01 -0.17706376946E-01 -0.33419408196E+01  0.45083091784E+01  0.00000000000E+00 0. -1.
</event>
<event>
 7    1  0.6136531E-013  0.5052886E+02  0.7816164E-02  0.1300439E+00
        -11   -1    0    0    0    0  0.00000000000E+00  0.00000000000E+00  0.45593999997E+02  0.45594000000E+02  0.51100000000E-03 0.  1.
         11   -1    0    0    0    0 -0.00000000000E+00 -0.00000000000E+00 -0.45593999997E+02  0.45594000000E+02  0.51100000000E-03 0. -1.
    9900012    2    1    2    0    0 -0.96064532655E+01 -0.85317182762E+01  0.38575790738E+02  0.50528858443E+02  0.29999995725E+02 0.  0.
         12    1    1    2    0    0  0.96064532655E+01  0.85317182762E+01 -0.38575790738E+02  0.40659141557E+02  0.00000000000E+00 0. -1.
         11    1    3    3    0    0 -0.57512641905E+01  0.54124365030E+00  0.13259322435E+02  0.14463043116E+02  0.51100000000E-03 0. -1.
        -11    1    3    3    0    0 -0.63729853834E+01 -0.20439958341E+01 -0.25910525101E+01  0.71767969902E+01  0.51100000000E-03 0.  1.
        -12    1    3    3    0    0  0.25177963085E+01 -0.70289660924E+01  0.27907520813E+02  0.28889018337E+02  0.00000000000E+00 0.  1.
</event>
<event>
 7    1  0.6136531E-013  0.5052885E+02  0.7816164E-02  0.1300439E+00
        -11   -1    0    0    0    0  0.00000000000E+00  0.00000000000E+00  0.45593999997E+02  0.45594000000E+02  0.51100000000E-03 0.  1.
         11   -1    0    0    0    0 -0.00000000000E+00 -0.00000000000E+00 -0.45593999997E+02  0.45594000000E+02  0.51100000000E-03 0. -1.
    9900012    2    1    2    0    0  0.20789013371E+02  0.33596395699E+02  0.96054979021E+01  0.50528850097E+02  0.29999970355E+02 0.  0.
         12    1    1    2    0    0 -0.20789013371E+02 -0.33596395699E+02 -0.96054979021E+01  0.40659149903E+02  0.00000000000E+00 0. -1.
         11    1    3    3    0    0  0.27201067037E+01 -0.23759511312E+01  0.36365913380E+01  0.51253215585E+01  0.51100000000E-03 0. -1.
        -11    1    3    3    0    0  0.37873508464E+01  0.13635044011E+02 -0.71138682236E+01  0.15838736470E+02  0.51100000000E-03 0.  1.
        -12    1    3    3    0    0  0.14281555821E+02  0.22337302819E+02  0.13082774788E+02  0.29564792068E+02  0.00000000000E+00 0.  1.
</event>
<event>
 7    1  0.6136531E-013  0.5052887E+02  0.7816164E-02  0.1300439E+00
        -11   -1    0    0    0    0  0.00000000000E+00  0.00000000000E+00  0.45593999997E+02  0.45594000000E+02  0.51100000000E-03 0.  1.
         11   -1    0    0    0    0 -0.00000000000E+00 -0.00000000000E+00 -0.45593999997E+02  0.45594000000E+02  0.51100000000E-03 0. -1.
    9900012    2    1    2    0    0 -0.42896160099E+01  0.18977170713E+01  0.40387657042E+02  0.50528868468E+02  0.30000026196E+02 0.  0.
         12    1    1    2    0    0  0.42896160099E+01 -0.18977170713E+01 -0.40387657042E+02  0.40659131532E+02  0.00000000000E+00 0. -1.
         11    1    3    3    0    0 -0.82066693972E+01  0.19892112149E+01  0.13410341343E+02  0.15847512077E+02  0.51100000000E-03 0. -1.
        -11    1    3    3    0    0  0.17014237093E+01  0.87323893920E+01  0.36022319653E+01  0.95982051721E+01  0.51100000000E-03 0.  1.
        -12    1    3    3    0    0  0.22156296780E+01 -0.88238835357E+01  0.23375083734E+02  0.25083151219E+02  0.00000000000E+00 0.  1.
</event>
<event>
 7    1  0.6136531E-013  0.5052886E+02  0.7816164E-02  0.1300439E+00
        -11   -1    0    0    0    0  0.00000000000E+00  0.00000000000E+00  0.45593999997E+02  0.45594000000E+02  0.51100000000E-03 0.  1.
         11   -1    0    0    0    0 -0.00000000000E+00 -0.00000000000E+00 -0.45593999997E+02  0.45594000000E+02  0.51100000000E-03 0. -1.
    9900012    2    1    2    0    0 -0.18003199778E+02 -0.33135799799E+02  0.15200955840E+02  0.50528862171E+02  0.30000007054E+02 0.  0.
         12    1    1    2    0    0  0.18003199778E+02  0.33135799799E+02 -0.15200955840E+02  0.40659137829E+02  0.00000000000E+00 0. -1.
         11    1    3    3    0    0  0.37832190642E+01  0.16368788191E+01  0.49802442719E+01  0.64649015480E+01  0.51100000000E-03 0. -1.
        -11    1    3    3    0    0 -0.16536598884E+02 -0.15094682508E+02  0.38039066771E+01  0.22710751835E+02  0.51100000000E-03 0.  1.
         12    1    3    3    0    0 -0.52498199580E+01 -0.19677996110E+02  0.64168048909E+01  0.21353208787E+02  0.00000000000E+00 0. -1.
</event>
<event>
 7    1  0.6136531E-013  0.5052886E+02  0.7816164E-02  0.1300439E+00
        -11   -1    0    0    0    0  0.00000000000E+00  0.00000000000E+00  0.45593999997E+02  0.45594000000E+02  0.51100000000E-03 0.  1.
         11   -1    0    0    0    0 -0.00000000000E+00 -0.00000000000E+00 -0.45593999997E+02  0.45594000000E+02  0.51100000000E-03 0. -1.
    9900012    2    1    2    0    0 -0.14383696470E+02 -0.27359928471E+02  0.26414189199E+02  0.50528858333E+02  0.29999995388E+02 0.  0.
         12    1    1    2    0    0  0.14383696470E+02  0.27359928471E+02 -0.26414189199E+02  0.40659141667E+02  0.00000000000E+00 0. -1.
         11    1    3    3    0    0 -0.18269812450E+02 -0.97306426748E+01  0.21431258858E+02  0.29795474662E+02  0.51100000000E-03 0. -1.
        -11    1    3    3    0    0 -0.16676885775E+01 -0.11266546956E+02  0.45874273874E+01  0.12278467160E+02  0.51100000000E-03 0.  1.
         12    1    3    3    0    0  0.55538045578E+01 -0.63627388406E+01  0.39550295378E+00  0.84549165109E+01  0.00000000000E+00 0. -1.
</event>
<event>
 7    1  0.6136531E-013  0.5052884E+02  0.7816164E-02  0.1300439E+00
        -11   -1    0    0    0    0  0.00000000000E+00  0.00000000000E+00  0.45593999997E+02  0.45594000000E+02  0.51100000000E-03 0. -1.
         11   -1    0    0    0    0 -0.00000000000E+00 -0.00000000000E+00 -0.45593999997E+02  0.45594000000E+02  0.51100000000E-03 0.  1.
    9900012    2    1    2    0    0 -0.32076760899E+02 -0.23376414910E+02 -0.88199545493E+01  0.50528844056E+02  0.29999951993E+02 0.  0.
         12    1    1    2    0    0  0.32076760899E+02  0.23376414910E+02  0.88199545493E+01  0.40659155944E+02  0.00000000000E+00 0. -1.
         11    1    3    3    0    0 -0.25825349285E+02 -0.16011804032E+02 -0.14318571079E+02  0.33590891802E+02  0.51100000000E-03 0. -1.
        -11    1    3    3    0    0 -0.99068094345E+01 -0.61267333928E+01  0.59010392066E+01  0.13057717994E+02  0.51100000000E-03 0.  1.
         12    1    3    3    0    0  0.36553978208E+01 -0.12378774855E+01 -0.40242267671E+00  0.38802342594E+01  0.00000000000E+00 0. -1.
</event>
<event>
 7    1  0.6136531E-013  0.5052885E+02  0.7816164E-02  0.1300439E+00
        -11   -1    0    0    0    0  0.00000000000E+00  0.00000000000E+00  0.45593999997E+02  0.45594000000E+02  0.51100000000E-03 0. -1.
         11   -1    0    0    0    0 -0.00000000000E+00 -0.00000000000E+00 -0.45593999997E+02  0.45594000000E+02  0.51100000000E-03 0.  1.
    9900012    2    1    2    0    0  0.18163034578E+02  0.36189171557E+02  0.36897302242E+01  0.50528855000E+02  0.29999985257E+02 0.  0.
         12    1    1    2    0    0 -0.18163034578E+02 -0.36189171557E+02 -0.36897302242E+01  0.40659145000E+02  0.00000000000E+00 0. -1.
         11    1    3    3    0    0  0.24216729538E+01  0.29371173227E+02  0.58741573048E+01  0.30050558080E+02  0.51100000000E-03 0.  1.
        -11    1    3    3    0    0  0.33448493275E+01 -0.18602515140E+01  0.25776430598E+01  0.46144118503E+01  0.51100000000E-03 0. -1.
        -12    1    3    3    0    0  0.12396512297E+02  0.86782498439E+01 -0.47620701404E+01  0.15863885069E+02  0.00000000000E+00 0.  1.
</event>
<event>
 7    1  0.6136531E-013  0.5052886E+02  0.7816164E-02  0.1300439E+00
        -11   -1    0    0    0    0  0.00000000000E+00  0.00000000000E+00  0.45593999997E+02  0.45594000000E+02  0.51100000000E-03 0.  1.
         11   -1    0    0    0    0 -0.00000000000E+00 -0.00000000000E+00 -0.45593999997E+02  0.45594000000E+02  0.51100000000E-03 0. -1.
    9900012    2    1    2    0    0 -0.34064470836E+02 -0.24456392134E+01  0.22063457932E+02  0.50528862030E+02  0.30000006627E+02 0.  0.
         12    1    1    2    0    0  0.34064470836E+02  0.24456392134E+01 -0.22063457932E+02  0.40659137970E+02  0.00000000000E+00 0. -1.
         11    1    3    3    0    0  0.62352488964E+00  0.62213735776E+00  0.61816727314E+00  0.10760897819E+01  0.51100000000E-03 0. -1.
        -11    1    3    3    0    0 -0.22984849702E+02  0.10245755676E+02  0.58342696712E+01  0.25832489776E+02  0.51100000000E-03 0.  1.
        -12    1    3    3    0    0 -0.11703146024E+02 -0.13313532247E+02  0.15611020988E+02  0.23620282472E+02  0.00000000000E+00 0.  1.
</event>
<event>
 7    1  0.6136531E-013  0.5052887E+02  0.7816164E-02  0.1300439E+00
        -11   -1    0    0    0    0  0.00000000000E+00  0.00000000000E+00  0.45593999997E+02  0.45594000000E+02  0.51100000000E-03 0.  1.
         11   -1    0    0    0    0 -0.00000000000E+00 -0.00000000000E+00 -0.45593999997E+02  0.45594000000E+02  0.51100000000E-03 0. -1.
    9900012    2    1    2    0    0  0.68735709590E+01 -0.40072288809E+02  0.36132894210E+00  0.50528869823E+02  0.30000030314E+02 0.  0.
         12    1    1    2    0    0 -0.68735709590E+01  0.40072288809E+02 -0.36132894210E+00  0.40659130177E+02  0.00000000000E+00 0. -1.
         11    1    3    3    0    0 -0.70089590848E+01 -0.82050754150E+01  0.58115884194E+01  0.12256562741E+02  0.51100000000E-03 0. -1.
        -11    1    3    3    0    0  0.65109970128E+01 -0.21451271260E+02 -0.10235837261E+02  0.24643913761E+02  0.51100000000E-03 0.  1.
         12    1    3    3    0    0  0.73715330309E+01 -0.10415942135E+02  0.47855777837E+01  0.13628393321E+02  0.00000000000E+00 0. -1.
</event>
<event>
 7    1  0.6136531E-013  0.5052886E+02  0.7816164E-02  0.1300439E+00
        -11   -1    0    0    0    0  0.00000000000E+00  0.00000000000E+00  0.45593999997E+02  0.45594000000E+02  0.51100000000E-03 0. -1.
         11   -1    0    0    0    0 -0.00000000000E+00 -0.00000000000E+00 -0.45593999997E+02  0.45594000000E+02  0.51100000000E-03 0.  1.
    9900012    2    1    2    0    0  0.18730342659E+02  0.12823291091E+00 -0.36087717972E+02  0.50528861197E+02  0.30000004094E+02 0.  0.
         12    1    1    2    0    0 -0.18730342659E+02 -0.12823291091E+00  0.36087717972E+02  0.40659138803E+02  0.00000000000E+00 0. -1.
         11    1    3    3    0    0  0.14145419113E+02 -0.68739177985E+01 -0.19572427678E+02  0.25108236761E+02  0.51100000000E-03 0. -1.
        -11    1    3    3    0    0 -0.65737345121E+01  0.42625683052E+01 -0.66477946694E+01  0.10275049792E+02  0.51100000000E-03 0.  1.
        -12    1    3    3    0    0  0.11158658058E+02  0.27395824043E+01 -0.98674956246E+01  0.15145574644E+02  0.00000000000E+00 0.  1.
</event>
<event>
 7    1  0.6136531E-013  0.5052886E+02  0.7816164E-02  0.1300439E+00
        -11   -1    0    0    0    0  0.00000000000E+00  0.00000000000E+00  0.45593999997E+02  0.45594000000E+02  0.51100000000E-03 0. -1.
         11   -1    0    0    0    0 -0.00000000000E+00 -0.00000000000E+00 -0.45593999997E+02  0.45594000000E+02  0.51100000000E-03 0.  1.
    9900012    2    1    2    0    0 -0.39751101427E+02  0.19297555558E+01  0.83241816950E+01  0.50528855616E+02  0.29999987129E+02 0.  0.
         12    1    1    2    0    0  0.39751101427E+02 -0.19297555558E+01 -0.83241816950E+01  0.40659144384E+02  0.00000000000E+00 0. -1.
         11    1    3    3    0    0 -0.53740564184E+01  0.10323505839E+02 -0.12855864651E+01  0.11709312021E+02  0.51100000000E-03 0. -1.
        -11    1    3    3    0    0 -0.26008989792E+02 -0.52422558308E+00  0.80230164459E+01  0.27223356803E+02  0.51100000000E-03 0.  1.
         12    1    3    3    0    0 -0.83680552167E+01 -0.78695246996E+01  0.15867517143E+01  0.11596186792E+02  0.00000000000E+00 0. -1.
</event>
<event>
 7    1  0.6136531E-013  0.5052884E+02  0.7816164E-02  0.1300439E+00
        -11   -1    0    0    0    0  0.00000000000E+00  0.00000000000E+00  0.45593999997E+02  0.45594000000E+02  0.51100000000E-03 0.  1.
         11   -1    0    0    0    0 -0.00000000000E+00 -0.00000000000E+00 -0.45593999997E+02  0.45594000000E+02  0.51100000000E-03 0. -1.
    9900012    2    1    2    0    0 -0.83119570213E+01 -0.26177141277E+02  0.29980596292E+02  0.50528837330E+02  0.29999931548E+02 0.  0.
         12    1    1    2    0    0  0.83119570213E+01  0.26177141277E+02 -0.29980596292E+02  0.40659162670E+02  0.00000000000E+00 0. -1.
         11    1    3    3    0    0 -0.26854088165E+00  0.52342382583E+01 -0.13276171232E+01  0.54066562529E+01  0.51100000000E-03 0. -1.
        -11    1    3    3    0    0 -0.48092924228E+01 -0.17559471128E+02  0.18957601535E+02  0.26284120227E+02  0.51100000000E-03 0.  1.
         12    1    3    3    0    0 -0.32341237168E+01 -0.13851908407E+02  0.12350611881E+02  0.18838060850E+02  0.00000000000E+00 0. -1.
</event>
<event>
 7    1  0.6136531E-013  0.5052886E+02  0.7816164E-02  0.1300439E+00
        -11   -1    0    0    0    0  0.00000000000E+00  0.00000000000E+00  0.45593999997E+02  0.45594000000E+02  0.51100000000E-03 0. -1.
         11   -1    0    0    0    0 -0.00000000000E+00 -0.00000000000E+00 -0.45593999997E+02  0.45594000000E+02  0.51100000000E-03 0.  1.
    9900012    2    1    2    0    0 -0.34931810413E+02  0.38202083374E+01 -0.20453362555E+02  0.50528863139E+02  0.30000009996E+02 0.  0.
         12    1    1    2    0    0  0.34931810413E+02 -0.38202083374E+01  0.20453362555E+02  0.40659136861E+02  0.00000000000E+00 0. -1.
         11    1    3    3    0    0 -0.34689971488E+00  0.20282738796E+01  0.93831229801E+00  0.22615624185E+01  0.51100000000E-03 0. -1.
        -11    1    3    3    0    0 -0.29159132630E+02  0.11902607176E+02 -0.13101076335E+02  0.34111072612E+02  0.51100000000E-03 0.  1.
        -12    1    3    3    0    0 -0.54257780687E+01 -0.10110672718E+02 -0.82905985182E+01  0.14156228108E+02  0.00000000000E+00 0.  1.
</event>
<event>
 7    1  0.6136531E-013  0.5052886E+02  0.7816164E-02  0.1300439E+00
        -11   -1    0    0    0    0  0.00000000000E+00  0.00000000000E+00  0.45593999997E+02  0.45594000000E+02  0.51100000000E-03 0.  1.
         11   -1    0    0    0    0 -0.00000000000E+00 -0.00000000000E+00 -0.45593999997E+02  0.45594000000E+02  0.51100000000E-03 0. -1.
    9900012    2    1    2    0    0  0.41742402901E+01  0.13680938707E+02  0.38060126430E+02  0.50528860932E+02  0.30000003288E+02 0.  0.
         12    1    1    2    0    0 -0.41742402901E+01 -0.13680938707E+02 -0.38060126430E+02  0.40659139068E+02  0.00000000000E+00 0. -1.
         11    1    3    3    0    0  0.24514872372E+01  0.14046148871E+01 -0.48455964320E+01  0.56091476802E+01  0.51100000000E-03 0. -1.
        -11    1    3    3    0    0  0.20483556130E+01  0.79288085464E+01  0.20156743185E+02  0.21756747500E+02  0.51100000000E-03 0.  1.
         12    1    3    3    0    0 -0.32560256015E+00  0.43475152737E+01  0.22748979677E+02  0.23162965752E+02  0.00000000000E+00 0. -1.
</event>
<event>
 7    1  0.6136531E-013  0.5052887E+02  0.7816164E-02  0.1300439E+00
        -11   -1    0    0    0    0  0.00000000000E+00  0.00000000000E+00  0.45593999997E+02  0.45594000000E+02  0.51100000000E-03 0.  1.
         11   -1    0    0    0    0 -0.00000000000E+00 -0.00000000000E+00 -0.45593999997E+02  0.45594000000E+02  0.51100000000E-03 0. -1.
    9900012    2    1    2    0    0  0.42652155079E+01  0.40017504919E+02 -0.57941736465E+01  0.50528865583E+02  0.30000017427E+02 0.  0.
         12    1    1    2    0    0 -0.42652155079E+01 -0.40017504919E+02  0.57941736465E+01  0.40659134417E+02  0.00000000000E+00 0. -1.
         11    1    3    3    0    0  0.45817267789E+01  0.10682833157E+02 -0.11070154073E+02  0.16051898829E+02  0.51100000000E-03 0. -1.
        -11    1    3    3    0    0  0.10619208907E+01  0.17117280240E+02  0.11546982155E+02  0.20675148269E+02  0.51100000000E-03 0.  1.
         12    1    3    3    0    0 -0.13784321617E+01  0.12217391522E+02 -0.62710017285E+01  0.13801818485E+02  0.00000000000E+00 0. -1.
</event>
<event>
 7    1  0.6136531E-013  0.5052886E+02  0.7816164E-02  0.1300439E+00
        -11   -1    0    0    0    0  0.00000000000E+00  0.00000000000E+00  0.45593999997E+02  0.45594000000E+02  0.51100000000E-03 0.  1.
         11   -1    0    0    0    0 -0.00000000000E+00 -0.00000000000E+00 -0.45593999997E+02  0.45594000000E+02  0.51100000000E-03 0. -1.
    9900012    2    1    2    0    0 -0.32012103717E+01 -0.40519701285E+02  0.10352873690E+01  0.50528858838E+02  0.29999996925E+02 0.  0.
         12    1    1    2    0    0  0.32012103717E+01  0.40519701285E+02 -0.10352873690E+01  0.40659141162E+02  0.00000000000E+00 0. -1.
         11    1    3    3    0    0 -0.58241711285E+01 -0.12997104188E+02 -0.12769859744E+02  0.19128904954E+02  0.51100000000E-03 0. -1.
        -11    1    3    3    0    0 -0.50991214807E+00 -0.14338449436E+02  0.47987276748E+01  0.15128745162E+02  0.51100000000E-03 0.  1.
         12    1    3    3    0    0  0.31328729049E+01 -0.13184147661E+02  0.90064194379E+01  0.16271208722E+02  0.00000000000E+00 0. -1.
</event>
<event>
 7    1  0.6136531E-013  0.5052886E+02  0.7816164E-02  0.1300439E+00
        -11   -1    0    0    0    0  0.00000000000E+00  0.00000000000E+00  0.45593999997E+02  0.45594000000E+02  0.51100000000E-03 0. -1.
         11   -1    0    0    0    0 -0.00000000000E+00 -0.00000000000E+00 -0.45593999997E+02  0.45594000000E+02  0.51100000000E-03 0.  1.
    9900012    2    1    2    0    0  0.10317781859E+02 -0.64718692374E+01 -0.38792064163E+02  0.50528856429E+02  0.29999989600E+02 0.  0.
         12    1    1    2    0    0 -0.10317781859E+02  0.64718692374E+01  0.38792064163E+02  0.40659143571E+02  0.00000000000E+00 0. -1.
         11    1    3    3    0    0  0.11517616407E+02  0.14179582189E+01 -0.91562544067E+01  0.14781849960E+02  0.51100000000E-03 0. -1.
        -11    1    3    3    0    0 -0.75414994211E+01  0.15632895419E+01 -0.69886123581E+01  0.10399941859E+02  0.51100000000E-03 0.  1.
        -12    1    3    3    0    0  0.63416648728E+01 -0.94531169982E+01 -0.22647197399E+02  0.25347064610E+02  0.00000000000E+00 0.  1.
</event>
<event>
 7    1  0.6136531E-013  0.5052887E+02  0.7816164E-02  0.1300439E+00
        -11   -1    0    0    0    0  0.00000000000E+00  0.00000000000E+00  0.45593999997E+02  0.45594000000E+02  0.51100000000E-03 0.  1.
         11   -1    0    0    0    0 -0.00000000000E+00 -0.00000000000E+00 -0.45593999997E+02  0.45594000000E+02  0.51100000000E-03 0. -1.
    9900012    2    1    2    0    0  0.42328843902E+01  0.68546751570E+01  0.39852996308E+02  0.50528865768E+02  0.30000017989E+02 0.  0.
         12    1    1    2    0    0 -0.42328843902E+01 -0.68546751570E+01 -0.39852996308E+02  0.40659134232E+02  0.00000000000E+00 0. -1.
         11    1    3    3    0    0  0.60706039837E+01  0.37204725935E+01  0.21708555199E+01  0.74435719244E+01  0.51100000000E-03 0. -1.
        -11    1    3    3    0    0 -0.49692397828E+01 -0.51978575766E+01  0.31343667445E+02  0.32157993665E+02  0.51100000000E-03 0.  1.
        -12    1    3    3    0    0  0.31315201893E+01  0.83320601402E+01  0.63384733433E+01  0.10927300179E+02  0.00000000000E+00 0.  1.
</event>
<event>
 7    1  0.6136531E-013  0.5052886E+02  0.7816164E-02  0.1300439E+00
        -11   -1    0    0    0    0  0.00000000000E+00  0.00000000000E+00  0.45593999997E+02  0.45594000000E+02  0.51100000000E-03 0.  1.
         11   -1    0    0    0    0 -0.00000000000E+00 -0.00000000000E+00 -0.45593999997E+02  0.45594000000E+02  0.51100000000E-03 0. -1.
    9900012    2    1    2    0    0 -0.16642006572E+02  0.52208288627E+01  0.36728083901E+02  0.50528861005E+02  0.30000003512E+02 0.  0.
         12    1    1    2    0    0  0.16642006572E+02 -0.52208288627E+01 -0.36728083901E+02  0.40659138995E+02  0.00000000000E+00 0. -1.
         11    1    3    3    0    0 -0.28827059233E+01 -0.61242747130E+01  0.17162429526E+02  0.18449003271E+02  0.51100000000E-03 0. -1.
        -11    1    3    3    0    0 -0.15499260223E+02  0.53330352057E+01  0.19937164522E+02  0.25810053495E+02  0.51100000000E-03 0.  1.
        -12    1    3    3    0    0  0.17399595749E+01  0.60120683700E+01 -0.37151014716E+00  0.62698042391E+01  0.00000000000E+00 0.  1.
</event>
<event>
 7    1  0.6136531E-013  0.5052887E+02  0.7816164E-02  0.1300439E+00
        -11   -1    0    0    0    0  0.00000000000E+00  0.00000000000E+00  0.45593999997E+02  0.45594000000E+02  0.51100000000E-03 0. -1.
         11   -1    0    0    0    0 -0.00000000000E+00 -0.00000000000E+00 -0.45593999997E+02  0.45594000000E+02  0.51100000000E-03 0.  1.
    9900012    2    1    2    0    0  0.27931939779E+02  0.74507650203E+01  0.28591214300E+02  0.50528871943E+02  0.30000036758E+02 0.  0.
         12    1    1    2    0    0 -0.27931939779E+02 -0.74507650203E+01 -0.28591214300E+02  0.40659128057E+02  0.00000000000E+00 0. -1.
         11    1    3    3    0    0  0.31563645451E+02 -0.35734916222E+00  0.22725988086E+02  0.38895526058E+02  0.51100000000E-03 0. -1.
        -11    1    3    3    0    0  0.69319174070E+00  0.40298355197E+01  0.12803238855E+01  0.42847775459E+01  0.51100000000E-03 0.  1.
         12    1    3    3    0    0 -0.43248974123E+01  0.37782786628E+01  0.45849023279E+01  0.73485683393E+01  0.00000000000E+00 0. -1.
</event>
<event>
 7    1  0.6136531E-013  0.5052886E+02  0.7816164E-02  0.1300439E+00
        -11   -1    0    0    0    0  0.00000000000E+00  0.00000000000E+00  0.45593999997E+02  0.45594000000E+02  0.51100000000E-03 0. -1.
         11   -1    0    0    0    0 -0.00000000000E+00 -0.00000000000E+00 -0.45593999997E+02  0.45594000000E+02  0.51100000000E-03 0.  1.
    9900012    2    1    2    0    0  0.13378121228E+02 -0.29538608343E+02 -0.24528803097E+02  0.50528859676E+02  0.29999999472E+02 0.  0.
         12    1    1    2    0    0 -0.13378121228E+02  0.29538608343E+02  0.24528803097E+02  0.40659140324E+02  0.00000000000E+00 0. -1.
         11    1    3    3    0    0  0.11228033799E+02 -0.16462970867E+02 -0.11295474514E+02  0.22906023171E+02  0.51100000000E-03 0. -1.
        -11    1    3    3    0    0 -0.11922020018E+01 -0.20798980214E+01 -0.15688844931E+02  0.15870953876E+02  0.51100000000E-03 0.  1.
        -12    1    3    3    0    0  0.33422894305E+01 -0.10995739455E+02  0.24555163473E+01  0.11751882630E+02  0.00000000000E+00 0.  1.
</event>
<event>
 7    1  0.6136531E-013  0.5052886E+02  0.7816164E-02  0.1300439E+00
        -11   -1    0    0    0    0  0.00000000000E+00  0.00000000000E+00  0.45593999997E+02  0.45594000000E+02  0.51100000000E-03 0. -1.
         11   -1    0    0    0    0 -0.00000000000E+00 -0.00000000000E+00 -0.45593999997E+02  0.45594000000E+02  0.51100000000E-03 0.  1.
    9900012    2    1    2    0    0  0.38410910747E+02 -0.82458005568E+01  0.10477343897E+02  0.50528855562E+02  0.29999986968E+02 0.  0.
         12    1    1    2    0    0 -0.38410910747E+02  0.82458005568E+01 -0.10477343897E+02  0.40659144438E+02  0.00000000000E+00 0. -1.
         11    1    3    3    0    0  0.25728629347E+02 -0.91489374516E+01  0.11923101829E+02  0.29796405523E+02  0.51100000000E-03 0. -1.
        -11    1    3    3    0    0  0.14476105824E+02  0.55998520663E+01 -0.76292540979E-01  0.15521655962E+02  0.51100000000E-03 0.  1.
        -12    1    3    3    0    0 -0.17938244236E+01 -0.46967151714E+01 -0.13694653915E+01  0.52107940780E+01  0.00000000000E+00 0.  1.
</event>
<event>
 7    1  0.6136531E-013  0.5052885E+02  0.7816164E-02  0.1300439E+00
        -11   -1    0    0    0    0  0.00000000000E+00  0.00000000000E+00  0.45593999997E+02  0.45594000000E+02  0.51100000000E-03 0.  1.
         11   -1    0    0    0    0 -0.00000000000E+00 -0.00000000000E+00 -0.45593999997E+02  0.45594000000E+02  0.51100000000E-03 0. -1.
    9900012    2    1    2    0    0 -0.29978528879E+01 -0.33575887479E+02  0.22734092710E+02  0.50528852034E+02  0.29999976243E+02 0.  0.
         12    1    1    2    0    0  0.29978528879E+01  0.33575887479E+02 -0.22734092710E+02  0.40659147966E+02  0.00000000000E+00 0. -1.
         11    1    3    3    0    0 -0.11099613845E+00 -0.33172395382E+02  0.11705414463E+02  0.35177220805E+02  0.51100000000E-03 0.  1.
        -11    1    3    3    0    0 -0.13769504950E+00  0.27079349970E+01 -0.79055797718E+00  0.28243324965E+01  0.51100000000E-03 0. -1.
         12    1    3    3    0    0 -0.27491617000E+01 -0.31114270940E+01  0.11819236224E+02  0.12527298733E+02  0.00000000000E+00 0. -1.
</event>
<event>
 7    1  0.6136531E-013  0.5052887E+02  0.7816164E-02  0.1300439E+00
        -11   -1    0    0    0    0  0.00000000000E+00  0.00000000000E+00  0.45593999997E+02  0.45594000000E+02  0.51100000000E-03 0.  1.
         11   -1    0    0    0    0 -0.00000000000E+00 -0.00000000000E+00 -0.45593999997E+02  0.45594000000E+02  0.51100000000E-03 0. -1.
    9900012    2    1    2    0    0  0.12519690170E+02  0.19095203282E+02  0.33642162795E+02  0.50528873745E+02  0.30000042234E+02 0.  0.
         12    1    1    2    0    0 -0.12519690170E+02 -0.19095203282E+02 -0.33642162795E+02  0.40659126255E+02  0.00000000000E+00 0. -1.
         11    1    3    3    0    0 -0.57445394259E+01  0.16822394100E-01  0.95821932568E+01  0.11172217510E+02  0.51100000000E-03 0. -1.
        -11    1    3    3    0    0  0.12392319341E+02  0.20368131080E+02  0.23230294210E+02  0.33287789228E+02  0.51100000000E-03 0.  1.
        -12    1    3    3    0    0  0.58719102549E+01 -0.12897501920E+01  0.82967532829E+00  0.60688670071E+01  0.00000000000E+00 0.  1.
</event>
<event>
 7    1  0.6136531E-013  0.5052886E+02  0.7816164E-02  0.1300439E+00
        -11   -1    0    0    0    0  0.00000000000E+00  0.00000000000E+00  0.45593999997E+02  0.45594000000E+02  0.51100000000E-03 0. -1.
         11   -1    0    0    0    0 -0.00000000000E+00 -0.00000000000E+00 -0.45593999997E+02  0.45594000000E+02  0.51100000000E-03 0.  1.
    9900012    2    1    2    0    0  0.32615005139E+02 -0.21369311408E+02 -0.11523020560E+02  0.50528855480E+02  0.29999986717E+02 0.  0.
         12    1    1    2    0    0 -0.32615005139E+02  0.21369311408E+02  0.11523020560E+02  0.40659144520E+02  0.00000000000E+00 0. -1.
         11    1    3    3    0    0  0.13332946930E+02 -0.79918846897E+01 -0.13844563159E+02  0.20816090508E+02  0.51100000000E-03 0. -1.
        -11    1    3    3    0    0  0.43600477239E+01 -0.93656877868E+01  0.81906330432E+01  0.13183800430E+02  0.51100000000E-03 0.  1.
        -12    1    3    3    0    0  0.14922010485E+02 -0.40117389317E+01 -0.58690904444E+01  0.16528964541E+02  0.00000000000E+00 0.  1.
</event>
<event>
 7    1  0.6136531E-013  0.5052886E+02  0.7816164E-02  0.1300439E+00
        -11   -1    0    0    0    0  0.00000000000E+00  0.00000000000E+00  0.45593999997E+02  0.45594000000E+02  0.51100000000E-03 0.  1.
         11   -1    0    0    0    0 -0.00000000000E+00 -0.00000000000E+00 -0.45593999997E+02  0.45594000000E+02  0.51100000000E-03 0. -1.
    9900012    2    1    2    0    0  0.38913085834E+02 -0.87100857775E+01  0.79417607286E+01  0.50528863182E+02  0.30000010127E+02 0.  0.
         12    1    1    2    0    0 -0.38913085834E+02  0.87100857775E+01 -0.79417607286E+01  0.40659136818E+02  0.00000000000E+00 0. -1.
         11    1    3    3    0    0  0.48410789970E+01 -0.23343813053E+01 -0.57956913356E+01  0.79041394378E+01  0.51100000000E-03 0. -1.
        -11    1    3    3    0    0  0.30631177071E+02  0.24708174869E+01  0.90329650664E+01  0.32030741577E+02  0.51100000000E-03 0.  1.
        -12    1    3    3    0    0  0.34408297658E+01 -0.88465219591E+01  0.47044869978E+01  0.10593982167E+02  0.00000000000E+00 0.  1.
</event>
<event>
 7    1  0.6136531E-013  0.5052889E+02  0.7816164E-02  0.1300439E+00
        -11   -1    0    0    0    0  0.00000000000E+00  0.00000000000E+00  0.45593999997E+02  0.45594000000E+02  0.51100000000E-03 0.  1.
         11   -1    0    0    0    0 -0.00000000000E+00 -0.00000000000E+00 -0.45593999997E+02  0.45594000000E+02  0.51100000000E-03 0. -1.
    9900012    2    1    2    0    0 -0.58744683579E+00 -0.21809373893E+02  0.34309899220E+02  0.50528891945E+02  0.30000097555E+02 0.  0.
         12    1    1    2    0    0  0.58744683579E+00  0.21809373893E+02 -0.34309899220E+02  0.40659108055E+02  0.00000000000E+00 0. -1.
         11    1    3    3    0    0  0.21518618592E+01 -0.27103278799E+02  0.34573190854E+02  0.43983221315E+02  0.51100000000E-03 0. -1.
        -11    1    3    3    0    0 -0.11021655242E+01  0.40671717908E+01  0.72156312706E+00  0.42751969342E+01  0.51100000000E-03 0.  1.
         12    1    3    3    0    0 -0.16371431708E+01  0.12267331160E+01 -0.98485476176E+00  0.22704736954E+01  0.00000000000E+00 0. -1.
</event>
<event>
 7    1  0.6136531E-013  0.5052887E+02  0.7816164E-02  0.1300439E+00
        -11   -1    0    0    0    0  0.00000000000E+00  0.00000000000E+00  0.45593999997E+02  0.45594000000E+02  0.51100000000E-03 0.  1.
         11   -1    0    0    0    0 -0.00000000000E+00 -0.00000000000E+00 -0.45593999997E+02  0.45594000000E+02  0.51100000000E-03 0. -1.
    9900012    2    1    2    0    0 -0.37595590403E+02  0.12461906881E+02  0.91889978289E+01  0.50528865455E+02  0.30000017036E+02 0.  0.
         12    1    1    2    0    0  0.37595590403E+02 -0.12461906881E+02 -0.91889978289E+01  0.40659134545E+02  0.00000000000E+00 0. -1.
         11    1    3    3    0    0 -0.11187668598E+02 -0.92543380931E+01 -0.12295883720E+01  0.14571156098E+02  0.51100000000E-03 0. -1.
        -11    1    3    3    0    0 -0.18482815376E+02  0.15611496696E+02  0.55035853978E+01  0.24811746126E+02  0.51100000000E-03 0.  1.
         12    1    3    3    0    0 -0.79251064289E+01  0.61047482779E+01  0.49150008031E+01  0.11145963231E+02  0.00000000000E+00 0. -1.
</event>
<event>
 7    1  0.6136531E-013  0.5052886E+02  0.7816164E-02  0.1300439E+00
        -11   -1    0    0    0    0  0.00000000000E+00  0.00000000000E+00  0.45593999997E+02  0.45594000000E+02  0.51100000000E-03 0.  1.
         11   -1    0    0    0    0 -0.00000000000E+00 -0.00000000000E+00 -0.45593999997E+02  0.45594000000E+02  0.51100000000E-03 0. -1.
    9900012    2    1    2    0    0 -0.22756629107E+02 -0.15052424939E+02  0.30145082596E+02  0.50528859950E+02  0.30000000304E+02 0.  0.
         12    1    1    2    0    0  0.22756629107E+02  0.15052424939E+02 -0.30145082596E+02  0.40659140050E+02  0.00000000000E+00 0. -1.
         11    1    3    3    0    0  0.34652923725E+01 -0.10347227364E+02  0.14264907948E+02  0.17959982304E+02  0.51100000000E-03 0. -1.
        -11    1    3    3    0    0 -0.13880847172E+02 -0.23568715791E+01  0.14019976418E+02  0.19869386022E+02  0.51100000000E-03 0.  1.
         12    1    3    3    0    0 -0.12341074308E+02 -0.23483259957E+01  0.18601982304E+01  0.12699491624E+02  0.00000000000E+00 0. -1.
</event>
<event>
 7    1  0.6136531E-013  0.5052888E+02  0.7816164E-02  0.1300439E+00
        -11   -1    0    0    0    0  0.00000000000E+00  0.00000000000E+00  0.45593999997E+02  0.45594000000E+02  0.51100000000E-03 0. -1.
         11   -1    0    0    0    0 -0.00000000000E+00 -0.00000000000E+00 -0.45593999997E+02  0.45594000000E+02  0.51100000000E-03 0.  1.
    9900012    2    1    2    0    0 -0.13488470230E+02 -0.11749478214E+02 -0.36512668973E+02  0.50528879707E+02  0.30000060358E+02 0.  0.
         12    1    1    2    0    0  0.13488470230E+02  0.11749478214E+02  0.36512668973E+02  0.40659120293E+02  0.00000000000E+00 0. -1.
         11    1    3    3    0    0 -0.11469155984E+02  0.35624211940E+01 -0.10775464157E+02  0.16135148335E+02  0.51100000000E-03 0. -1.
        -11    1    3    3    0    0  0.20531368866E+01 -0.17880737079E+02 -0.20125759169E+02  0.26999672442E+02  0.51100000000E-03 0.  1.
        -12    1    3    3    0    0 -0.40724511328E+01  0.25688376710E+01 -0.56114456474E+01  0.73940589302E+01  0.00000000000E+00 0.  1.
</event>
<event>
 7    1  0.6136531E-013  0.5052886E+02  0.7816164E-02  0.1300439E+00
        -11   -1    0    0    0    0  0.00000000000E+00  0.00000000000E+00  0.45593999997E+02  0.45594000000E+02  0.51100000000E-03 0.  1.
         11   -1    0    0    0    0 -0.00000000000E+00 -0.00000000000E+00 -0.45593999997E+02  0.45594000000E+02  0.51100000000E-03 0. -1.
    9900012    2    1    2    0    0 -0.26580675808E+02  0.18453422832E+02  0.24619195086E+02  0.50528857027E+02  0.29999991418E+02 0.  0.
         12    1    1    2    0    0  0.26580675808E+02 -0.18453422832E+02 -0.24619195086E+02  0.40659142973E+02  0.00000000000E+00 0. -1.
         11    1    3    3    0    0  0.18024658268E+00 -0.15143132679E+01  0.10540361831E+01  0.18538139174E+01  0.51100000000E-03 0. -1.
        -11    1    3    3    0    0 -0.51180465292E+01  0.20204362891E+02  0.98641700530E+01  0.23058892671E+02  0.51100000000E-03 0.  1.
        -12    1    3    3    0    0 -0.21642875861E+02 -0.23662679112E+00  0.13700988850E+02  0.25616150438E+02  0.00000000000E+00 0.  1.
</event>
<event>
 7    1  0.6136531E-013  0.5052885E+02  0.7816164E-02  0.1300439E+00
        -11   -1    0    0    0    0  0.00000000000E+00  0.00000000000E+00  0.45593999997E+02  0.45594000000E+02  0.51100000000E-03 0.  1.
         11   -1    0    0    0    0 -0.00000000000E+00 -0.00000000000E+00 -0.45593999997E+02  0.45594000000E+02  0.51100000000E-03 0. -1.
    9900012    2    1    2    0    0  0.24397476680E+01  0.21535668562E+02  0.34401003385E+02  0.50528850686E+02  0.29999972144E+02 0.  0.
         12    1    1    2    0    0 -0.24397476680E+01 -0.21535668562E+02 -0.34401003385E+02  0.40659149314E+02  0.00000000000E+00 0. -1.
         11    1    3    3    0    0 -0.57636622611E+01  0.11376034710E+02  0.11477276741E+02  0.17156976716E+02  0.51100000000E-03 0. -1.
        -11    1    3    3    0    0  0.13035669295E+02  0.20912281146E+01  0.71680995085E+01  0.15022768048E+02  0.51100000000E-03 0.  1.
        -12    1    3    3    0    0 -0.48322593656E+01  0.80684057369E+01  0.15755627135E+02  0.18349105922E+02  0.00000000000E+00 0.  1.
</event>
<event>
 7    1  0.6136531E-013  0.5052884E+02  0.7816164E-02  0.1300439E+00
        -11   -1    0    0    0    0  0.00000000000E+00  0.00000000000E+00  0.45593999997E+02  0.45594000000E+02  0.51100000000E-03 0.  1.
         11   -1    0    0    0    0 -0.00000000000E+00 -0.00000000000E+00 -0.45593999997E+02  0.45594000000E+02  0.51100000000E-03 0. -1.
    9900012    2    1    2    0    0 -0.39341558433E+02 -0.74644490734E+01  0.70492112379E+01  0.50528836224E+02  0.29999928186E+02 0.  0.
         12    1    1    2    0    0  0.39341558433E+02  0.74644490734E+01 -0.70492112379E+01  0.40659163776E+02  0.00000000000E+00 0. -1.
         11    1    3    3    0    0 -0.15490360692E+02 -0.14982388690E+02  0.64241790224E+01  0.22487625967E+02  0.51100000000E-03 0. -1.
        -11    1    3    3    0    0 -0.21831726443E+02  0.28161774204E+01 -0.23243166674E+01  0.22134985498E+02  0.51100000000E-03 0.  1.
         12    1    3    3    0    0 -0.20194712975E+01  0.47017621965E+01  0.29493488830E+01  0.59062247593E+01  0.00000000000E+00 0. -1.
</event>
<event>
 7    1  0.6136531E-013  0.5052886E+02  0.7816164E-02  0.1300439E+00
        -11   -1    0    0    0    0  0.00000000000E+00  0.00000000000E+00  0.45593999997E+02  0.45594000000E+02  0.51100000000E-03 0.  1.
         11   -1    0    0    0    0 -0.00000000000E+00 -0.00000000000E+00 -0.45593999997E+02  0.45594000000E+02  0.51100000000E-03 0. -1.
    9900012    2    1    2    0    0  0.78336835885E+01  0.20168763320E+02  0.34424115673E+02  0.50528863852E+02  0.30000012164E+02 0.  0.
         12    1    1    2    0    0 -0.78336835885E+01 -0.20168763320E+02 -0.34424115673E+02  0.40659136148E+02  0.00000000000E+00 0. -1.
         11    1    3    3    0    0  0.13745433699E+02  0.20584152187E+02  0.15024498132E+02  0.28954789124E+02  0.51100000000E-03 0. -1.
        -11    1    3    3    0    0 -0.66494047168E+01  0.88905385819E+00  0.99119175275E+01  0.11968755540E+02  0.51100000000E-03 0.  1.
         12    1    3    3    0    0  0.73765460583E+00 -0.13044427247E+01  0.94877000139E+01  0.96053191875E+01  0.00000000000E+00 0. -1.
</event>
<event>
 7    1  0.6136531E-013  0.5052886E+02  0.7816164E-02  0.1300439E+00
        -11   -1    0    0    0    0  0.00000000000E+00  0.00000000000E+00  0.45593999997E+02  0.45594000000E+02  0.51100000000E-03 0.  1.
         11   -1    0    0    0    0 -0.00000000000E+00 -0.00000000000E+00 -0.45593999997E+02  0.45594000000E+02  0.51100000000E-03 0. -1.
    9900012    2    1    2    0    0 -0.19697047482E+02  0.13026509556E+01  0.35545680067E+02  0.50528856496E+02  0.29999989806E+02 0.  0.
         12    1    1    2    0    0  0.19697047482E+02 -0.13026509556E+01 -0.35545680067E+02  0.40659143504E+02  0.00000000000E+00 0. -1.
         11    1    3    3    0    0 -0.41792300794E+00  0.21944902592E+01  0.21967949782E+02  0.22081242380E+02  0.51100000000E-03 0. -1.
        -11    1    3    3    0    0 -0.14724884249E+02 -0.78078537586E+01  0.82102346618E+01  0.18579363550E+02  0.51100000000E-03 0.  1.
         12    1    3    3    0    0 -0.45542402246E+01  0.69160144551E+01  0.53674956232E+01  0.98682505659E+01  0.00000000000E+00 0. -1.
</event>
<event>
 7    1  0.6136531E-013  0.5052886E+02  0.7816164E-02  0.1300439E+00
        -11   -1    0    0    0    0  0.00000000000E+00  0.00000000000E+00  0.45593999997E+02  0.45594000000E+02  0.51100000000E-03 0.  1.
         11   -1    0    0    0    0 -0.00000000000E+00 -0.00000000000E+00 -0.45593999997E+02  0.45594000000E+02  0.51100000000E-03 0. -1.
    9900012    2    1    2    0    0  0.56980745306E+01 -0.28225793299E+02  0.28705434109E+02  0.50528863165E+02  0.30000010077E+02 0.  0.
         12    1    1    2    0    0 -0.56980745306E+01  0.28225793299E+02 -0.28705434109E+02  0.40659136835E+02  0.00000000000E+00 0. -1.
         11    1    3    3    0    0 -0.53712660000E+01  0.40861089216E+01  0.37032480377E+01  0.76981056665E+01  0.51100000000E-03 0. -1.
        -11    1    3    3    0    0  0.32220363192E+01 -0.16428429845E+02  0.92642842751E+01  0.19133786572E+02  0.51100000000E-03 0.  1.
         12    1    3    3    0    0  0.78473042115E+01 -0.15883472376E+02  0.15737901797E+02  0.23696970926E+02  0.00000000000E+00 0. -1.
</event>
<event>
 7    1  0.6136531E-013  0.5052890E+02  0.7816164E-02  0.1300439E+00
        -11   -1    0    0    0    0  0.00000000000E+00  0.00000000000E+00  0.45593999997E+02  0.45594000000E+02  0.51100000000E-03 0.  1.
         11   -1    0    0    0    0 -0.00000000000E+00 -0.00000000000E+00 -0.45593999997E+02  0.45594000000E+02  0.51100000000E-03 0. -1.
    9900012    2    1    2    0    0  0.27179458066E+02 -0.28940498945E+02  0.87685022594E+01  0.50528904439E+02  0.30000135532E+02 0.  0.
         12    1    1    2    0    0 -0.27179458066E+02  0.28940498945E+02 -0.87685022594E+01  0.40659095561E+02  0.00000000000E+00 0. -1.
         11    1    3    3    0    0  0.40796949009E+01  0.22603496461E+01 -0.41516399505E+01  0.62441336906E+01  0.51100000000E-03 0. -1.
        -11    1    3    3    0    0  0.78872464859E+01 -0.16942086787E+02  0.14085770500E+02  0.23401963436E+02  0.51100000000E-03 0.  1.
        -12    1    3    3    0    0  0.15212516680E+02 -0.14258761804E+02 -0.11656282905E+01  0.20882807312E+02  0.00000000000E+00 0.  1.
</event>
<event>
 7    1  0.6136531E-013  0.5052886E+02  0.7816164E-02  0.1300439E+00
        -11   -1    0    0    0    0  0.00000000000E+00  0.00000000000E+00  0.45593999997E+02  0.45594000000E+02  0.51100000000E-03 0.  1.
         11   -1    0    0    0    0 -0.00000000000E+00 -0.00000000000E+00 -0.45593999997E+02  0.45594000000E+02  0.51100000000E-03 0. -1.
    9900012    2    1    2    0    0  0.35647610558E+02 -0.18276919846E+01  0.19469802685E+02  0.50528858186E+02  0.29999994941E+02 0.  0.
         12    1    1    2    0    0 -0.35647610558E+02  0.18276919846E+01 -0.19469802685E+02  0.40659141814E+02  0.00000000000E+00 0. -1.
         11    1    3    3    0    0 -0.19113593942E+01 -0.35041051375E+01  0.37146459219E+01  0.54525812359E+01  0.51100000000E-03 0. -1.
        -11    1    3    3    0    0  0.27261086152E+02  0.98759543381E+01  0.12068635370E+02  0.31406261354E+02  0.51100000000E-03 0.  1.
        -12    1    3    3    0    0  0.10297883800E+02 -0.81995411852E+01  0.36865213938E+01  0.13670015596E+02  0.00000000000E+00 0.  1.
</event>
<event>
 7    1  0.6136531E-013  0.5052885E+02  0.7816164E-02  0.1300439E+00
        -11   -1    0    0    0    0  0.00000000000E+00  0.00000000000E+00  0.45593999997E+02  0.45594000000E+02  0.51100000000E-03 0.  1.
         11   -1    0    0    0    0 -0.00000000000E+00 -0.00000000000E+00 -0.45593999997E+02  0.45594000000E+02  0.51100000000E-03 0. -1.
    9900012    2    1    2    0    0  0.31482885070E+02 -0.25269331837E+02  0.48430345646E+01  0.50528853825E+02  0.29999981688E+02 0.  0.
         12    1    1    2    0    0 -0.31482885070E+02  0.25269331837E+02 -0.48430345646E+01  0.40659146175E+02  0.00000000000E+00 0. -1.
         11    1    3    3    0    0  0.29650630429E+02 -0.12778923931E+02  0.65222297629E+01  0.32939342176E+02  0.51100000000E-03 0.  1.
        -11    1    3    3    0    0  0.12187760081E+00 -0.93268989884E+01  0.45641492284E+01  0.10384476748E+02  0.51100000000E-03 0. -1.
         12    1    3    3    0    0  0.17103770404E+01 -0.31635089180E+01 -0.62433444267E+01  0.72050349010E+01  0.00000000000E+00 0. -1.
</event>
<event>
 7    1  0.6136531E-013  0.5052887E+02  0.7816164E-02  0.1300439E+00
        -11   -1    0    0    0    0  0.00000000000E+00  0.00000000000E+00  0.45593999997E+02  0.45594000000E+02  0.51100000000E-03 0.  1.
         11   -1    0    0    0    0 -0.00000000000E+00 -0.00000000000E+00 -0.45593999997E+02  0.45594000000E+02  0.51100000000E-03 0. -1.
    9900012    2    1    2    0    0 -0.97446837545E+01  0.37234436835E+02 -0.13107366769E+02  0.50528865583E+02  0.30000017427E+02 0.  0.
         12    1    1    2    0    0  0.97446837545E+01 -0.37234436835E+02  0.13107366769E+02  0.40659134417E+02  0.00000000000E+00 0. -1.
         11    1    3    3    0    0 -0.70555935090E+01 -0.82073685355E+00  0.21923455964E+01  0.74338003889E+01  0.51100000000E-03 0. -1.
        -11    1    3    3    0    0  0.46510154321E+01  0.72059274768E+01 -0.31501431727E+01  0.91367793899E+01  0.51100000000E-03 0.  1.
         12    1    3    3    0    0 -0.73401056776E+01  0.30849246212E+02 -0.12149569192E+02  0.33958285804E+02  0.00000000000E+00 0. -1.
</event>
<event>
 7    1  0.6136531E-013  0.5052886E+02  0.7816164E-02  0.1300439E+00
        -11   -1    0    0    0    0  0.00000000000E+00  0.00000000000E+00  0.45593999997E+02  0.45594000000E+02  0.51100000000E-03 0.  1.
         11   -1    0    0    0    0 -0.00000000000E+00 -0.00000000000E+00 -0.45593999997E+02  0.45594000000E+02  0.51100000000E-03 0. -1.
    9900012    2    1    2    0    0  0.12206596754E+02  0.30968199238E+02  0.23348134905E+02  0.50528858692E+02  0.29999996480E+02 0.  0.
         12    1    1    2    0    0 -0.12206596754E+02 -0.30968199238E+02 -0.23348134905E+02  0.40659141308E+02  0.00000000000E+00 0. -1.
         11    1    3    3    0    0 -0.80995704722E+01  0.64746781623E+01  0.10018116362E+02  0.14418292369E+02  0.51100000000E-03 0. -1.
        -11    1    3    3    0    0  0.16328878794E+02  0.12111820618E+02  0.60739232966E+01  0.21218412425E+02  0.51100000000E-03 0.  1.
        -12    1    3    3    0    0  0.39772884327E+01  0.12381700458E+02  0.72560952470E+01  0.14892153898E+02  0.00000000000E+00 0.  1.
</event>
<event>
 7    1  0.6136531E-013  0.5052885E+02  0.7816164E-02  0.1300439E+00
        -11   -1    0    0    0    0  0.00000000000E+00  0.00000000000E+00  0.45593999997E+02  0.45594000000E+02  0.51100000000E-03 0.  1.
         11   -1    0    0    0    0 -0.00000000000E+00 -0.00000000000E+00 -0.45593999997E+02  0.45594000000E+02  0.51100000000E-03 0. -1.
    9900012    2    1    2    0    0  0.15932783480E+01 -0.17263734823E+02  0.36777592406E+02  0.50528851225E+02  0.29999973784E+02 0.  0.
         12    1    1    2    0    0 -0.15932783480E+01  0.17263734823E+02 -0.36777592406E+02  0.40659148775E+02  0.00000000000E+00 0. -1.
         11    1    3    3    0    0 -0.36949635343E+01 -0.15446752577E+02  0.30607133177E+02  0.34482626383E+02  0.51100000000E-03 0. -1.
        -11    1    3    3    0    0  0.44065637260E+01  0.43715912781E+01  0.74174683097E+01  0.96719931017E+01  0.51100000000E-03 0.  1.
         12    1    3    3    0    0  0.88167815633E+00 -0.61885735241E+01 -0.12470090807E+01  0.63742317405E+01  0.00000000000E+00 0. -1.
</event>
<event>
 7    1  0.6136531E-013  0.5052888E+02  0.7816164E-02  0.1300439E+00
        -11   -1    0    0    0    0  0.00000000000E+00  0.00000000000E+00  0.45593999997E+02  0.45594000000E+02  0.51100000000E-03 0.  1.
         11   -1    0    0    0    0 -0.00000000000E+00 -0.00000000000E+00 -0.45593999997E+02  0.45594000000E+02  0.51100000000E-03 0. -1.
    9900012    2    1    2    0    0  0.22747195131E+02  0.30025649373E+02  0.15303255041E+02  0.50528878988E+02  0.30000058172E+02 0.  0.
         12    1    1    2    0    0 -0.22747195131E+02 -0.30025649373E+02 -0.15303255041E+02  0.40659121012E+02  0.00000000000E+00 0. -1.
         11    1    3    3    0    0  0.18407782525E+02  0.12665448157E+02 -0.23206248467E+01  0.22464312464E+02  0.51100000000E-03 0. -1.
        -11    1    3    3    0    0  0.83381126301E+01  0.87137849268E+01  0.77029202610E+01  0.14310455995E+02  0.51100000000E-03 0.  1.
         12    1    3    3    0    0 -0.39987000246E+01  0.86464162894E+01  0.99209596269E+01  0.13754110529E+02  0.00000000000E+00 0. -1.
</event>
<event>
 7    1  0.6136531E-013  0.5052886E+02  0.7816164E-02  0.1300439E+00
        -11   -1    0    0    0    0  0.00000000000E+00  0.00000000000E+00  0.45593999997E+02  0.45594000000E+02  0.51100000000E-03 0.  1.
         11   -1    0    0    0    0 -0.00000000000E+00 -0.00000000000E+00 -0.45593999997E+02  0.45594000000E+02  0.51100000000E-03 0. -1.
    9900012    2    1    2    0    0  0.99002943491E+01 -0.96805088439E+01  0.38228757480E+02  0.50528856156E+02  0.29999988772E+02 0.  0.
         12    1    1    2    0    0 -0.99002943491E+01  0.96805088439E+01 -0.38228757480E+02  0.40659143844E+02  0.00000000000E+00 0. -1.
         11    1    3    3    0    0  0.19620739776E+01  0.18573005622E+01  0.14200953477E+01  0.30522075174E+01  0.51100000000E-03 0. -1.
        -11    1    3    3    0    0  0.65950828158E+01 -0.43695751312E+01  0.39052899590E+02  0.39846170090E+02  0.51100000000E-03 0.  1.
        -12    1    3    3    0    0  0.13431375557E+01 -0.71682342748E+01 -0.22442374581E+01  0.76304785486E+01  0.00000000000E+00 0.  1.
</event>
<event>
 7    1  0.6136531E-013  0.5052886E+02  0.7816164E-02  0.1300439E+00
        -11   -1    0    0    0    0  0.00000000000E+00  0.00000000000E+00  0.45593999997E+02  0.45594000000E+02  0.51100000000E-03 0.  1.
         11   -1    0    0    0    0 -0.00000000000E+00 -0.00000000000E+00 -0.45593999997E+02  0.45594000000E+02  0.51100000000E-03 0. -1.
    9900012    2    1    2    0    0  0.27352638369E+02  0.12764838390E+02  0.27240732960E+02  0.50528862564E+02  0.30000008248E+02 0.  0.
         12    1    1    2    0    0 -0.27352638369E+02 -0.12764838390E+02 -0.27240732960E+02  0.40659137436E+02  0.00000000000E+00 0. -1.
         11    1    3    3    0    0  0.85104412156E+01  0.63191774408E+01 -0.25883795231E+01  0.10911430797E+02  0.51100000000E-03 0. -1.
        -11    1    3    3    0    0  0.21297601017E+02  0.82483226913E+01  0.24613606429E+02  0.33577555867E+02  0.51100000000E-03 0.  1.
         12    1    3    3    0    0 -0.24554038634E+01 -0.18026617421E+01  0.52155060537E+01  0.60398758998E+01  0.00000000000E+00 0. -1.
</event>
<event>
 7    1  0.6136531E-013  0.5052888E+02  0.7816164E-02  0.1300439E+00
        -11   -1    0    0    0    0  0.00000000000E+00  0.00000000000E+00  0.45593999997E+02  0.45594000000E+02  0.51100000000E-03 0.  1.
         11   -1    0    0    0    0 -0.00000000000E+00 -0.00000000000E+00 -0.45593999997E+02  0.45594000000E+02  0.51100000000E-03 0. -1.
    9900012    2    1    2    0    0 -0.26956275630E+02 -0.21474188129E+02  0.21572720754E+02  0.50528882543E+02  0.30000068978E+02 0.  0.
         12    1    1    2    0    0  0.26956275630E+02  0.21474188129E+02 -0.21572720754E+02  0.40659117457E+02  0.00000000000E+00 0. -1.
         11    1    3    3    0    0 -0.69115937010E+01  0.52290304944E+01 -0.15188894724E+01  0.87988586128E+01  0.51100000000E-03 0. -1.
        -11    1    3    3    0    0 -0.12950172712E+02 -0.99220738125E+01  0.13285592502E+02  0.21039522105E+02  0.51100000000E-03 0.  1.
         12    1    3    3    0    0 -0.70945092170E+01 -0.16781144810E+02  0.98060177250E+01  0.20690501826E+02  0.00000000000E+00 0. -1.
</event>
<event>
 7    1  0.6136531E-013  0.5052886E+02  0.7816164E-02  0.1300439E+00
        -11   -1    0    0    0    0  0.00000000000E+00  0.00000000000E+00  0.45593999997E+02  0.45594000000E+02  0.51100000000E-03 0. -1.
         11   -1    0    0    0    0 -0.00000000000E+00 -0.00000000000E+00 -0.45593999997E+02  0.45594000000E+02  0.51100000000E-03 0.  1.
    9900012    2    1    2    0    0  0.10747757010E+02 -0.33709414863E+02 -0.20033140979E+02  0.50528859962E+02  0.30000000340E+02 0.  0.
         12    1    1    2    0    0 -0.10747757010E+02  0.33709414863E+02  0.20033140979E+02  0.40659140038E+02  0.00000000000E+00 0. -1.
         11    1    3    3    0    0  0.10433310866E+02 -0.17433680754E+02 -0.54162738590E+00  0.20324383404E+02  0.51100000000E-03 0. -1.
        -11    1    3    3    0    0  0.31970637480E+01 -0.37985734191E+01 -0.16254518984E+02  0.16995874920E+02  0.51100000000E-03 0.  1.
        -12    1    3    3    0    0 -0.28826176045E+01 -0.12477160690E+02 -0.32369946089E+01  0.13208601638E+02  0.00000000000E+00 0.  1.
</event>
<event>
 7    1  0.6136531E-013  0.5052886E+02  0.7816164E-02  0.1300439E+00
        -11   -1    0    0    0    0  0.00000000000E+00  0.00000000000E+00  0.45593999997E+02  0.45594000000E+02  0.51100000000E-03 0.  1.
         11   -1    0    0    0    0 -0.00000000000E+00 -0.00000000000E+00 -0.45593999997E+02  0.45594000000E+02  0.51100000000E-03 0. -1.
    9900012    2    1    2    0    0  0.94326305822E+01 -0.11770713801E+02  0.37757668625E+02  0.50528858800E+02  0.29999996809E+02 0.  0.
         12    1    1    2    0    0 -0.94326305822E+01  0.11770713801E+02 -0.37757668625E+02  0.40659141200E+02  0.00000000000E+00 0. -1.
         11    1    3    3    0    0  0.13432186041E+02  0.68313951742E+00  0.61611022457E+01  0.14793562201E+02  0.51100000000E-03 0. -1.
        -11    1    3    3    0    0  0.12250217606E+01 -0.11212809835E+02  0.20165437175E+02  0.23105684137E+02  0.51100000000E-03 0.  1.
        -12    1    3    3    0    0 -0.52245772198E+01 -0.12410434832E+01  0.11431129205E+02  0.12629612463E+02  0.00000000000E+00 0.  1.
</event>
<event>
 7    1  0.6136531E-013  0.5052886E+02  0.7816164E-02  0.1300439E+00
        -11   -1    0    0    0    0  0.00000000000E+00  0.00000000000E+00  0.45593999997E+02  0.45594000000E+02  0.51100000000E-03 0. -1.
         11   -1    0    0    0    0 -0.00000000000E+00 -0.00000000000E+00 -0.45593999997E+02  0.45594000000E+02  0.51100000000E-03 0.  1.
    9900012    2    1    2    0    0  0.28862170925E+02 -0.44059488595E+01 -0.28297142864E+02  0.50528860927E+02  0.30000003273E+02 0.  0.
         12    1    1    2    0    0 -0.28862170925E+02  0.44059488595E+01  0.28297142864E+02  0.40659139073E+02  0.00000000000E+00 0. -1.
         11    1    3    3    0    0  0.88505576668E+01  0.69843926615E+01 -0.68739967988E+01  0.13204769749E+02  0.51100000000E-03 0. -1.
        -11    1    3    3    0    0  0.23970967554E+02 -0.11140252130E+02 -0.17237143415E+02  0.31556799844E+02  0.51100000000E-03 0.  1.
        -12    1    3    3    0    0 -0.39593542958E+01 -0.25008939061E+00 -0.41860026507E+01  0.57672913343E+01  0.00000000000E+00 0.  1.
</event>
<event>
 7    1  0.6136531E-013  0.5052886E+02  0.7816164E-02  0.1300439E+00
        -11   -1    0    0    0    0  0.00000000000E+00  0.00000000000E+00  0.45593999997E+02  0.45594000000E+02  0.51100000000E-03 0.  1.
         11   -1    0    0    0    0 -0.00000000000E+00 -0.00000000000E+00 -0.45593999997E+02  0.45594000000E+02  0.51100000000E-03 0. -1.
    9900012    2    1    2    0    0  0.84885888570E+01  0.15267065331E+02  0.36715476228E+02  0.50528860570E+02  0.30000002187E+02 0.  0.
         12    1    1    2    0    0 -0.84885888570E+01 -0.15267065331E+02 -0.36715476228E+02  0.40659139430E+02  0.00000000000E+00 0. -1.
         11    1    3    3    0    0 -0.60326940823E+00 -0.65156735491E+01  0.53062785074E-01  0.65437566961E+01  0.51100000000E-03 0. -1.
        -11    1    3    3    0    0  0.82432783799E+01  0.16665253951E+02  0.24446343161E+02  0.30713287384E+02  0.51100000000E-03 0.  1.
         12    1    3    3    0    0  0.84857988532E+00  0.51174849291E+01  0.12216070281E+02  0.13271816490E+02  0.00000000000E+00 0. -1.
</event>
<event>
 7    1  0.6136531E-013  0.5052886E+02  0.7816164E-02  0.1300439E+00
        -11   -1    0    0    0    0  0.00000000000E+00  0.00000000000E+00  0.45593999997E+02  0.45594000000E+02  0.51100000000E-03 0. -1.
         11   -1    0    0    0    0 -0.00000000000E+00 -0.00000000000E+00 -0.45593999997E+02  0.45594000000E+02  0.51100000000E-03 0.  1.
    9900012    2    1    2    0    0  0.33098851767E+02 -0.17898386341E+02 -0.15403886802E+02  0.50528856495E+02  0.29999989803E+02 0.  0.
         12    1    1    2    0    0 -0.33098851767E+02  0.17898386341E+02  0.15403886802E+02  0.40659143505E+02  0.00000000000E+00 0. -1.
         11    1    3    3    0    0  0.22240880235E+02 -0.59151956854E+01  0.46578618099E+01  0.23480672276E+02  0.51100000000E-03 0. -1.
        -11    1    3    3    0    0  0.10641829133E+02 -0.90015805939E+01 -0.11800780129E+02  0.18262951361E+02  0.51100000000E-03 0.  1.
         12    1    3    3    0    0  0.21614239859E+00 -0.29816100619E+01 -0.82609684828E+01  0.87852328581E+01  0.00000000000E+00 0. -1.
</event>
<event>
 7    1  0.6136531E-013  0.5052886E+02  0.7816164E-02  0.1300439E+00
        -11   -1    0    0    0    0  0.00000000000E+00  0.00000000000E+00  0.45593999997E+02  0.45594000000E+02  0.51100000000E-03 0.  1.
         11   -1    0    0    0    0 -0.00000000000E+00 -0.00000000000E+00 -0.45593999997E+02  0.45594000000E+02  0.51100000000E-03 0. -1.
    9900012    2    1    2    0    0  0.52213083043E+01 -0.32963705921E+02  0.23222778564E+02  0.50528863109E+02  0.30000009907E+02 0.  0.
         12    1    1    2    0    0 -0.52213083043E+01  0.32963705921E+02 -0.23222778564E+02  0.40659136891E+02  0.00000000000E+00 0. -1.
         11    1    3    3    0    0 -0.41667172431E+01  0.36268242149E+01  0.16361085351E+01  0.57612705083E+01  0.51100000000E-03 0. -1.
        -11    1    3    3    0    0  0.10586621547E+02 -0.34074386544E+02  0.22046774534E+02  0.41942825867E+02  0.51100000000E-03 0.  1.
        -12    1    3    3    0    0 -0.11985959993E+01 -0.25161435917E+01 -0.46010450459E+00  0.28247667335E+01  0.00000000000E+00 0.  1.
</event>
<event>
 7    1  0.6136531E-013  0.5052886E+02  0.7816164E-02  0.1300439E+00
        -11   -1    0    0    0    0  0.00000000000E+00  0.00000000000E+00  0.45593999997E+02  0.45594000000E+02  0.51100000000E-03 0.  1.
         11   -1    0    0    0    0 -0.00000000000E+00 -0.00000000000E+00 -0.45593999997E+02  0.45594000000E+02  0.51100000000E-03 0. -1.
    9900012    2    1    2    0    0 -0.69585324844E+01 -0.76353908618E+01  0.39324871718E+02  0.50528857073E+02  0.29999991559E+02 0.  0.
         12    1    1    2    0    0  0.69585324844E+01  0.76353908618E+01 -0.39324871718E+02  0.40659142927E+02  0.00000000000E+00 0. -1.
         11    1    3    3    0    0 -0.15692841985E+01  0.58437463003E+00  0.23050729898E+01  0.28491241379E+01  0.51100000000E-03 0. -1.
        -11    1    3    3    0    0 -0.87629451833E+01 -0.64838550164E+01  0.40855380881E+02  0.42284651250E+02  0.51100000000E-03 0.  1.
        -12    1    3    3    0    0  0.33736968975E+01 -0.17359104755E+01 -0.38355821530E+01  0.53950816850E+01  0.00000000000E+00 0.  1.
</event>
<event>
 7    1  0.6136531E-013  0.5052886E+02  0.7816164E-02  0.1300439E+00
        -11   -1    0    0    0    0  0.00000000000E+00  0.00000000000E+00  0.45593999997E+02  0.45594000000E+02  0.51100000000E-03 0. -1.
         11   -1    0    0    0    0 -0.00000000000E+00 -0.00000000000E+00 -0.45593999997E+02  0.45594000000E+02  0.51100000000E-03 0.  1.
    9900012    2    1    2    0    0 -0.13490589729E+02  0.27009314177E+02 -0.27233561457E+02  0.50528856709E+02  0.29999990452E+02 0.  0.
         12    1    1    2    0    0  0.13490589729E+02 -0.27009314177E+02  0.27233561457E+02  0.40659143291E+02  0.00000000000E+00 0. -1.
         11    1    3    3    0    0 -0.67722906352E+01  0.20196139843E+01  0.28630871378E+01  0.76249609385E+01  0.51100000000E-03 0. -1.
        -11    1    3    3    0    0 -0.11358803700E+02  0.12974722725E+02 -0.20803465056E+02  0.27021288087E+02  0.51100000000E-03 0.  1.
         12    1    3    3    0    0  0.46405046058E+01  0.12014977467E+02 -0.92931835390E+01  0.15882607683E+02  0.00000000000E+00 0. -1.
</event>
<event>
 7    1  0.6136531E-013  0.5052886E+02  0.7816164E-02  0.1300439E+00
        -11   -1    0    0    0    0  0.00000000000E+00  0.00000000000E+00  0.45593999997E+02  0.45594000000E+02  0.51100000000E-03 0.  1.
         11   -1    0    0    0    0 -0.00000000000E+00 -0.00000000000E+00 -0.45593999997E+02  0.45594000000E+02  0.51100000000E-03 0. -1.
    9900012    2    1    2    0    0 -0.73462814560E+01  0.20135102801E+01  0.39939244611E+02  0.50528864065E+02  0.30000012812E+02 0.  0.
         12    1    1    2    0    0  0.73462814560E+01 -0.20135102801E+01 -0.39939244611E+02  0.40659135935E+02  0.00000000000E+00 0. -1.
         11    1    3    3    0    0 -0.15816425416E+02 -0.52961735597E+01  0.13162894495E+02  0.21247836573E+02  0.51100000000E-03 0. -1.
        -11    1    3    3    0    0  0.17487997367E+01  0.16581824097E+01  0.10644159274E+02  0.10913569367E+02  0.51100000000E-03 0.  1.
         12    1    3    3    0    0  0.67213442231E+01  0.56515014301E+01  0.16132190842E+02  0.18367458124E+02  0.00000000000E+00 0. -1.
</event>
<event>
 7    1  0.6136531E-013  0.5052884E+02  0.7816164E-02  0.1300439E+00
        -11   -1    0    0    0    0  0.00000000000E+00  0.00000000000E+00  0.45593999997E+02  0.45594000000E+02  0.51100000000E-03 0. -1.
         11   -1    0    0    0    0 -0.00000000000E+00 -0.00000000000E+00 -0.45593999997E+02  0.45594000000E+02  0.51100000000E-03 0.  1.
    9900012    2    1    2    0    0 -0.66501865334E+01  0.30013967759E+02 -0.26610218859E+02  0.50528843721E+02  0.29999950975E+02 0.  0.
         12    1    1    2    0    0  0.66501865334E+01 -0.30013967759E+02  0.26610218859E+02  0.40659156279E+02  0.00000000000E+00 0. -1.
         11    1    3    3    0    0 -0.53962290525E+01  0.50801834155E+00 -0.23966192918E+01  0.59263103963E+01  0.51100000000E-03 0. -1.
        -11    1    3    3    0    0  0.95305228015E+01  0.69603701566E+01 -0.40061920118E+01  0.12463033029E+02  0.51100000000E-03 0.  1.
        -12    1    3    3    0    0 -0.10784480282E+02  0.22545579261E+02 -0.20207407555E+02  0.32139500296E+02  0.00000000000E+00 0.  1.
</event>
<event>
 7    1  0.6136531E-013  0.5052889E+02  0.7816164E-02  0.1300439E+00
        -11   -1    0    0    0    0  0.00000000000E+00  0.00000000000E+00  0.45593999997E+02  0.45594000000E+02  0.51100000000E-03 0. -1.
         11   -1    0    0    0    0 -0.00000000000E+00 -0.00000000000E+00 -0.45593999997E+02  0.45594000000E+02  0.51100000000E-03 0.  1.
    9900012    2    1    2    0    0 -0.36431708715E+02  0.17051136628E+01 -0.17971831616E+02  0.50528886088E+02  0.30000079753E+02 0.  0.
         12    1    1    2    0    0  0.36431708715E+02 -0.17051136628E+01  0.17971831616E+02  0.40659113912E+02  0.00000000000E+00 0. -1.
         11    1    3    3    0    0 -0.11954785014E+01  0.34235111377E+01 -0.10127577088E+02  0.10757202949E+02  0.51100000000E-03 0. -1.
        -11    1    3    3    0    0 -0.29438165545E+02  0.24698082584E+00 -0.12597169598E+02  0.32021169128E+02  0.51100000000E-03 0.  1.
         12    1    3    3    0    0 -0.57980646686E+01 -0.19653783007E+01  0.47529150703E+01  0.77505140108E+01  0.00000000000E+00 0. -1.
</event>
<event>
 7    1  0.6136531E-013  0.5052883E+02  0.7816164E-02  0.1300439E+00
        -11   -1    0    0    0    0  0.00000000000E+00  0.00000000000E+00  0.45593999997E+02  0.45594000000E+02  0.51100000000E-03 0.  1.
         11   -1    0    0    0    0 -0.00000000000E+00 -0.00000000000E+00 -0.45593999997E+02  0.45594000000E+02  0.51100000000E-03 0. -1.
    9900012    2    1    2    0    0 -0.13765641305E+02 -0.29944099698E+02  0.23812304401E+02  0.50528833406E+02  0.29999919620E+02 0.  0.
         12    1    1    2    0    0  0.13765641305E+02  0.29944099698E+02 -0.23812304401E+02  0.40659166594E+02  0.00000000000E+00 0. -1.
         11    1    3    3    0    0  0.34696474962E+01  0.30521394472E+01  0.11963487431E+01  0.47733907790E+01  0.51100000000E-03 0. -1.
        -11    1    3    3    0    0 -0.90873581496E+00 -0.14839859627E+02  0.12102704481E+02  0.19170881319E+02  0.51100000000E-03 0.  1.
         12    1    3    3    0    0 -0.16326552986E+02 -0.18156379518E+02  0.10513251177E+02  0.26584561308E+02  0.00000000000E+00 0. -1.
</event>
<event>
 7    1  0.6136531E-013  0.5052886E+02  0.7816164E-02  0.1300439E+00
        -11   -1    0    0    0    0  0.00000000000E+00  0.00000000000E+00  0.45593999997E+02  0.45594000000E+02  0.51100000000E-03 0.  1.
         11   -1    0    0    0    0 -0.00000000000E+00 -0.00000000000E+00 -0.45593999997E+02  0.45594000000E+02  0.51100000000E-03 0. -1.
    9900012    2    1    2    0    0  0.58681078069E+01  0.31757052015E+02  0.24702639874E+02  0.50528862544E+02  0.30000008189E+02 0.  0.
         12    1    1    2    0    0 -0.58681078069E+01 -0.31757052015E+02 -0.24702639874E+02  0.40659137456E+02  0.00000000000E+00 0. -1.
         11    1    3    3    0    0 -0.14243086096E+01  0.17139289129E+00  0.10783668189E+01  0.17946882169E+01  0.51100000000E-03 0.  1.
        -11    1    3    3    0    0  0.40213613319E+01 -0.40997956558E+01 -0.12423944781E+00  0.57441367570E+01  0.51100000000E-03 0. -1.
        -12    1    3    3    0    0  0.32710550846E+01  0.35685454779E+02  0.23748512503E+02  0.42990037570E+02  0.00000000000E+00 0.  1.
</event>
<event>
 7    1  0.6136531E-013  0.5052883E+02  0.7816164E-02  0.1300439E+00
        -11   -1    0    0    0    0  0.00000000000E+00  0.00000000000E+00  0.45593999997E+02  0.45594000000E+02  0.51100000000E-03 0.  1.
         11   -1    0    0    0    0 -0.00000000000E+00 -0.00000000000E+00 -0.45593999997E+02  0.45594000000E+02  0.51100000000E-03 0. -1.
    9900012    2    1    2    0    0 -0.70399171216E+00  0.65855697961E+01  0.40116114292E+02  0.50528831787E+02  0.29999914699E+02 0.  0.
         12    1    1    2    0    0  0.70399171216E+00 -0.65855697961E+01 -0.40116114292E+02  0.40659168213E+02  0.00000000000E+00 0. -1.
         11    1    3    3    0    0  0.26355051401E+00  0.49626695770E+01  0.34785578257E+02  0.35138782039E+02  0.51100000000E-03 0. -1.
        -11    1    3    3    0    0 -0.53061242220E+01  0.61646124802E+01  0.25786273116E+01  0.85326854134E+01  0.51100000000E-03 0.  1.
         12    1    3    3    0    0  0.43385819958E+01 -0.45417122611E+01  0.27519087232E+01  0.68573643347E+01  0.00000000000E+00 0. -1.
</event>
<event>
 7    1  0.6136531E-013  0.5052888E+02  0.7816164E-02  0.1300439E+00
        -11   -1    0    0    0    0  0.00000000000E+00  0.00000000000E+00  0.45593999997E+02  0.45594000000E+02  0.51100000000E-03 0.  1.
         11   -1    0    0    0    0 -0.00000000000E+00 -0.00000000000E+00 -0.45593999997E+02  0.45594000000E+02  0.51100000000E-03 0. -1.
    9900012    2    1    2    0    0  0.51502113140E+01  0.11162096925E+02  0.38756247529E+02  0.50528882857E+02  0.30000069931E+02 0.  0.
         12    1    1    2    0    0 -0.51502113140E+01 -0.11162096925E+02 -0.38756247529E+02  0.40659117143E+02  0.00000000000E+00 0. -1.
         11    1    3    3    0    0  0.11249329543E+02 -0.38438466972E+01  0.18991185842E+02  0.22405082293E+02  0.51100000000E-03 0. -1.
        -11    1    3    3    0    0 -0.33698241701E+01  0.10157610795E+02  0.40326678783E+01  0.11436572147E+02  0.51100000000E-03 0.  1.
         12    1    3    3    0    0 -0.27292940591E+01  0.48483328275E+01  0.15732393809E+02  0.16687228417E+02  0.00000000000E+00 0. -1.
</event>
<event>
 7    1  0.6136531E-013  0.5052888E+02  0.7816164E-02  0.1300439E+00
        -11   -1    0    0    0    0  0.00000000000E+00  0.00000000000E+00  0.45593999997E+02  0.45594000000E+02  0.51100000000E-03 0.  1.
         11   -1    0    0    0    0 -0.00000000000E+00 -0.00000000000E+00 -0.45593999997E+02  0.45594000000E+02  0.51100000000E-03 0. -1.
    9900012    2    1    2    0    0  0.43601676072E+01  0.36098965031E+02  0.18193901216E+02  0.50528875817E+02  0.30000048533E+02 0.  0.
         12    1    1    2    0    0 -0.43601676072E+01 -0.36098965031E+02 -0.18193901216E+02  0.40659124183E+02  0.00000000000E+00 0. -1.
         11    1    3    3    0    0 -0.60585514970E+01  0.63456439132E+01  0.10828786931E+02  0.13936852930E+02  0.51100000000E-03 0. -1.
        -11    1    3    3    0    0  0.69503625597E+01  0.29759986903E+02  0.25626713091E+01  0.30668088377E+02  0.51100000000E-03 0.  1.
        -12    1    3    3    0    0  0.34683565444E+01 -0.66657853803E-02  0.48024429753E+01  0.59239345104E+01  0.00000000000E+00 0.  1.
</event>
<event>
 7    1  0.6136531E-013  0.5052879E+02  0.7816164E-02  0.1300439E+00
        -11   -1    0    0    0    0  0.00000000000E+00  0.00000000000E+00  0.45593999997E+02  0.45594000000E+02  0.51100000000E-03 0.  1.
         11   -1    0    0    0    0 -0.00000000000E+00 -0.00000000000E+00 -0.45593999997E+02  0.45594000000E+02  0.51100000000E-03 0. -1.
    9900012    2    1    2    0    0 -0.26921681887E+02 -0.37106295673E+01  0.30242771897E+02  0.50528794653E+02  0.29999801827E+02 0.  0.
         12    1    1    2    0    0  0.26921681887E+02  0.37106295673E+01 -0.30242771897E+02  0.40659205347E+02  0.00000000000E+00 0. -1.
         11    1    3    3    0    0 -0.11415350881E+02 -0.13940840573E+02  0.12701544439E+02  0.22045101565E+02  0.51100000000E-03 0. -1.
        -11    1    3    3    0    0 -0.13703633562E+01  0.54101546925E+01  0.10674870149E+02  0.12045767825E+02  0.51100000000E-03 0.  1.
         12    1    3    3    0    0 -0.14135967650E+02  0.48200563136E+01  0.68663573092E+01  0.16437925263E+02  0.00000000000E+00 0. -1.
</event>
<event>
 7    1  0.6136531E-013  0.5052886E+02  0.7816164E-02  0.1300439E+00
        -11   -1    0    0    0    0  0.00000000000E+00  0.00000000000E+00  0.45593999997E+02  0.45594000000E+02  0.51100000000E-03 0. -1.
         11   -1    0    0    0    0 -0.00000000000E+00 -0.00000000000E+00 -0.45593999997E+02  0.45594000000E+02  0.51100000000E-03 0.  1.
    9900012    2    1    2    0    0  0.13328561359E+02 -0.17456469577E+02 -0.34216766277E+02  0.50528856226E+02  0.29999988984E+02 0.  0.
         12    1    1    2    0    0 -0.13328561359E+02  0.17456469577E+02  0.34216766277E+02  0.40659143774E+02  0.00000000000E+00 0. -1.
         11    1    3    3    0    0  0.18720954579E+02 -0.83610391240E+01 -0.16805755783E+02  0.26510649620E+02  0.51100000000E-03 0. -1.
        -11    1    3    3    0    0 -0.14832603304E+01 -0.11733992007E+02 -0.12318213412E+02  0.17077031696E+02  0.51100000000E-03 0.  1.
         12    1    3    3    0    0 -0.39091328892E+01  0.26385615534E+01 -0.50927970818E+01  0.69411749101E+01  0.00000000000E+00 0. -1.
</event>
<event>
 7    1  0.6136531E-013  0.5052887E+02  0.7816164E-02  0.1300439E+00
        -11   -1    0    0    0    0  0.00000000000E+00  0.00000000000E+00  0.45593999997E+02  0.45594000000E+02  0.51100000000E-03 0. -1.
         11   -1    0    0    0    0 -0.00000000000E+00 -0.00000000000E+00 -0.45593999997E+02  0.45594000000E+02  0.51100000000E-03 0.  1.
    9900012    2    1    2    0    0  0.36557837997E+02 -0.53653538772E+01 -0.16967682240E+02  0.50528870867E+02  0.30000033487E+02 0.  0.
         12    1    1    2    0    0 -0.36557837997E+02  0.53653538772E+01  0.16967682240E+02  0.40659129133E+02  0.00000000000E+00 0. -1.
         11    1    3    3    0    0  0.62061280281E+00 -0.27143499382E+01 -0.58117031314E+01  0.64442803622E+01  0.51100000000E-03 0. -1.
        -11    1    3    3    0    0  0.17225521809E+02  0.99138161432E+01 -0.29198681424E+01  0.20088005933E+02  0.51100000000E-03 0.  1.
        -12    1    3    3    0    0  0.18711703385E+02 -0.12564820082E+02 -0.82361109665E+01  0.23996584572E+02  0.00000000000E+00 0.  1.
</event>
<event>
 7    1  0.6136531E-013  0.5052884E+02  0.7816164E-02  0.1300439E+00
        -11   -1    0    0    0    0  0.00000000000E+00  0.00000000000E+00  0.45593999997E+02  0.45594000000E+02  0.51100000000E-03 0.  1.
         11   -1    0    0    0    0 -0.00000000000E+00 -0.00000000000E+00 -0.45593999997E+02  0.45594000000E+02  0.51100000000E-03 0. -1.
    9900012    2    1    2    0    0  0.10117159829E+02  0.37084670313E+02  0.13249065162E+02  0.50528838389E+02  0.29999934767E+02 0.  0.
         12    1    1    2    0    0 -0.10117159829E+02 -0.37084670313E+02 -0.13249065162E+02  0.40659161611E+02  0.00000000000E+00 0. -1.
         11    1    3    3    0    0  0.15562114867E+02  0.77879742132E+01  0.31875377659E+01  0.17691590057E+02  0.51100000000E-03 0. -1.
        -11    1    3    3    0    0  0.14506157001E+01  0.86437951407E+01  0.61699669577E+01  0.10718580730E+02  0.51100000000E-03 0.  1.
         12    1    3    3    0    0 -0.68955707381E+01  0.20652900959E+02  0.38915604384E+01  0.22118667602E+02  0.00000000000E+00 0. -1.
</event>
<event>
 7    1  0.6136531E-013  0.5052886E+02  0.7816164E-02  0.1300439E+00
        -11   -1    0    0    0    0  0.00000000000E+00  0.00000000000E+00  0.45593999997E+02  0.45594000000E+02  0.51100000000E-03 0.  1.
         11   -1    0    0    0    0 -0.00000000000E+00 -0.00000000000E+00 -0.45593999997E+02  0.45594000000E+02  0.51100000000E-03 0. -1.
    9900012    2    1    2    0    0 -0.16097089056E+01  0.25103811092E+02  0.31943280705E+02  0.50528859868E+02  0.30000000054E+02 0.  0.
         12    1    1    2    0    0  0.16097089056E+01 -0.25103811092E+02 -0.31943280705E+02  0.40659140132E+02  0.00000000000E+00 0. -1.
         11    1    3    3    0    0  0.76264194867E+01 -0.33775596071E+01  0.10567326636E+02  0.13462487719E+02  0.51100000000E-03 0. -1.
        -11    1    3    3    0    0 -0.40123962968E+01  0.65418369155E+01  0.44770727976E+01  0.88847698545E+01  0.51100000000E-03 0.  1.
         12    1    3    3    0    0 -0.52237320955E+01  0.21939533784E+02  0.16898881271E+02  0.28181602294E+02  0.00000000000E+00 0. -1.
</event>
<event>
 7    1  0.6136531E-013  0.5052885E+02  0.7816164E-02  0.1300439E+00
        -11   -1    0    0    0    0  0.00000000000E+00  0.00000000000E+00  0.45593999997E+02  0.45594000000E+02  0.51100000000E-03 0.  1.
         11   -1    0    0    0    0 -0.00000000000E+00 -0.00000000000E+00 -0.45593999997E+02  0.45594000000E+02  0.51100000000E-03 0. -1.
    9900012    2    1    2    0    0 -0.16843416766E+02  0.18953514852E+02  0.31784110503E+02  0.50528854731E+02  0.29999984439E+02 0.  0.
         12    1    1    2    0    0  0.16843416766E+02 -0.18953514852E+02 -0.31784110503E+02  0.40659145269E+02  0.00000000000E+00 0. -1.
         11    1    3    3    0    0 -0.23318970788E+00  0.10907190759E+02  0.19616004002E+02  0.22445685576E+02  0.51100000000E-03 0. -1.
        -11    1    3    3    0    0 -0.89157213524E+01  0.96580942039E+01 -0.52285025183E+00  0.13154552198E+02  0.51100000000E-03 0.  1.
         12    1    3    3    0    0 -0.76945057056E+01 -0.16117701113E+01  0.12690956753E+02  0.14928616957E+02  0.00000000000E+00 0. -1.
</event>
<event>
 7    1  0.6136531E-013  0.5052887E+02  0.7816164E-02  0.1300439E+00
        -11   -1    0    0    0    0  0.00000000000E+00  0.00000000000E+00  0.45593999997E+02  0.45594000000E+02  0.51100000000E-03 0. -1.
         11   -1    0    0    0    0 -0.00000000000E+00 -0.00000000000E+00 -0.45593999997E+02  0.45594000000E+02  0.51100000000E-03 0.  1.
    9900012    2    1    2    0    0  0.18501882799E+02  0.24859703215E+02  0.26321865880E+02  0.50528866531E+02  0.30000020309E+02 0.  0.
         12    1    1    2    0    0 -0.18501882799E+02 -0.24859703215E+02 -0.26321865880E+02  0.40659133469E+02  0.00000000000E+00 0. -1.
         11    1    3    3    0    0 -0.77742216726E+00 -0.37303120817E+01  0.46877749437E+01  0.60410965592E+01  0.51100000000E-03 0. -1.
        -11    1    3    3    0    0  0.10184638999E+02  0.26689536647E+02  0.20426800635E+02  0.35118548125E+02  0.51100000000E-03 0.  1.
        -12    1    3    3    0    0  0.90946659674E+01  0.19004786502E+01  0.12072903010E+01  0.93692218476E+01  0.00000000000E+00 0.  1.
</event>
<event>
 7    1  0.6136531E-013  0.5052886E+02  0.7816164E-02  0.1300439E+00
        -11   -1    0    0    0    0  0.00000000000E+00  0.00000000000E+00  0.45593999997E+02  0.45594000000E+02  0.51100000000E-03 0. -1.
         11   -1    0    0    0    0 -0.00000000000E+00 -0.00000000000E+00 -0.45593999997E+02  0.45594000000E+02  0.51100000000E-03 0.  1.
    9900012    2    1    2    0    0  0.17414674726E+02  0.81986509583E+01 -0.35814481860E+02  0.50528857311E+02  0.29999992282E+02 0.  0.
         12    1    1    2    0    0 -0.17414674726E+02 -0.81986509583E+01  0.35814481860E+02  0.40659142689E+02  0.00000000000E+00 0. -1.
         11    1    3    3    0    0  0.19980493419E+01 -0.74917868592E+01 -0.11720833156E+02  0.14053362646E+02  0.51100000000E-03 0. -1.
        -11    1    3    3    0    0  0.14863328917E+02  0.17107791825E+02 -0.14820719988E+02  0.27078567703E+02  0.51100000000E-03 0.  1.
        -12    1    3    3    0    0  0.55329646690E+00 -0.14173540075E+01 -0.92729287159E+01  0.93969269622E+01  0.00000000000E+00 0.  1.
</event>
<event>
 7    1  0.6136531E-013  0.5052887E+02  0.7816164E-02  0.1300439E+00
        -11   -1    0    0    0    0  0.00000000000E+00  0.00000000000E+00  0.45593999997E+02  0.45594000000E+02  0.51100000000E-03 0.  1.
         11   -1    0    0    0    0 -0.00000000000E+00 -0.00000000000E+00 -0.45593999997E+02  0.45594000000E+02  0.51100000000E-03 0. -1.
    9900012    2    1    2    0    0  0.10711742010E+02  0.39182622857E+02 -0.17736660071E+01  0.50528865209E+02  0.30000016290E+02 0.  0.
         12    1    1    2    0    0 -0.10711742010E+02 -0.39182622857E+02  0.17736660071E+01  0.40659134791E+02  0.00000000000E+00 0. -1.
         11    1    3    3    0    0  0.15921118047E+02  0.14650273213E+02  0.54508054454E+01  0.22311965072E+02  0.51100000000E-03 0.  1.
        -11    1    3    3    0    0 -0.28941381044E+01  0.24759859052E+02 -0.62891829046E+01  0.25709540593E+02  0.51100000000E-03 0. -1.
        -12    1    3    3    0    0 -0.23152379330E+01 -0.22750940850E+00 -0.93528854798E+00  0.25073595445E+01  0.00000000000E+00 0.  1.
</event>
<event>
 7    1  0.6136531E-013  0.5052886E+02  0.7816164E-02  0.1300439E+00
        -11   -1    0    0    0    0  0.00000000000E+00  0.00000000000E+00  0.45593999997E+02  0.45594000000E+02  0.51100000000E-03 0.  1.
         11   -1    0    0    0    0 -0.00000000000E+00 -0.00000000000E+00 -0.45593999997E+02  0.45594000000E+02  0.51100000000E-03 0. -1.
    9900012    2    1    2    0    0 -0.13892907837E+02 -0.36184210910E+02  0.12282343808E+02  0.50528856173E+02  0.29999988823E+02 0.  0.
         12    1    1    2    0    0  0.13892907837E+02  0.36184210910E+02 -0.12282343808E+02  0.40659143827E+02  0.00000000000E+00 0. -1.
         11    1    3    3    0    0 -0.49049488631E+01  0.31985140898E+01 -0.36565927296E+01  0.69035995237E+01  0.51100000000E-03 0. -1.
        -11    1    3    3    0    0 -0.66332708038E+01 -0.23025476370E+02  0.11082024845E+02  0.26400456787E+02  0.51100000000E-03 0.  1.
         12    1    3    3    0    0 -0.23546881698E+01 -0.16357248630E+02  0.48569116930E+01  0.17224799863E+02  0.00000000000E+00 0. -1.
</event>
<event>
 7    1  0.6136531E-013  0.5052886E+02  0.7816164E-02  0.1300439E+00
        -11   -1    0    0    0    0  0.00000000000E+00  0.00000000000E+00  0.45593999997E+02  0.45594000000E+02  0.51100000000E-03 0.  1.
         11   -1    0    0    0    0 -0.00000000000E+00 -0.00000000000E+00 -0.45593999997E+02  0.45594000000E+02  0.51100000000E-03 0. -1.
    9900012    2    1    2    0    0  0.31128534544E+02 -0.97831304787E+01  0.24258403633E+02  0.50528862630E+02  0.30000008451E+02 0.  0.
         12    1    1    2    0    0 -0.31128534544E+02  0.97831304787E+01 -0.24258403633E+02  0.40659137370E+02  0.00000000000E+00 0. -1.
         11    1    3    3    0    0  0.62448257712E+01 -0.17086282253E+02  0.87614241039E+01  0.20191618131E+02  0.51100000000E-03 0. -1.
        -11    1    3    3    0    0  0.89443687567E+01  0.14054342262E+01  0.60952419467E+01  0.10914621041E+02  0.51100000000E-03 0.  1.
         12    1    3    3    0    0  0.15939340016E+02  0.58977175484E+01  0.94017375829E+01  0.19422623458E+02  0.00000000000E+00 0. -1.
</event>
<event>
 7    1  0.6136531E-013  0.5052885E+02  0.7816164E-02  0.1300439E+00
        -11   -1    0    0    0    0  0.00000000000E+00  0.00000000000E+00  0.45593999997E+02  0.45594000000E+02  0.51100000000E-03 0.  1.
         11   -1    0    0    0    0 -0.00000000000E+00 -0.00000000000E+00 -0.45593999997E+02  0.45594000000E+02  0.51100000000E-03 0. -1.
    9900012    2    1    2    0    0 -0.12563118076E+02  0.24554646813E+02  0.29873131145E+02  0.50528848750E+02  0.29999966262E+02 0.  0.
         12    1    1    2    0    0  0.12563118076E+02 -0.24554646813E+02 -0.29873131145E+02  0.40659151250E+02  0.00000000000E+00 0. -1.
         11    1    3    3    0    0  0.14934399241E+01  0.18293698772E+01 -0.11925156640E+01  0.26455719277E+01  0.51100000000E-03 0. -1.
        -11    1    3    3    0    0 -0.70124749747E+01  0.14251963262E+02  0.33067043288E+02  0.36684092114E+02  0.51100000000E-03 0.  1.
        -12    1    3    3    0    0 -0.70440830259E+01  0.84733136735E+01 -0.20013964792E+01  0.11199184709E+02  0.00000000000E+00 0.  1.
</event>
<event>
 7    1  0.6136531E-013  0.5052886E+02  0.7816164E-02  0.1300439E+00
        -11   -1    0    0    0    0  0.00000000000E+00  0.00000000000E+00  0.45593999997E+02  0.45594000000E+02  0.51100000000E-03 0. -1.
         11   -1    0    0    0    0 -0.00000000000E+00 -0.00000000000E+00 -0.45593999997E+02  0.45594000000E+02  0.51100000000E-03 0.  1.
    9900012    2    1    2    0    0  0.12250895733E+02  0.24464378964E+02 -0.30076158225E+02  0.50528861077E+02  0.30000003729E+02 0.  0.
         12    1    1    2    0    0 -0.12250895733E+02 -0.24464378964E+02  0.30076158225E+02  0.40659138923E+02  0.00000000000E+00 0. -1.
         11    1    3    3    0    0 -0.38319214664E+01  0.16998495982E+02 -0.11790733386E+02  0.21039341288E+02  0.51100000000E-03 0. -1.
        -11    1    3    3    0    0  0.14529193985E+02  0.10841197989E+02 -0.18320796130E+02  0.25773642016E+02  0.51100000000E-03 0.  1.
         12    1    3    3    0    0  0.15536232151E+01 -0.33753150073E+01  0.35371291141E-01  0.37158777726E+01  0.00000000000E+00 0. -1.
</event>
<event>
 7    1  0.6136531E-013  0.5052892E+02  0.7816164E-02  0.1300439E+00
        -11   -1    0    0    0    0  0.00000000000E+00  0.00000000000E+00  0.45593999997E+02  0.45594000000E+02  0.51100000000E-03 0.  1.
         11   -1    0    0    0    0 -0.00000000000E+00 -0.00000000000E+00 -0.45593999997E+02  0.45594000000E+02  0.51100000000E-03 0. -1.
    9900012    2    1    2    0    0  0.16352213320E+02 -0.18175516027E+02  0.32487175744E+02  0.50528919205E+02  0.30000180414E+02 0.  0.
         12    1    1    2    0    0 -0.16352213320E+02  0.18175516027E+02 -0.32487175744E+02  0.40659080795E+02  0.00000000000E+00 0. -1.
         11    1    3    3    0    0 -0.66616932983E+01 -0.51288653748E+01  0.69217690652E+01  0.10890101234E+02  0.51100000000E-03 0. -1.
        -11    1    3    3    0    0  0.88566171313E+01 -0.12733952880E+02  0.17328918313E+02  0.23256926562E+02  0.51100000000E-03 0.  1.
         12    1    3    3    0    0  0.14157289487E+02 -0.31269777233E+00  0.82364883659E+01  0.16381891409E+02  0.00000000000E+00 0. -1.
</event>
<event>
 7    1  0.6136531E-013  0.5052891E+02  0.7816164E-02  0.1300439E+00
        -11   -1    0    0    0    0  0.00000000000E+00  0.00000000000E+00  0.45593999997E+02  0.45594000000E+02  0.51100000000E-03 0. -1.
         11   -1    0    0    0    0 -0.00000000000E+00 -0.00000000000E+00 -0.45593999997E+02  0.45594000000E+02  0.51100000000E-03 0.  1.
    9900012    2    1    2    0    0  0.31388984292E+02  0.25128324286E+02  0.60382798312E+01  0.50528907049E+02  0.30000143465E+02 0.  0.
         12    1    1    2    0    0 -0.31388984292E+02 -0.25128324286E+02 -0.60382798312E+01  0.40659092951E+02  0.00000000000E+00 0. -1.
         11    1    3    3    0    0  0.15337865356E+01  0.14763710388E+02 -0.28060330752E+01  0.15106073859E+02  0.51100000000E-03 0.  1.
        -11    1    3    3    0    0  0.22345822421E+02  0.84404820189E+01  0.30362418435E+00  0.23888694068E+02  0.51100000000E-03 0. -1.
        -12    1    3    3    0    0  0.75093753356E+01  0.19241318790E+01  0.85406887220E+01  0.11534139121E+02  0.00000000000E+00 0.  1.
</event>
<event>
 7    1  0.6136531E-013  0.5052885E+02  0.7816164E-02  0.1300439E+00
        -11   -1    0    0    0    0  0.00000000000E+00  0.00000000000E+00  0.45593999997E+02  0.45594000000E+02  0.51100000000E-03 0. -1.
         11   -1    0    0    0    0 -0.00000000000E+00 -0.00000000000E+00 -0.45593999997E+02  0.45594000000E+02  0.51100000000E-03 0.  1.
    9900012    2    1    2    0    0 -0.13148404613E+02  0.37291635771E+02 -0.94667683530E+01  0.50528851639E+02  0.29999975043E+02 0.  0.
         12    1    1    2    0    0  0.13148404613E+02 -0.37291635771E+02  0.94667683530E+01  0.40659148361E+02  0.00000000000E+00 0. -1.
         11    1    3    3    0    0  0.44712762130E+01  0.22563811228E+02 -0.32519597889E+01  0.23231296366E+02  0.51100000000E-03 0. -1.
        -11    1    3    3    0    0 -0.11873938099E+02  0.11948112407E+02  0.19240849674E+01  0.16954347504E+02  0.51100000000E-03 0.  1.
         12    1    3    3    0    0 -0.57457427276E+01  0.27797121362E+01 -0.81388935315E+01  0.10343207770E+02  0.00000000000E+00 0. -1.
</event>
<event>
 7    1  0.6136531E-013  0.5052894E+02  0.7816164E-02  0.1300439E+00
        -11   -1    0    0    0    0  0.00000000000E+00  0.00000000000E+00  0.45593999997E+02  0.45594000000E+02  0.51100000000E-03 0.  1.
         11   -1    0    0    0    0 -0.00000000000E+00 -0.00000000000E+00 -0.45593999997E+02  0.45594000000E+02  0.51100000000E-03 0. -1.
    9900012    2    1    2    0    0 -0.34403205706E+02  0.18314334961E+02 -0.11582898543E+02  0.50528942380E+02  0.30000250857E+02 0.  0.
         12    1    1    2    0    0  0.34403205706E+02 -0.18314334961E+02  0.11582898543E+02  0.40659057620E+02  0.00000000000E+00 0. -1.
         11    1    3    3    0    0 -0.10916994756E+01  0.64349421272E+01 -0.95324771984E+01  0.11552852882E+02  0.51100000000E-03 0. -1.
        -11    1    3    3    0    0 -0.99732420958E+01  0.16363041870E+01  0.65886925345E+01  0.12064572884E+02  0.51100000000E-03 0.  1.
        -12    1    3    3    0    0 -0.23338264134E+02  0.10243088647E+02 -0.86391138794E+01  0.26911516614E+02  0.00000000000E+00 0.  1.
</event>
<event>
 7    1  0.6136531E-013  0.5052884E+02  0.7816164E-02  0.1300439E+00
        -11   -1    0    0    0    0  0.00000000000E+00  0.00000000000E+00  0.45593999997E+02  0.45594000000E+02  0.51100000000E-03 0.  1.
         11   -1    0    0    0    0 -0.00000000000E+00 -0.00000000000E+00 -0.45593999997E+02  0.45594000000E+02  0.51100000000E-03 0. -1.
    9900012    2    1    2    0    0  0.92513949276E+01  0.14592811576E+02  0.36805287612E+02  0.50528835547E+02  0.29999926129E+02 0.  0.
         12    1    1    2    0    0 -0.92513949276E+01 -0.14592811576E+02 -0.36805287612E+02  0.40659164453E+02  0.00000000000E+00 0. -1.
         11    1    3    3    0    0 -0.17915696282E+01  0.46257280382E+01 -0.27071749354E+01  0.56511837705E+01  0.51100000000E-03 0. -1.
        -11    1    3    3    0    0  0.36429081136E+01 -0.22985619969E+01  0.21172300692E+02  0.21606028872E+02  0.51100000000E-03 0.  1.
         12    1    3    3    0    0  0.74000564422E+01  0.12265645535E+02  0.18340161855E+02  0.23271622905E+02  0.00000000000E+00 0. -1.
</event>
<event>
 7    1  0.6136531E-013  0.5052887E+02  0.7816164E-02  0.1300439E+00
        -11   -1    0    0    0    0  0.00000000000E+00  0.00000000000E+00  0.45593999997E+02  0.45594000000E+02  0.51100000000E-03 0. -1.
         11   -1    0    0    0    0 -0.00000000000E+00 -0.00000000000E+00 -0.45593999997E+02  0.45594000000E+02  0.51100000000E-03 0.  1.
    9900012    2    1    2    0    0 -0.20302502799E+02  0.11448444795E+02 -0.33315259409E+02  0.50528867968E+02  0.30000024675E+02 0.  0.
         12    1    1    2    0    0  0.20302502799E+02 -0.11448444795E+02  0.33315259409E+02  0.40659132032E+02  0.00000000000E+00 0. -1.
         11    1    3    3    0    0 -0.15870209936E+02  0.92619978882E+01 -0.12474526196E+02  0.22209501848E+02  0.51100000000E-03 0. -1.
        -11    1    3    3    0    0 -0.53610790583E+01 -0.63115997266E+01 -0.35087665816E+01  0.89938258246E+01  0.51100000000E-03 0.  1.
        -12    1    3    3    0    0  0.92878619466E+00  0.84980466329E+01 -0.17331966631E+02  0.19325540295E+02  0.00000000000E+00 0.  1.
</event>
<event>
 7    1  0.6136531E-013  0.5052887E+02  0.7816164E-02  0.1300439E+00
        -11   -1    0    0    0    0  0.00000000000E+00  0.00000000000E+00  0.45593999997E+02  0.45594000000E+02  0.51100000000E-03 0. -1.
         11   -1    0    0    0    0 -0.00000000000E+00 -0.00000000000E+00 -0.45593999997E+02  0.45594000000E+02  0.51100000000E-03 0.  1.
    9900012    2    1    2    0    0  0.19569835700E+02  0.35423939070E+02 -0.39155063668E+01  0.50528866725E+02  0.30000020896E+02 0.  0.
         12    1    1    2    0    0 -0.19569835700E+02 -0.35423939070E+02  0.39155063668E+01  0.40659133275E+02  0.00000000000E+00 0. -1.
         11    1    3    3    0    0  0.26164209127E+00  0.16712769480E+02  0.37672908001E+01  0.17134106353E+02  0.51100000000E-03 0. -1.
        -11    1    3    3    0    0  0.22084446137E+02  0.14478672411E+02 -0.31401995982E+01  0.26593524959E+02  0.51100000000E-03 0.  1.
        -12    1    3    3    0    0 -0.27762525280E+01  0.42324971794E+01 -0.45425975687E+01  0.68012354131E+01  0.00000000000E+00 0.  1.
</event>
<event>
 7    1  0.6136531E-013  0.5052886E+02  0.7816164E-02  0.1300439E+00
        -11   -1    0    0    0    0  0.00000000000E+00  0.00000000000E+00  0.45593999997E+02  0.45594000000E+02  0.51100000000E-03 0.  1.
         11   -1    0    0    0    0 -0.00000000000E+00 -0.00000000000E+00 -0.45593999997E+02  0.45594000000E+02  0.51100000000E-03 0. -1.
    9900012    2    1    2    0    0  0.15594448565E+02  0.37545296565E+02 -0.57379466462E+00  0.50528863751E+02  0.30000011858E+02 0.  0.
         12    1    1    2    0    0 -0.15594448565E+02 -0.37545296565E+02  0.57379466462E+00  0.40659136249E+02  0.00000000000E+00 0. -1.
         11    1    3    3    0    0 -0.34804128847E+01  0.72341498999E+00 -0.18993154791E+01  0.40303849252E+01  0.51100000000E-03 0. -1.
        -11    1    3    3    0    0  0.17699712018E+02  0.14545144329E+02 -0.46863938863E+01  0.23383825970E+02  0.51100000000E-03 0.  1.
        -12    1    3    3    0    0  0.13751494312E+01  0.22276737246E+02  0.60119147007E+01  0.23114652856E+02  0.00000000000E+00 0.  1.
</event>
<event>
 7    1  0.6136531E-013  0.5052886E+02  0.7816164E-02  0.1300439E+00
        -11   -1    0    0    0    0  0.00000000000E+00  0.00000000000E+00  0.45593999997E+02  0.45594000000E+02  0.51100000000E-03 0.  1.
         11   -1    0    0    0    0 -0.00000000000E+00 -0.00000000000E+00 -0.45593999997E+02  0.45594000000E+02  0.51100000000E-03 0. -1.
    9900012    2    1    2    0    0 -0.38560146707E+02 -0.12727597690E+02 -0.20710017255E+01  0.50528859513E+02  0.29999998976E+02 0.  0.
         12    1    1    2    0    0  0.38560146707E+02  0.12727597690E+02  0.20710017255E+01  0.40659140487E+02  0.00000000000E+00 0. -1.
         11    1    3    3    0    0 -0.17058770016E+02 -0.51167447546E+01  0.12450369203E+02  0.21730034627E+02  0.51100000000E-03 0. -1.
        -11    1    3    3    0    0 -0.85717858307E+01 -0.49066264175E+01 -0.11663991983E+02  0.15283952512E+02  0.51100000000E-03 0.  1.
        -12    1    3    3    0    0 -0.12929590860E+02 -0.27042265177E+01 -0.28573789448E+01  0.13514872374E+02  0.00000000000E+00 0.  1.
</event>
<event>
 7    1  0.6136531E-013  0.5052881E+02  0.7816164E-02  0.1300439E+00
        -11   -1    0    0    0    0  0.00000000000E+00  0.00000000000E+00  0.45593999997E+02  0.45594000000E+02  0.51100000000E-03 0.  1.
         11   -1    0    0    0    0 -0.00000000000E+00 -0.00000000000E+00 -0.45593999997E+02  0.45594000000E+02  0.51100000000E-03 0. -1.
    9900012    2    1    2    0    0 -0.33394372552E+01 -0.40517784189E+02  0.57206972518E+00  0.50528807429E+02  0.29999840660E+02 0.  0.
         12    1    1    2    0    0  0.33394372552E+01  0.40517784189E+02 -0.57206972518E+00  0.40659192571E+02  0.00000000000E+00 0. -1.
         11    1    3    3    0    0  0.92901512168E+01 -0.52519558753E+01  0.15503161695E+01  0.10783943186E+02  0.51100000000E-03 0. -1.
        -11    1    3    3    0    0 -0.54545704092E+01 -0.29512897872E+02  0.19967319520E+01  0.30079069432E+02  0.51100000000E-03 0.  1.
         12    1    3    3    0    0 -0.71750180627E+01 -0.57529304419E+01 -0.29749783963E+01  0.96657948110E+01  0.00000000000E+00 0. -1.
</event>
<event>
 7    1  0.6136531E-013  0.5052890E+02  0.7816164E-02  0.1300439E+00
        -11   -1    0    0    0    0  0.00000000000E+00  0.00000000000E+00  0.45593999997E+02  0.45594000000E+02  0.51100000000E-03 0.  1.
         11   -1    0    0    0    0 -0.00000000000E+00 -0.00000000000E+00 -0.45593999997E+02  0.45594000000E+02  0.51100000000E-03 0. -1.
    9900012    2    1    2    0    0 -0.11539702729E+02  0.33467421338E+02 -0.19998229486E+02  0.50528902462E+02  0.30000129522E+02 0.  0.
         12    1    1    2    0    0  0.11539702729E+02 -0.33467421338E+02  0.19998229486E+02  0.40659097538E+02  0.00000000000E+00 0. -1.
         11    1    3    3    0    0  0.42346752956E+01  0.21579986549E+01 -0.75814847449E+01  0.89480916542E+01  0.51100000000E-03 0. -1.
        -11    1    3    3    0    0 -0.18704855446E+02  0.19000113268E+02 -0.11022678640E+02  0.28850916210E+02  0.51100000000E-03 0.  1.
        -12    1    3    3    0    0  0.29304774219E+01  0.12309309414E+02 -0.13940661014E+01  0.12729894598E+02  0.00000000000E+00 0.  1.
</event>
<event>
 7    1  0.6136531E-013  0.5052887E+02  0.7816164E-02  0.1300439E+00
        -11   -1    0    0    0    0  0.00000000000E+00  0.00000000000E+00  0.45593999997E+02  0.45594000000E+02  0.51100000000E-03 0. -1.
         11   -1    0    0    0    0 -0.00000000000E+00 -0.00000000000E+00 -0.45593999997E+02  0.45594000000E+02  0.51100000000E-03 0.  1.
    9900012    2    1    2    0    0  0.36651195397E+02 -0.16967270326E+02 -0.46868171180E+01  0.50528872599E+02  0.30000038751E+02 0.  0.
         12    1    1    2    0    0 -0.36651195397E+02  0.16967270326E+02  0.46868171180E+01  0.40659127401E+02  0.00000000000E+00 0. -1.
         11    1    3    3    0    0  0.80949985613E+00 -0.12868261417E+02 -0.47811118194E+01  0.13751598904E+02  0.51100000000E-03 0. -1.
        -11    1    3    3    0    0  0.82129019097E+01 -0.29122868086E+01 -0.23208814793E+01  0.90177415873E+01  0.51100000000E-03 0.  1.
         12    1    3    3    0    0  0.27628793631E+02 -0.11867221000E+01  0.24151761807E+01  0.27759532108E+02  0.00000000000E+00 0. -1.
</event>
<event>
 7    1  0.6136531E-013  0.5052886E+02  0.7816164E-02  0.1300439E+00
        -11   -1    0    0    0    0  0.00000000000E+00  0.00000000000E+00  0.45593999997E+02  0.45594000000E+02  0.51100000000E-03 0.  1.
         11   -1    0    0    0    0 -0.00000000000E+00 -0.00000000000E+00 -0.45593999997E+02  0.45594000000E+02  0.51100000000E-03 0. -1.
    9900012    2    1    2    0    0  0.33467404057E+02  0.21822168959E+02  0.75426357847E+01  0.50528861458E+02  0.30000004887E+02 0.  0.
         12    1    1    2    0    0 -0.33467404057E+02 -0.21822168959E+02 -0.75426357847E+01  0.40659138542E+02  0.00000000000E+00 0. -1.
         11    1    3    3    0    0 -0.26797150659E+01 -0.10075976428E+01 -0.26850399430E+00  0.28754513559E+01  0.51100000000E-03 0. -1.
        -11    1    3    3    0    0  0.18550753606E+02  0.21977340916E+02  0.10361978346E+01  0.28778597591E+02  0.51100000000E-03 0.  1.
        -12    1    3    3    0    0  0.17596365517E+02  0.85242568611E+00  0.67749419445E+01  0.18874812511E+02  0.00000000000E+00 0.  1.
</event>
<event>
 7    1  0.6136531E-013  0.5052886E+02  0.7816164E-02  0.1300439E+00
        -11   -1    0    0    0    0  0.00000000000E+00  0.00000000000E+00  0.45593999997E+02  0.45594000000E+02  0.51100000000E-03 0. -1.
         11   -1    0    0    0    0 -0.00000000000E+00 -0.00000000000E+00 -0.45593999997E+02  0.45594000000E+02  0.51100000000E-03 0.  1.
    9900012    2    1    2    0    0  0.34612999792E+02  0.11568654255E+02 -0.17924060135E+02  0.50528862680E+02  0.30000008604E+02 0.  0.
         12    1    1    2    0    0 -0.34612999792E+02 -0.11568654255E+02  0.17924060135E+02  0.40659137320E+02  0.00000000000E+00 0. -1.
         11    1    3    3    0    0  0.11695995649E+02  0.17944769826E+02 -0.90627957417E+01  0.23258231774E+02  0.51100000000E-03 0. -1.
        -11    1    3    3    0    0  0.15838202178E+02 -0.16129917802E+01 -0.14799590951E+01  0.15988766991E+02  0.51100000000E-03 0.  1.
         12    1    3    3    0    0  0.70788019650E+01 -0.47631237912E+01 -0.73813052977E+01  0.11281863916E+02  0.00000000000E+00 0. -1.
</event>
<event>
 7    1  0.6136531E-013  0.5052887E+02  0.7816164E-02  0.1300439E+00
        -11   -1    0    0    0    0  0.00000000000E+00  0.00000000000E+00  0.45593999997E+02  0.45594000000E+02  0.51100000000E-03 0.  1.
         11   -1    0    0    0    0 -0.00000000000E+00 -0.00000000000E+00 -0.45593999997E+02  0.45594000000E+02  0.51100000000E-03 0. -1.
    9900012    2    1    2    0    0 -0.15334358369E+02 -0.18217265610E+02  0.32956841373E+02  0.50528871798E+02  0.30000036317E+02 0.  0.
         12    1    1    2    0    0  0.15334358369E+02  0.18217265610E+02 -0.32956841373E+02  0.40659128202E+02  0.00000000000E+00 0. -1.
         11    1    3    3    0    0 -0.52809608480E+01 -0.79151604080E+01  0.29235622124E+02  0.30745079492E+02  0.51100000000E-03 0. -1.
        -11    1    3    3    0    0 -0.12380440551E+02 -0.56274217895E+01  0.48554499891E+01  0.14440172405E+02  0.51100000000E-03 0.  1.
         12    1    3    3    0    0  0.23270430304E+01 -0.46746834123E+01 -0.11342307400E+01  0.53436199006E+01  0.00000000000E+00 0. -1.
</event>
<event>
 7    1  0.6136531E-013  0.5052885E+02  0.7816164E-02  0.1300439E+00
        -11   -1    0    0    0    0  0.00000000000E+00  0.00000000000E+00  0.45593999997E+02  0.45594000000E+02  0.51100000000E-03 0.  1.
         11   -1    0    0    0    0 -0.00000000000E+00 -0.00000000000E+00 -0.45593999997E+02  0.45594000000E+02  0.51100000000E-03 0. -1.
    9900012    2    1    2    0    0  0.23201379106E+02  0.12410492360E+02  0.30997449966E+02  0.50528853214E+02  0.29999979828E+02 0.  0.
         12    1    1    2    0    0 -0.23201379106E+02 -0.12410492360E+02 -0.30997449966E+02  0.40659146786E+02  0.00000000000E+00 0. -1.
         11    1    3    3    0    0 -0.80847640754E+00 -0.23628312025E+01  0.13912250534E+01  0.28586907499E+01  0.51100000000E-03 0. -1.
        -11    1    3    3    0    0  0.23691611817E+02  0.70700346466E+01  0.10121596919E+02  0.26715624358E+02  0.51100000000E-03 0.  1.
        -12    1    3    3    0    0  0.31824369611E+00  0.77032889156E+01  0.19484627993E+02  0.20954538105E+02  0.00000000000E+00 0.  1.
</event>
<event>
 7    1  0.6136531E-013  0.5052885E+02  0.7816164E-02  0.1300439E+00
        -11   -1    0    0    0    0  0.00000000000E+00  0.00000000000E+00  0.45593999997E+02  0.45594000000E+02  0.51100000000E-03 0.  1.
         11   -1    0    0    0    0 -0.00000000000E+00 -0.00000000000E+00 -0.45593999997E+02  0.45594000000E+02  0.51100000000E-03 0. -1.
    9900012    2    1    2    0    0  0.26845590097E+02 -0.35479182887E+00  0.30534481986E+02  0.50528853734E+02  0.29999981410E+02 0.  0.
         12    1    1    2    0    0 -0.26845590097E+02  0.35479182887E+00 -0.30534481986E+02  0.40659146266E+02  0.00000000000E+00 0. -1.
         11    1    3    3    0    0  0.25454261153E+02  0.83134101308E+00  0.18839474405E+02  0.31678641619E+02  0.51100000000E-03 0.  1.
        -11    1    3    3    0    0  0.13041970384E+01  0.32202123118E+01 -0.23073321761E+01  0.41706689248E+01  0.51100000000E-03 0. -1.
         12    1    3    3    0    0  0.87131905312E-01 -0.44063451538E+01  0.14002339757E+02  0.14679543190E+02  0.00000000000E+00 0. -1.
</event>
<event>
 7    1  0.6136531E-013  0.5052886E+02  0.7816164E-02  0.1300439E+00
        -11   -1    0    0    0    0  0.00000000000E+00  0.00000000000E+00  0.45593999997E+02  0.45594000000E+02  0.51100000000E-03 0.  1.
         11   -1    0    0    0    0 -0.00000000000E+00 -0.00000000000E+00 -0.45593999997E+02  0.45594000000E+02  0.51100000000E-03 0. -1.
    9900012    2    1    2    0    0 -0.38985951026E+02 -0.10714922612E+02  0.42955397391E+01  0.50528860737E+02  0.30000002695E+02 0.  0.
         12    1    1    2    0    0  0.38985951026E+02  0.10714922612E+02 -0.42955397391E+01  0.40659139263E+02  0.00000000000E+00 0. -1.
         11    1    3    3    0    0 -0.37388048537E+02 -0.98470579730E+00 -0.50487197539E+00  0.37404421061E+02  0.51100000000E-03 0. -1.
        -11    1    3    3    0    0 -0.21329648969E+01 -0.51721645150E+01  0.61760704446E+01  0.83333469519E+01  0.51100000000E-03 0.  1.
        -12    1    3    3    0    0  0.53506240827E+00 -0.45580522995E+01 -0.13756587301E+01  0.47910927238E+01  0.00000000000E+00 0.  1.
</event>
<event>
 7    1  0.6136531E-013  0.5052884E+02  0.7816164E-02  0.1300439E+00
        -11   -1    0    0    0    0  0.00000000000E+00  0.00000000000E+00  0.45593999997E+02  0.45594000000E+02  0.51100000000E-03 0.  1.
         11   -1    0    0    0    0 -0.00000000000E+00 -0.00000000000E+00 -0.45593999997E+02  0.45594000000E+02  0.51100000000E-03 0. -1.
    9900012    2    1    2    0    0  0.11816864038E+02  0.12611693490E+02  0.36803176466E+02  0.50528844987E+02  0.29999954823E+02 0.  0.
         12    1    1    2    0    0 -0.11816864038E+02 -0.12611693490E+02 -0.36803176466E+02  0.40659155013E+02  0.00000000000E+00 0. -1.
         11    1    3    3    0    0  0.58543179567E+01  0.11351161992E+02  0.36735755494E+02  0.38892642611E+02  0.51100000000E-03 0. -1.
        -11    1    3    3    0    0  0.25718557498E+01  0.13056805167E+01  0.49277737598E+01  0.57098334563E+01  0.51100000000E-03 0.  1.
         12    1    3    3    0    0  0.33906903317E+01 -0.45149018492E-01 -0.48603527877E+01  0.59263689204E+01  0.00000000000E+00 0. -1.
</event>
<event>
 7    1  0.6136531E-013  0.5052884E+02  0.7816164E-02  0.1300439E+00
        -11   -1    0    0    0    0  0.00000000000E+00  0.00000000000E+00  0.45593999997E+02  0.45594000000E+02  0.51100000000E-03 0. -1.
         11   -1    0    0    0    0 -0.00000000000E+00 -0.00000000000E+00 -0.45593999997E+02  0.45594000000E+02  0.51100000000E-03 0.  1.
    9900012    2    1    2    0    0 -0.10484004050E+02 -0.39164850921E+02 -0.30606654376E+01  0.50528836685E+02  0.29999929586E+02 0.  0.
         12    1    1    2    0    0  0.10484004050E+02  0.39164850921E+02  0.30606654376E+01  0.40659163315E+02  0.00000000000E+00 0. -1.
         11    1    3    3    0    0 -0.12772925179E+02 -0.20742590955E+02 -0.28631537310E+01  0.24527542614E+02  0.51100000000E-03 0.  1.
        -11    1    3    3    0    0 -0.20599201776E+01  0.31679065497E+01  0.11109263422E+01  0.39386622912E+01  0.51100000000E-03 0. -1.
        -12    1    3    3    0    0  0.43488413067E+01 -0.21590166516E+02 -0.13084380487E+01  0.22062631779E+02  0.00000000000E+00 0.  1.
</event>
<event>
 7    1  0.6136531E-013  0.5052886E+02  0.7816164E-02  0.1300439E+00
        -11   -1    0    0    0    0  0.00000000000E+00  0.00000000000E+00  0.45593999997E+02  0.45594000000E+02  0.51100000000E-03 0.  1.
         11   -1    0    0    0    0 -0.00000000000E+00 -0.00000000000E+00 -0.45593999997E+02  0.45594000000E+02  0.51100000000E-03 0. -1.
    9900012    2    1    2    0    0  0.16592479450E+02  0.36068975310E+02 -0.87683814964E+01  0.50528857507E+02  0.29999992878E+02 0.  0.
         12    1    1    2    0    0 -0.16592479450E+02 -0.36068975310E+02  0.87683814964E+01  0.40659142493E+02  0.00000000000E+00 0. -1.
         11    1    3    3    0    0 -0.38542139248E+01 -0.16250936858E+01  0.16706987627E+01  0.45041235643E+01  0.51100000000E-03 0. -1.
        -11    1    3    3    0    0  0.13416772787E+02  0.16477368835E+02  0.24759266732E+00  0.21250288895E+02  0.51100000000E-03 0.  1.
         12    1    3    3    0    0  0.70299205881E+01  0.21216700160E+02 -0.10686672926E+02  0.24774445047E+02  0.00000000000E+00 0. -1.
</event>
<event>
 7    1  0.6136531E-013  0.5052886E+02  0.7816164E-02  0.1300439E+00
        -11   -1    0    0    0    0  0.00000000000E+00  0.00000000000E+00  0.45593999997E+02  0.45594000000E+02  0.51100000000E-03 0.  1.
         11   -1    0    0    0    0 -0.00000000000E+00 -0.00000000000E+00 -0.45593999997E+02  0.45594000000E+02  0.51100000000E-03 0. -1.
    9900012    2    1    2    0    0 -0.23678964723E+02  0.57290190106E+01  0.32552275427E+02  0.50528860011E+02  0.30000000489E+02 0.  0.
         12    1    1    2    0    0  0.23678964723E+02 -0.57290190106E+01 -0.32552275427E+02  0.40659139989E+02  0.00000000000E+00 0. -1.
         11    1    3    3    0    0 -0.18828930905E+02  0.13008585119E+02  0.18718792065E+02  0.29565944978E+02  0.51100000000E-03 0. -1.
        -11    1    3    3    0    0 -0.93569540365E+01 -0.39983449329E+01  0.89934469994E+01  0.13580185574E+02  0.51100000000E-03 0.  1.
         12    1    3    3    0    0  0.45069202189E+01 -0.32812211749E+01  0.48400363631E+01  0.73827294583E+01  0.00000000000E+00 0. -1.
</event>
<event>
 7    1  0.6136531E-013  0.5052886E+02  0.7816164E-02  0.1300439E+00
        -11   -1    0    0    0    0  0.00000000000E+00  0.00000000000E+00  0.45593999997E+02  0.45594000000E+02  0.51100000000E-03 0.  1.
         11   -1    0    0    0    0 -0.00000000000E+00 -0.00000000000E+00 -0.45593999997E+02  0.45594000000E+02  0.51100000000E-03 0. -1.
    9900012    2    1    2    0    0 -0.16700647557E+02 -0.16275238658E+01  0.37035184946E+02  0.50528863428E+02  0.30000010876E+02 0.  0.
         12    1    1    2    0    0  0.16700647557E+02  0.16275238658E+01 -0.37035184946E+02  0.40659136572E+02  0.00000000000E+00 0. -1.
         11    1    3    3    0    0  0.16093690517E+01 -0.91201547120E+00 -0.83772837664E+00  0.20306723169E+01  0.51100000000E-03 0. -1.
        -11    1    3    3    0    0 -0.12536960124E+02  0.13194930556E+01  0.40061016633E+02  0.41997636660E+02  0.51100000000E-03 0.  1.
        -12    1    3    3    0    0 -0.57730564848E+01 -0.20350014503E+01 -0.21881033101E+01  0.65005544514E+01  0.00000000000E+00 0.  1.
</event>
<event>
 7    1  0.6136531E-013  0.5052886E+02  0.7816164E-02  0.1300439E+00
        -11   -1    0    0    0    0  0.00000000000E+00  0.00000000000E+00  0.45593999997E+02  0.45594000000E+02  0.51100000000E-03 0.  1.
         11   -1    0    0    0    0 -0.00000000000E+00 -0.00000000000E+00 -0.45593999997E+02  0.45594000000E+02  0.51100000000E-03 0. -1.
    9900012    2    1    2    0    0  0.39073187470E+02  0.64712392096E+01  0.91964575875E+01  0.50528858984E+02  0.29999997368E+02 0.  0.
         12    1    1    2    0    0 -0.39073187470E+02 -0.64712392096E+01 -0.91964575875E+01  0.40659141016E+02  0.00000000000E+00 0. -1.
         11    1    3    3    0    0  0.38647257261E+01 -0.70375590982E+01 -0.14015694651E+01  0.81503214799E+01  0.51100000000E-03 0. -1.
        -11    1    3    3    0    0  0.25174623092E+02  0.10372776616E+02 -0.30964244277E+00  0.27229616619E+02  0.51100000000E-03 0.  1.
        -12    1    3    3    0    0  0.10033838652E+02  0.31360216919E+01  0.10907669495E+02  0.15148920885E+02  0.00000000000E+00 0.  1.
</event>
<event>
 7    1  0.6136531E-013  0.5052886E+02  0.7816164E-02  0.1300439E+00
        -11   -1    0    0    0    0  0.00000000000E+00  0.00000000000E+00  0.45593999997E+02  0.45594000000E+02  0.51100000000E-03 0.  1.
         11   -1    0    0    0    0 -0.00000000000E+00 -0.00000000000E+00 -0.45593999997E+02  0.45594000000E+02  0.51100000000E-03 0. -1.
    9900012    2    1    2    0    0 -0.27488142143E+01  0.14736301276E+01  0.40539336708E+02  0.50528863437E+02  0.30000010902E+02 0.  0.
         12    1    1    2    0    0  0.27488142143E+01 -0.14736301276E+01 -0.40539336708E+02  0.40659136563E+02  0.00000000000E+00 0. -1.
         11    1    3    3    0    0 -0.91875909894E+01  0.71171014755E+01  0.34137493684E+02  0.36061522942E+02  0.51100000000E-03 0. -1.
        -11    1    3    3    0    0  0.33386522474E+01 -0.46570636818E-01 -0.20111106779E+01  0.38978627571E+01  0.51100000000E-03 0.  1.
         12    1    3    3    0    0  0.31001245277E+01 -0.55969007111E+01  0.84129537024E+01  0.10569477738E+02  0.00000000000E+00 0. -1.
</event>
<event>
 7    1  0.6136531E-013  0.5052886E+02  0.7816164E-02  0.1300439E+00
        -11   -1    0    0    0    0  0.00000000000E+00  0.00000000000E+00  0.45593999997E+02  0.45594000000E+02  0.51100000000E-03 0. -1.
         11   -1    0    0    0    0 -0.00000000000E+00 -0.00000000000E+00 -0.45593999997E+02  0.45594000000E+02  0.51100000000E-03 0.  1.
    9900012    2    1    2    0    0 -0.60848060396E+01  0.39095897766E+02 -0.93622309602E+01  0.50528862587E+02  0.30000008318E+02 0.  0.
         12    1    1    2    0    0  0.60848060396E+01 -0.39095897766E+02  0.93622309602E+01  0.40659137413E+02  0.00000000000E+00 0. -1.
         11    1    3    3    0    0 -0.11665825079E+02  0.10329188526E+02  0.46809363278E+01  0.16269443001E+02  0.51100000000E-03 0. -1.
        -11    1    3    3    0    0  0.17054415481E+01  0.25413414242E+02 -0.14142608199E+02  0.29133546321E+02  0.51100000000E-03 0.  1.
         12    1    3    3    0    0  0.38755774913E+01  0.33532949971E+01  0.99440911360E-01  0.51258732645E+01  0.00000000000E+00 0. -1.
</event>
<event>
 7    1  0.6136531E-013  0.5052876E+02  0.7816164E-02  0.1300439E+00
        -11   -1    0    0    0    0  0.00000000000E+00  0.00000000000E+00  0.45593999997E+02  0.45594000000E+02  0.51100000000E-03 0.  1.
         11   -1    0    0    0    0 -0.00000000000E+00 -0.00000000000E+00 -0.45593999997E+02  0.45594000000E+02  0.51100000000E-03 0. -1.
    9900012    2    1    2    0    0  0.15146657629E+02  0.15257074440E+02  0.34510494450E+02  0.50528760152E+02  0.29999696958E+02 0.  0.
         12    1    1    2    0    0 -0.15146657629E+02 -0.15257074440E+02 -0.34510494450E+02  0.40659239848E+02  0.00000000000E+00 0. -1.
         11    1    3    3    0    0  0.20659954209E+02  0.29198015260E+01  0.14733353987E+02  0.25542722424E+02  0.51100000000E-03 0.  1.
        -11    1    3    3    0    0 -0.42730083935E+01  0.43018245599E+01  0.13208046601E+02  0.14533299369E+02  0.51100000000E-03 0. -1.
         12    1    3    3    0    0 -0.12402881868E+01  0.80354483541E+01  0.65690938618E+01  0.10452738359E+02  0.00000000000E+00 0. -1.
</event>
<event>
 7    1  0.6136531E-013  0.5052892E+02  0.7816164E-02  0.1300439E+00
        -11   -1    0    0    0    0  0.00000000000E+00  0.00000000000E+00  0.45593999997E+02  0.45594000000E+02  0.51100000000E-03 0.  1.
         11   -1    0    0    0    0 -0.00000000000E+00 -0.00000000000E+00 -0.45593999997E+02  0.45594000000E+02  0.51100000000E-03 0. -1.
    9900012    2    1    2    0    0  0.27270842634E+01  0.13274274026E+02  0.38334290310E+02  0.50528915491E+02  0.30000169126E+02 0.  0.
         12    1    1    2    0    0 -0.27270842634E+01 -0.13274274026E+02 -0.38334290310E+02  0.40659084509E+02  0.00000000000E+00 0. -1.
         11    1    3    3    0    0  0.78358524554E+01  0.89769119301E+01  0.11987188117E+02  0.16902017948E+02  0.51100000000E-03 0. -1.
        -11    1    3    3    0    0 -0.11089415406E+02 -0.27859641272E+01  0.16777889202E+02  0.20303553790E+02  0.51100000000E-03 0.  1.
        -12    1    3    3    0    0  0.59806472145E+01  0.70833262230E+01  0.95692129915E+01  0.13323343753E+02  0.00000000000E+00 0.  1.
</event>
<event>
 7    1  0.6136531E-013  0.5052888E+02  0.7816164E-02  0.1300439E+00
        -11   -1    0    0    0    0  0.00000000000E+00  0.00000000000E+00  0.45593999997E+02  0.45594000000E+02  0.51100000000E-03 0.  1.
         11   -1    0    0    0    0 -0.00000000000E+00 -0.00000000000E+00 -0.45593999997E+02  0.45594000000E+02  0.51100000000E-03 0. -1.
    9900012    2    1    2    0    0  0.28134030985E+02  0.14378756417E+02  0.25590845262E+02  0.50528884211E+02  0.30000074046E+02 0.  0.
         12    1    1    2    0    0 -0.28134030985E+02 -0.14378756417E+02 -0.25590845262E+02  0.40659115789E+02  0.00000000000E+00 0. -1.
         11    1    3    3    0    0  0.16302294607E+02  0.14202852073E+02  0.25285387974E+02  0.33269154809E+02  0.51100000000E-03 0.  1.
        -11    1    3    3    0    0  0.91276787906E+01 -0.58171452693E+00 -0.55973216903E+01  0.10723009012E+02  0.51100000000E-03 0. -1.
         12    1    3    3    0    0  0.27040575873E+01  0.75761887106E+00  0.59027789787E+01  0.65367203903E+01  0.00000000000E+00 0. -1.
</event>
<event>
 7    1  0.6136531E-013  0.5052888E+02  0.7816164E-02  0.1300439E+00
        -11   -1    0    0    0    0  0.00000000000E+00  0.00000000000E+00  0.45593999997E+02  0.45594000000E+02  0.51100000000E-03 0.  1.
         11   -1    0    0    0    0 -0.00000000000E+00 -0.00000000000E+00 -0.45593999997E+02  0.45594000000E+02  0.51100000000E-03 0. -1.
    9900012    2    1    2    0    0  0.74214143372E+01  0.33063721332E+02  0.22469468024E+02  0.50528879838E+02  0.30000060756E+02 0.  0.
         12    1    1    2    0    0 -0.74214143372E+01 -0.33063721332E+02 -0.22469468024E+02  0.40659120162E+02  0.00000000000E+00 0. -1.
         11    1    3    3    0    0 -0.70466109254E+01  0.30601119986E+01  0.62624793154E+00  0.77078659634E+01  0.51100000000E-03 0. -1.
        -11    1    3    3    0    0  0.13676731616E+02  0.27674281575E+02  0.12746442137E+02  0.33397464511E+02  0.51100000000E-03 0.  1.
        -12    1    3    3    0    0  0.79129364707E+00  0.23293277583E+01  0.90967779553E+01  0.94235493636E+01  0.00000000000E+00 0.  1.
</event>
<event>
 7    1  0.6136531E-013  0.5052885E+02  0.7816164E-02  0.1300439E+00
        -11   -1    0    0    0    0  0.00000000000E+00  0.00000000000E+00  0.45593999997E+02  0.45594000000E+02  0.51100000000E-03 0.  1.
         11   -1    0    0    0    0 -0.00000000000E+00 -0.00000000000E+00 -0.45593999997E+02  0.45594000000E+02  0.51100000000E-03 0. -1.
    9900012    2    1    2    0    0 -0.29555635695E+02 -0.27915039332E+02  0.61787922135E+00  0.50528846086E+02  0.29999958162E+02 0.  0.
         12    1    1    2    0    0  0.29555635695E+02  0.27915039332E+02 -0.61787922135E+00  0.40659153914E+02  0.00000000000E+00 0. -1.
         11    1    3    3    0    0 -0.12688177974E+01  0.52172448551E+01 -0.17343345432E+01  0.56424692334E+01  0.51100000000E-03 0. -1.
        -11    1    3    3    0    0 -0.13730272771E+02 -0.84408610366E+01 -0.11267126871E+00  0.16117730004E+02  0.51100000000E-03 0.  1.
         12    1    3    3    0    0 -0.14556545127E+02 -0.24691423151E+02  0.24648850333E+01  0.28768646848E+02  0.00000000000E+00 0. -1.
</event>
<event>
 7    1  0.6136531E-013  0.5052886E+02  0.7816164E-02  0.1300439E+00
        -11   -1    0    0    0    0  0.00000000000E+00  0.00000000000E+00  0.45593999997E+02  0.45594000000E+02  0.51100000000E-03 0. -1.
         11   -1    0    0    0    0 -0.00000000000E+00 -0.00000000000E+00 -0.45593999997E+02  0.45594000000E+02  0.51100000000E-03 0.  1.
    9900012    2    1    2    0    0  0.58639544862E+01 -0.27192168405E+02  0.29654103396E+02  0.50528857940E+02  0.29999994195E+02 0.  0.
         12    1    1    2    0    0 -0.58639544862E+01  0.27192168405E+02 -0.29654103396E+02  0.40659142060E+02  0.00000000000E+00 0. -1.
         11    1    3    3    0    0  0.11146461292E+02 -0.74300652703E+01  0.10021391676E+02  0.16729547532E+02  0.51100000000E-03 0. -1.
        -11    1    3    3    0    0 -0.62067372463E+01 -0.16498658893E+02  0.43657230411E+01  0.18160090045E+02  0.51100000000E-03 0.  1.
        -12    1    3    3    0    0  0.92423044076E+00 -0.32634442423E+01  0.15266988680E+02  0.15639220363E+02  0.00000000000E+00 0.  1.
</event>
<event>
 7    1  0.6136531E-013  0.5052886E+02  0.7816164E-02  0.1300439E+00
        -11   -1    0    0    0    0  0.00000000000E+00  0.00000000000E+00  0.45593999997E+02  0.45594000000E+02  0.51100000000E-03 0.  1.
         11   -1    0    0    0    0 -0.00000000000E+00 -0.00000000000E+00 -0.45593999997E+02  0.45594000000E+02  0.51100000000E-03 0. -1.
    9900012    2    1    2    0    0  0.24322646694E+02 -0.32362448544E+02  0.37744441528E+01  0.50528860232E+02  0.30000001162E+02 0.  0.
         12    1    1    2    0    0 -0.24322646694E+02  0.32362448544E+02 -0.37744441528E+01  0.40659139768E+02  0.00000000000E+00 0. -1.
         11    1    3    3    0    0 -0.70071645143E+00 -0.93207098966E+01  0.10798935993E+02  0.14282284669E+02  0.51100000000E-03 0.  1.
        -11    1    3    3    0    0  0.18862482600E+02 -0.20363369458E+02 -0.91075473966E+01  0.29213138917E+02  0.51100000000E-03 0. -1.
        -12    1    3    3    0    0  0.61608805451E+01 -0.26783691895E+01  0.20830555562E+01  0.70334366462E+01  0.00000000000E+00 0.  1.
</event>
<event>
 7    1  0.6136531E-013  0.5052885E+02  0.7816164E-02  0.1300439E+00
        -11   -1    0    0    0    0  0.00000000000E+00  0.00000000000E+00  0.45593999997E+02  0.45594000000E+02  0.51100000000E-03 0.  1.
         11   -1    0    0    0    0 -0.00000000000E+00 -0.00000000000E+00 -0.45593999997E+02  0.45594000000E+02  0.51100000000E-03 0. -1.
    9900012    2    1    2    0    0 -0.19781658522E+02  0.35324467431E+02 -0.37462826116E+01  0.50528847936E+02  0.29999963787E+02 0.  0.
         12    1    1    2    0    0  0.19781658522E+02 -0.35324467431E+02  0.37462826116E+01  0.40659152064E+02  0.00000000000E+00 0. -1.
         11    1    3    3    0    0 -0.33483776861E+01  0.13706403095E+02  0.11675762039E+02  0.18313943824E+02  0.51100000000E-03 0. -1.
        -11    1    3    3    0    0 -0.11637716599E+02  0.17413289148E+02 -0.15116692774E+02  0.25829701649E+02  0.51100000000E-03 0.  1.
        -12    1    3    3    0    0 -0.47955642362E+01  0.42047751883E+01 -0.30535187697E+00  0.63852024632E+01  0.00000000000E+00 0.  1.
</event>
<event>
 7    1  0.6136531E-013  0.5052886E+02  0.7816164E-02  0.1300439E+00
        -11   -1    0    0    0    0  0.00000000000E+00  0.00000000000E+00  0.45593999997E+02  0.45594000000E+02  0.51100000000E-03 0. -1.
         11   -1    0    0    0    0 -0.00000000000E+00 -0.00000000000E+00 -0.45593999997E+02  0.45594000000E+02  0.51100000000E-03 0.  1.
    9900012    2    1    2    0    0  0.11874703294E+02 -0.38737503356E+02  0.34004492979E+01  0.50528858347E+02  0.29999995430E+02 0.  0.
         12    1    1    2    0    0 -0.11874703294E+02  0.38737503356E+02 -0.34004492979E+01  0.40659141653E+02  0.00000000000E+00 0. -1.
         11    1    3    3    0    0  0.52882500192E+00 -0.39560550044E+01  0.91276037738E+01  0.99620870300E+01  0.51100000000E-03 0. -1.
        -11    1    3    3    0    0  0.11252800613E+02 -0.16778967610E+02 -0.92545266228E+01  0.22221735732E+02  0.51100000000E-03 0.  1.
        -12    1    3    3    0    0  0.93077678263E-01 -0.18002480742E+02  0.35273721468E+01  0.18345035584E+02  0.00000000000E+00 0.  1.
</event>
<event>
 7    1  0.6136531E-013  0.5052886E+02  0.7816164E-02  0.1300439E+00
        -11   -1    0    0    0    0  0.00000000000E+00  0.00000000000E+00  0.45593999997E+02  0.45594000000E+02  0.51100000000E-03 0. -1.
         11   -1    0    0    0    0 -0.00000000000E+00 -0.00000000000E+00 -0.45593999997E+02  0.45594000000E+02  0.51100000000E-03 0.  1.
    9900012    2    1    2    0    0 -0.30488328518E+02  0.23261959218E+02  0.13509583904E+02  0.50528858595E+02  0.29999996187E+02 0.  0.
         12    1    1    2    0    0  0.30488328518E+02 -0.23261959218E+02 -0.13509583904E+02  0.40659141405E+02  0.00000000000E+00 0. -1.
         11    1    3    3    0    0 -0.55170733043E+01  0.13233902354E+02  0.16188990935E+02  0.21625394727E+02  0.51100000000E-03 0. -1.
        -11    1    3    3    0    0 -0.98304186972E+01  0.92747567548E+01 -0.24908422858E+01  0.13742726810E+02  0.51100000000E-03 0.  1.
         12    1    3    3    0    0 -0.15140836517E+02  0.75330010916E+00 -0.18856474521E+00  0.15160737058E+02  0.00000000000E+00 0. -1.
</event>
<event>
 7    1  0.6136531E-013  0.5052884E+02  0.7816164E-02  0.1300439E+00
        -11   -1    0    0    0    0  0.00000000000E+00  0.00000000000E+00  0.45593999997E+02  0.45594000000E+02  0.51100000000E-03 0. -1.
         11   -1    0    0    0    0 -0.00000000000E+00 -0.00000000000E+00 -0.45593999997E+02  0.45594000000E+02  0.51100000000E-03 0.  1.
    9900012    2    1    2    0    0 -0.23257765008E+02 -0.25662004911E+02 -0.21300346495E+02  0.50528844942E+02  0.29999954687E+02 0.  0.
         12    1    1    2    0    0  0.23257765008E+02  0.25662004911E+02  0.21300346495E+02  0.40659155058E+02  0.00000000000E+00 0. -1.
         11    1    3    3    0    0 -0.19666398493E+02 -0.18286180364E+02 -0.35682100663E+01  0.27090288764E+02  0.51100000000E-03 0.  1.
        -11    1    3    3    0    0  0.35574475703E+01 -0.73612805320E+01 -0.96922209220E+01  0.12680024880E+02  0.51100000000E-03 0. -1.
        -12    1    3    3    0    0 -0.71488140845E+01 -0.14544014920E-01 -0.80399155067E+01  0.10758531298E+02  0.00000000000E+00 0.  1.
</event>
<event>
 7    1  0.6136531E-013  0.5052886E+02  0.7816164E-02  0.1300439E+00
        -11   -1    0    0    0    0  0.00000000000E+00  0.00000000000E+00  0.45593999997E+02  0.45594000000E+02  0.51100000000E-03 0. -1.
         11   -1    0    0    0    0 -0.00000000000E+00 -0.00000000000E+00 -0.45593999997E+02  0.45594000000E+02  0.51100000000E-03 0.  1.
    9900012    2    1    2    0    0 -0.10646812985E+01 -0.73243154494E+01 -0.39979827627E+02  0.50528858837E+02  0.29999996920E+02 0.  0.
         12    1    1    2    0    0  0.10646812985E+01  0.73243154494E+01  0.39979827627E+02  0.40659141163E+02  0.00000000000E+00 0. -1.
         11    1    3    3    0    0  0.10375212669E+02 -0.10632928589E+02 -0.13934447532E+02  0.20368432355E+02  0.51100000000E-03 0. -1.
        -11    1    3    3    0    0 -0.25469825732E+01 -0.29328916314E+01 -0.10493250236E+02  0.11189158785E+02  0.51100000000E-03 0.  1.
         12    1    3    3    0    0 -0.88929113944E+01  0.62415047707E+01 -0.15552129859E+02  0.18971267697E+02  0.00000000000E+00 0. -1.
</event>
<event>
 7    1  0.6136531E-013  0.5052885E+02  0.7816164E-02  0.1300439E+00
        -11   -1    0    0    0    0  0.00000000000E+00  0.00000000000E+00  0.45593999997E+02  0.45594000000E+02  0.51100000000E-03 0.  1.
         11   -1    0    0    0    0 -0.00000000000E+00 -0.00000000000E+00 -0.45593999997E+02  0.45594000000E+02  0.51100000000E-03 0. -1.
    9900012    2    1    2    0    0 -0.28102872514E+02 -0.10690758958E+02  0.27369738750E+02  0.50528851338E+02  0.29999974128E+02 0.  0.
         12    1    1    2    0    0  0.28102872514E+02  0.10690758958E+02 -0.27369738750E+02  0.40659148662E+02  0.00000000000E+00 0. -1.
         11    1    3    3    0    0 -0.11670420177E+02 -0.10735016532E+02 -0.37425253879E+00  0.15861253175E+02  0.51100000000E-03 0. -1.
        -11    1    3    3    0    0 -0.79548613352E+01  0.12343240093E+00  0.24207977661E+02  0.25481782456E+02  0.51100000000E-03 0.  1.
        -12    1    3    3    0    0 -0.84775910018E+01 -0.79174827472E-01  0.35360136275E+01  0.91858157080E+01  0.00000000000E+00 0.  1.
</event>
<event>
 7    1  0.6136531E-013  0.5052890E+02  0.7816164E-02  0.1300439E+00
        -11   -1    0    0    0    0  0.00000000000E+00  0.00000000000E+00  0.45593999997E+02  0.45594000000E+02  0.51100000000E-03 0. -1.
         11   -1    0    0    0    0 -0.00000000000E+00 -0.00000000000E+00 -0.45593999997E+02  0.45594000000E+02  0.51100000000E-03 0.  1.
    9900012    2    1    2    0    0 -0.38994446563E+02  0.76017831948E+01 -0.86491881863E+01  0.50528899828E+02  0.30000121516E+02 0.  0.
         12    1    1    2    0    0  0.38994446563E+02 -0.76017831948E+01  0.86491881863E+01  0.40659100172E+02  0.00000000000E+00 0. -1.
         11    1    3    3    0    0 -0.10726457274E+01  0.50895406874E+01 -0.67914331431E+01  0.85543882110E+01  0.51100000000E-03 0. -1.
        -11    1    3    3    0    0 -0.16877766077E+02 -0.43881897514E+01  0.60500310281E+01  0.18458550125E+02  0.51100000000E-03 0.  1.
        -12    1    3    3    0    0 -0.21044034759E+02  0.69004322587E+01 -0.79077860712E+01  0.23515961491E+02  0.00000000000E+00 0.  1.
</event>
<event>
 7    1  0.6136531E-013  0.5052876E+02  0.7816164E-02  0.1300439E+00
        -11   -1    0    0    0    0  0.00000000000E+00  0.00000000000E+00  0.45593999997E+02  0.45594000000E+02  0.51100000000E-03 0.  1.
         11   -1    0    0    0    0 -0.00000000000E+00 -0.00000000000E+00 -0.45593999997E+02  0.45594000000E+02  0.51100000000E-03 0. -1.
    9900012    2    1    2    0    0 -0.49832921369E+01 -0.13690043438E+02  0.37959497077E+02  0.50528758637E+02  0.29999692351E+02 0.  0.
         12    1    1    2    0    0  0.49832921369E+01  0.13690043438E+02 -0.37959497077E+02  0.40659241363E+02  0.00000000000E+00 0. -1.
         11    1    3    3    0    0  0.34742158405E+01 -0.42455773542E+01 -0.71084413494E-02  0.54859049908E+01  0.51100000000E-03 0. -1.
        -11    1    3    3    0    0 -0.14445759893E+02 -0.77337685127E+01  0.19050550232E+02  0.25127964874E+02  0.51100000000E-03 0.  1.
         12    1    3    3    0    0  0.59882519161E+01 -0.17106975713E+01  0.18916055287E+02  0.19914888772E+02  0.00000000000E+00 0. -1.
</event>
<event>
 7    1  0.6136531E-013  0.5052887E+02  0.7816164E-02  0.1300439E+00
        -11   -1    0    0    0    0  0.00000000000E+00  0.00000000000E+00  0.45593999997E+02  0.45594000000E+02  0.51100000000E-03 0. -1.
         11   -1    0    0    0    0 -0.00000000000E+00 -0.00000000000E+00 -0.45593999997E+02  0.45594000000E+02  0.51100000000E-03 0.  1.
    9900012    2    1    2    0    0  0.39462853705E+02  0.97695604090E+01  0.63521472564E+00  0.50528872724E+02  0.30000039131E+02 0.  0.
         12    1    1    2    0    0 -0.39462853705E+02 -0.97695604090E+01 -0.63521472564E+00  0.40659127276E+02  0.00000000000E+00 0. -1.
         11    1    3    3    0    0  0.54822656767E+01 -0.64384632828E+01 -0.21123791425E+01  0.87161454954E+01  0.51100000000E-03 0. -1.
        -11    1    3    3    0    0  0.22695943513E+02  0.14029414035E+02 -0.60255157777E+01  0.27353923864E+02  0.51100000000E-03 0.  1.
        -12    1    3    3    0    0  0.11284644516E+02  0.21786096571E+01  0.87731096459E+01  0.14458803365E+02  0.00000000000E+00 0.  1.
</event>
<event>
 7    1  0.6136531E-013  0.5052886E+02  0.7816164E-02  0.1300439E+00
        -11   -1    0    0    0    0  0.00000000000E+00  0.00000000000E+00  0.45593999997E+02  0.45594000000E+02  0.51100000000E-03 0. -1.
         11   -1    0    0    0    0 -0.00000000000E+00 -0.00000000000E+00 -0.45593999997E+02  0.45594000000E+02  0.51100000000E-03 0.  1.
    9900012    2    1    2    0    0 -0.27633651400E+02  0.63502951402E+01 -0.29141394325E+02  0.50528858331E+02  0.29999995384E+02 0.  0.
         12    1    1    2    0    0  0.27633651400E+02 -0.63502951402E+01  0.29141394325E+02  0.40659141669E+02  0.00000000000E+00 0. -1.
         11    1    3    3    0    0 -0.24682739435E+01  0.92473801342E+01  0.19159425901E+00  0.95730415348E+01  0.51100000000E-03 0. -1.
        -11    1    3    3    0    0 -0.18396218252E+02  0.17520311416E+01 -0.26422369009E+02  0.32243325564E+02  0.51100000000E-03 0.  1.
         12    1    3    3    0    0 -0.67691592039E+01 -0.46491161357E+01 -0.29106195745E+01  0.87124912326E+01  0.00000000000E+00 0. -1.
</event>
<event>
 7    1  0.6136531E-013  0.5052886E+02  0.7816164E-02  0.1300439E+00
        -11   -1    0    0    0    0  0.00000000000E+00  0.00000000000E+00  0.45593999997E+02  0.45594000000E+02  0.51100000000E-03 0.  1.
         11   -1    0    0    0    0 -0.00000000000E+00 -0.00000000000E+00 -0.45593999997E+02  0.45594000000E+02  0.51100000000E-03 0. -1.
    9900012    2    1    2    0    0 -0.79932574246E+01 -0.39732713418E+02 -0.32534329058E+01  0.50528861968E+02  0.30000006437E+02 0.  0.
         12    1    1    2    0    0  0.79932574246E+01  0.39732713418E+02  0.32534329058E+01  0.40659138032E+02  0.00000000000E+00 0. -1.
         11    1    3    3    0    0 -0.22222909960E+01 -0.55332060932E+01  0.55442413095E+01  0.81420856603E+01  0.51100000000E-03 0. -1.
        -11    1    3    3    0    0 -0.14330108082E+02 -0.21206891240E+02 -0.79678023578E+01  0.26806158031E+02  0.51100000000E-03 0.  1.
        -12    1    3    3    0    0  0.85591416534E+01 -0.12992616085E+02 -0.82987185748E+00  0.15580618277E+02  0.00000000000E+00 0.  1.
</event>
<event>
 7    1  0.6136531E-013  0.5052884E+02  0.7816164E-02  0.1300439E+00
        -11   -1    0    0    0    0  0.00000000000E+00  0.00000000000E+00  0.45593999997E+02  0.45594000000E+02  0.51100000000E-03 0. -1.
         11   -1    0    0    0    0 -0.00000000000E+00 -0.00000000000E+00 -0.45593999997E+02  0.45594000000E+02  0.51100000000E-03 0.  1.
    9900012    2    1    2    0    0  0.84944767423E+01  0.33179605424E+02  0.21911751138E+02  0.50528841263E+02  0.29999943503E+02 0.  0.
         12    1    1    2    0    0 -0.84944767423E+01 -0.33179605424E+02 -0.21911751138E+02  0.40659158737E+02  0.00000000000E+00 0. -1.
         11    1    3    3    0    0  0.12962445263E+02  0.27092540503E+01  0.16128594277E+01  0.13340403311E+02  0.51100000000E-03 0. -1.
        -11    1    3    3    0    0 -0.52665361916E+01  0.24050557159E+02  0.17061773348E+02  0.29954462324E+02  0.51100000000E-03 0.  1.
         12    1    3    3    0    0  0.79856767111E+00  0.64197942155E+01  0.32371183626E+01  0.72339756281E+01  0.00000000000E+00 0. -1.
</event>
<event>
 7    1  0.6136531E-013  0.5052885E+02  0.7816164E-02  0.1300439E+00
        -11   -1    0    0    0    0  0.00000000000E+00  0.00000000000E+00  0.45593999997E+02  0.45594000000E+02  0.51100000000E-03 0. -1.
         11   -1    0    0    0    0 -0.00000000000E+00 -0.00000000000E+00 -0.45593999997E+02  0.45594000000E+02  0.51100000000E-03 0.  1.
    9900012    2    1    2    0    0 -0.13032877502E+02  0.16002253869E+02 -0.35031959269E+02  0.50528853488E+02  0.29999980663E+02 0.  0.
         12    1    1    2    0    0  0.13032877502E+02 -0.16002253869E+02  0.35031959269E+02  0.40659146512E+02  0.00000000000E+00 0. -1.
         11    1    3    3    0    0 -0.11321737958E+02  0.12203412102E+02 -0.27566255406E+02  0.32202538016E+02  0.51100000000E-03 0. -1.
        -11    1    3    3    0    0  0.34048839420E+01 -0.27581968364E+01 -0.88686006308E+01  0.98920656011E+01  0.51100000000E-03 0.  1.
         12    1    3    3    0    0 -0.51160234858E+01  0.65570386035E+01  0.14028967678E+01  0.84342498716E+01  0.00000000000E+00 0. -1.
</event>
<event>
 7    1  0.6136531E-013  0.5052886E+02  0.7816164E-02  0.1300439E+00
        -11   -1    0    0    0    0  0.00000000000E+00  0.00000000000E+00  0.45593999997E+02  0.45594000000E+02  0.51100000000E-03 0.  1.
         11   -1    0    0    0    0 -0.00000000000E+00 -0.00000000000E+00 -0.45593999997E+02  0.45594000000E+02  0.51100000000E-03 0. -1.
    9900012    2    1    2    0    0  0.95544052518E+01  0.21748062288E+02  0.32998498564E+02  0.50528858587E+02  0.29999996160E+02 0.  0.
         12    1    1    2    0    0 -0.95544052518E+01 -0.21748062288E+02 -0.32998498564E+02  0.40659141413E+02  0.00000000000E+00 0. -1.
         11    1    3    3    0    0 -0.26623951558E+01  0.86374527963E+01 -0.11433356964E-02  0.90384700222E+01  0.51100000000E-03 0. -1.
        -11    1    3    3    0    0  0.96183726343E+01  0.62937990397E+01  0.32153364569E+02  0.34146212848E+02  0.51100000000E-03 0.  1.
        -12    1    3    3    0    0  0.25984277733E+01  0.68168104520E+01  0.84627733051E+00  0.73441757163E+01  0.00000000000E+00 0.  1.
</event>
<event>
 7    1  0.6136531E-013  0.5052887E+02  0.7816164E-02  0.1300439E+00
        -11   -1    0    0    0    0  0.00000000000E+00  0.00000000000E+00  0.45593999997E+02  0.45594000000E+02  0.51100000000E-03 0.  1.
         11   -1    0    0    0    0 -0.00000000000E+00 -0.00000000000E+00 -0.45593999997E+02  0.45594000000E+02  0.51100000000E-03 0. -1.
    9900012    2    1    2    0    0  0.20431943733E+02 -0.34494675479E+02  0.67689205686E+01  0.50528865149E+02  0.30000016108E+02 0.  0.
         12    1    1    2    0    0 -0.20431943733E+02  0.34494675479E+02 -0.67689205686E+01  0.40659134851E+02  0.00000000000E+00 0. -1.
         11    1    3    3    0    0 -0.61483049628E+01 -0.11851963923E+02 -0.28698477745E+01  0.13656746657E+02  0.51100000000E-03 0. -1.
        -11    1    3    3    0    0  0.16560274972E+02 -0.95964269645E+01  0.52121605885E+01  0.19836852973E+02  0.51100000000E-03 0.  1.
         12    1    3    3    0    0  0.10019973725E+02 -0.13046284592E+02  0.44266077546E+01  0.17035265519E+02  0.00000000000E+00 0. -1.
</event>
<event>
 7    1  0.6136531E-013  0.5052887E+02  0.7816164E-02  0.1300439E+00
        -11   -1    0    0    0    0  0.00000000000E+00  0.00000000000E+00  0.45593999997E+02  0.45594000000E+02  0.51100000000E-03 0. -1.
         11   -1    0    0    0    0 -0.00000000000E+00 -0.00000000000E+00 -0.45593999997E+02  0.45594000000E+02  0.51100000000E-03 0.  1.
    9900012    2    1    2    0    0 -0.26633231680E+02 -0.28923523440E+02 -0.10356917119E+02  0.50528868552E+02  0.30000026450E+02 0.  0.
         12    1    1    2    0    0  0.26633231680E+02  0.28923523440E+02  0.10356917119E+02  0.40659131448E+02  0.00000000000E+00 0. -1.
         11    1    3    3    0    0 -0.35022546020E+00  0.10450686343E+01  0.11790352227E+01  0.16139859482E+01  0.51100000000E-03 0. -1.
        -11    1    3    3    0    0 -0.21523979958E+02 -0.32509870900E+02 -0.15768877597E+02  0.42057471632E+02  0.51100000000E-03 0.  1.
        -12    1    3    3    0    0 -0.47590262611E+01  0.25412788252E+01  0.42329252545E+01  0.68574109715E+01  0.00000000000E+00 0.  1.
</event>
<event>
 7    1  0.6136531E-013  0.5052886E+02  0.7816164E-02  0.1300439E+00
        -11   -1    0    0    0    0  0.00000000000E+00  0.00000000000E+00  0.45593999997E+02  0.45594000000E+02  0.51100000000E-03 0.  1.
         11   -1    0    0    0    0 -0.00000000000E+00 -0.00000000000E+00 -0.45593999997E+02  0.45594000000E+02  0.51100000000E-03 0. -1.
    9900012    2    1    2    0    0  0.18294384151E+02 -0.18083329306E+02  0.31487681480E+02  0.50528863570E+02  0.30000011306E+02 0.  0.
         12    1    1    2    0    0 -0.18294384151E+02  0.18083329306E+02 -0.31487681480E+02  0.40659136430E+02  0.00000000000E+00 0. -1.
         11    1    3    3    0    0  0.21832108245E+02 -0.51910707945E+01  0.23812533051E+02  0.32720404903E+02  0.51100000000E-03 0. -1.
        -11    1    3    3    0    0 -0.43265476421E+01 -0.37513935318E+01  0.63294618989E+01  0.85354587528E+01  0.51100000000E-03 0.  1.
         12    1    3    3    0    0  0.78882354724E+00 -0.91408649799E+01  0.13456865304E+01  0.92729999142E+01  0.00000000000E+00 0. -1.
</event>
<event>
 7    1  0.6136531E-013  0.5052888E+02  0.7816164E-02  0.1300439E+00
        -11   -1    0    0    0    0  0.00000000000E+00  0.00000000000E+00  0.45593999997E+02  0.45594000000E+02  0.51100000000E-03 0.  1.
         11   -1    0    0    0    0 -0.00000000000E+00 -0.00000000000E+00 -0.45593999997E+02  0.45594000000E+02  0.51100000000E-03 0. -1.
    9900012    2    1    2    0    0  0.32267942897E+02  0.65422922334E+01  0.23856696516E+02  0.50528884231E+02  0.30000074108E+02 0.  0.
         12    1    1    2    0    0 -0.32267942897E+02 -0.65422922334E+01 -0.23856696516E+02  0.40659115769E+02  0.00000000000E+00 0. -1.
         11    1    3    3    0    0  0.36062152583E+01 -0.42561362360E+01 -0.18849484939E+01  0.58883372215E+01  0.51100000000E-03 0. -1.
        -11    1    3    3    0    0  0.17133434237E+02  0.14498560468E+02  0.94751752611E+01  0.24362712716E+02  0.51100000000E-03 0.  1.
        -12    1    3    3    0    0  0.11528293402E+02 -0.37001319982E+01  0.16266469749E+02  0.20277834294E+02  0.00000000000E+00 0.  1.
</event>
<event>
 7    1  0.6136531E-013  0.5052887E+02  0.7816164E-02  0.1300439E+00
        -11   -1    0    0    0    0  0.00000000000E+00  0.00000000000E+00  0.45593999997E+02  0.45594000000E+02  0.51100000000E-03 0.  1.
         11   -1    0    0    0    0 -0.00000000000E+00 -0.00000000000E+00 -0.45593999997E+02  0.45594000000E+02  0.51100000000E-03 0. -1.
    9900012    2    1    2    0    0 -0.14919596526E+02  0.12380144227E+02  0.35739366803E+02  0.50528872230E+02  0.30000037629E+02 0.  0.
         12    1    1    2    0    0  0.14919596526E+02 -0.12380144227E+02 -0.35739366803E+02  0.40659127770E+02  0.00000000000E+00 0. -1.
         11    1    3    3    0    0 -0.26793023578E+01  0.15464915014E+02  0.22990265180E+02  0.27836927826E+02  0.51100000000E-03 0. -1.
        -11    1    3    3    0    0 -0.13323976428E+02 -0.10536866032E+01  0.14558914864E+02  0.19763618231E+02  0.51100000000E-03 0.  1.
         12    1    3    3    0    0  0.10836822603E+01 -0.20310841844E+01 -0.18098132403E+01  0.29283261721E+01  0.00000000000E+00 0. -1.
</event>
<event>
 7    1  0.6136531E-013  0.5052891E+02  0.7816164E-02  0.1300439E+00
        -11   -1    0    0    0    0  0.00000000000E+00  0.00000000000E+00  0.45593999997E+02  0.45594000000E+02  0.51100000000E-03 0. -1.
         11   -1    0    0    0    0 -0.00000000000E+00 -0.00000000000E+00 -0.45593999997E+02  0.45594000000E+02  0.51100000000E-03 0.  1.
    9900012    2    1    2    0    0  0.89603635979E+01  0.65185479392E+01 -0.39120098017E+02  0.50528909357E+02  0.30000150481E+02 0.  0.
         12    1    1    2    0    0 -0.89603635979E+01 -0.65185479392E+01  0.39120098017E+02  0.40659090643E+02  0.00000000000E+00 0. -1.
         11    1    3    3    0    0 -0.44468106049E+00 -0.10239480210E+01  0.21861360816E+01  0.24546694326E+01  0.51100000000E-03 0. -1.
        -11    1    3    3    0    0  0.25334600108E+01  0.11111823575E+02 -0.37968639956E+02  0.39642258553E+02  0.51100000000E-03 0.  1.
        -12    1    3    3    0    0  0.68715846476E+01 -0.35693276144E+01 -0.33375941425E+01  0.84319813714E+01  0.00000000000E+00 0.  1.
</event>
<event>
 7    1  0.6136531E-013  0.5052886E+02  0.7816164E-02  0.1300439E+00
        -11   -1    0    0    0    0  0.00000000000E+00  0.00000000000E+00  0.45593999997E+02  0.45594000000E+02  0.51100000000E-03 0.  1.
         11   -1    0    0    0    0 -0.00000000000E+00 -0.00000000000E+00 -0.45593999997E+02  0.45594000000E+02  0.51100000000E-03 0. -1.
    9900012    2    1    2    0    0 -0.39568692433E+02  0.62174976041E+01  0.69876539787E+01  0.50528855820E+02  0.29999987752E+02 0.  0.
         12    1    1    2    0    0  0.39568692433E+02 -0.62174976041E+01 -0.69876539787E+01  0.40659144180E+02  0.00000000000E+00 0. -1.
         11    1    3    3    0    0  0.37553920244E+01 -0.26898572131E+01  0.37988458406E+01  0.59807634183E+01  0.51100000000E-03 0. -1.
        -11    1    3    3    0    0 -0.11957936836E+02  0.22573448572E+01 -0.10100868035E+01  0.12210984186E+02  0.51100000000E-03 0.  1.
         12    1    3    3    0    0 -0.31366147622E+02  0.66500099600E+01  0.41988949416E+01  0.32337108217E+02  0.00000000000E+00 0. -1.
</event>
<event>
 7    1  0.6136531E-013  0.5052886E+02  0.7816164E-02  0.1300439E+00
        -11   -1    0    0    0    0  0.00000000000E+00  0.00000000000E+00  0.45593999997E+02  0.45594000000E+02  0.51100000000E-03 0.  1.
         11   -1    0    0    0    0 -0.00000000000E+00 -0.00000000000E+00 -0.45593999997E+02  0.45594000000E+02  0.51100000000E-03 0. -1.
    9900012    2    1    2    0    0  0.23105331810E+02 -0.13615924011E+01  0.33428366963E+02  0.50528855767E+02  0.29999987590E+02 0.  0.
         12    1    1    2    0    0 -0.23105331810E+02  0.13615924011E+01 -0.33428366963E+02  0.40659144233E+02  0.00000000000E+00 0. -1.
         11    1    3    3    0    0 -0.90909644481E+00  0.87901045196E+01  0.17924264656E+02  0.19984285265E+02  0.51100000000E-03 0. -1.
        -11    1    3    3    0    0  0.15499233936E+02 -0.46710002249E+01  0.97562407420E+01  0.18900495480E+02  0.51100000000E-03 0.  1.
         12    1    3    3    0    0  0.85151943187E+01 -0.54806966958E+01  0.57478615648E+01  0.11644075022E+02  0.00000000000E+00 0. -1.
</event>
<event>
 7    1  0.6136531E-013  0.5052886E+02  0.7816164E-02  0.1300439E+00
        -11   -1    0    0    0    0  0.00000000000E+00  0.00000000000E+00  0.45593999997E+02  0.45594000000E+02  0.51100000000E-03 0.  1.
         11   -1    0    0    0    0 -0.00000000000E+00 -0.00000000000E+00 -0.45593999997E+02  0.45594000000E+02  0.51100000000E-03 0. -1.
    9900012    2    1    2    0    0 -0.14284995583E+02  0.23291715695E+02  0.30109806561E+02  0.50528861176E+02  0.30000004030E+02 0.  0.
         12    1    1    2    0    0  0.14284995583E+02 -0.23291715695E+02 -0.30109806561E+02  0.40659138824E+02  0.00000000000E+00 0. -1.
         11    1    3    3    0    0  0.89076235021E+01  0.66164482848E+01  0.59737667124E+01  0.12601945618E+02  0.51100000000E-03 0. -1.
        -11    1    3    3    0    0 -0.14743398155E+02  0.69238703157E+01  0.14715076405E+02  0.21950882515E+02  0.51100000000E-03 0.  1.
         12    1    3    3    0    0 -0.84492209292E+01  0.97513970943E+01  0.94209634432E+01  0.15976033043E+02  0.00000000000E+00 0. -1.
</event>
<event>
 7    1  0.6136531E-013  0.5052880E+02  0.7816164E-02  0.1300439E+00
        -11   -1    0    0    0    0  0.00000000000E+00  0.00000000000E+00  0.45593999997E+02  0.45594000000E+02  0.51100000000E-03 0. -1.
         11   -1    0    0    0    0 -0.00000000000E+00 -0.00000000000E+00 -0.45593999997E+02  0.45594000000E+02  0.51100000000E-03 0.  1.
    9900012    2    1    2    0    0  0.39027208945E+02 -0.83748118503E+01  0.77401685201E+01  0.50528797840E+02  0.29999811515E+02 0.  0.
         12    1    1    2    0    0 -0.39027208945E+02  0.83748118503E+01 -0.77401685201E+01  0.40659202160E+02  0.00000000000E+00 0. -1.
         11    1    3    3    0    0  0.31778197499E+02  0.34808074320E+01  0.12836310577E+02  0.34449103416E+02  0.51100000000E-03 0. -1.
        -11    1    3    3    0    0  0.18032235893E+01 -0.77208546247E+01 -0.47298903789E+01  0.92322843710E+01  0.51100000000E-03 0.  1.
        -12    1    3    3    0    0  0.54457878563E+01 -0.41347646576E+01 -0.36625167845E+00  0.68474100536E+01  0.00000000000E+00 0.  1.
</event>
<event>
 7    1  0.6136531E-013  0.5052886E+02  0.7816164E-02  0.1300439E+00
        -11   -1    0    0    0    0  0.00000000000E+00  0.00000000000E+00  0.45593999997E+02  0.45594000000E+02  0.51100000000E-03 0. -1.
         11   -1    0    0    0    0 -0.00000000000E+00 -0.00000000000E+00 -0.45593999997E+02  0.45594000000E+02  0.51100000000E-03 0.  1.
    9900012    2    1    2    0    0  0.38571152511E+02  0.80628345489E+01 -0.10021114072E+02  0.50528857925E+02  0.29999994150E+02 0.  0.
         12    1    1    2    0    0 -0.38571152511E+02 -0.80628345489E+01  0.10021114072E+02  0.40659142075E+02  0.00000000000E+00 0. -1.
         11    1    3    3    0    0  0.10025387101E+02  0.20628372578E+01  0.70928097217E+01  0.12452776160E+02  0.51100000000E-03 0. -1.
        -11    1    3    3    0    0  0.15931642222E+02 -0.51648071162E+01 -0.11514962576E+02  0.20324537382E+02  0.51100000000E-03 0.  1.
        -12    1    3    3    0    0  0.12614123188E+02  0.11164804407E+02 -0.55989612185E+01  0.17751544383E+02  0.00000000000E+00 0.  1.
</event>
<event>
 7    1  0.6136531E-013  0.5052886E+02  0.7816164E-02  0.1300439E+00
        -11   -1    0    0    0    0  0.00000000000E+00  0.00000000000E+00  0.45593999997E+02  0.45594000000E+02  0.51100000000E-03 0.  1.
         11   -1    0    0    0    0 -0.00000000000E+00 -0.00000000000E+00 -0.45593999997E+02  0.45594000000E+02  0.51100000000E-03 0. -1.
    9900012    2    1    2    0    0  0.39291599692E+02  0.83755289721E+01  0.62598892022E+01  0.50528861977E+02  0.30000006465E+02 0.  0.
         12    1    1    2    0    0 -0.39291599692E+02 -0.83755289721E+01 -0.62598892022E+01  0.40659138023E+02  0.00000000000E+00 0. -1.
         11    1    3    3    0    0  0.21464978000E+02 -0.18086488001E+01 -0.20037274503E+01  0.21634033719E+02  0.51100000000E-03 0. -1.
        -11    1    3    3    0    0 -0.28223405937E+00 -0.30009463094E+01  0.55697215429E+01  0.63330192754E+01  0.51100000000E-03 0.  1.
         12    1    3    3    0    0  0.18108855752E+02  0.13185124082E+02  0.26938951097E+01  0.22561808982E+02  0.00000000000E+00 0. -1.
</event>
<event>
 7    1  0.6136531E-013  0.5052886E+02  0.7816164E-02  0.1300439E+00
        -11   -1    0    0    0    0  0.00000000000E+00  0.00000000000E+00  0.45593999997E+02  0.45594000000E+02  0.51100000000E-03 0. -1.
         11   -1    0    0    0    0 -0.00000000000E+00 -0.00000000000E+00 -0.45593999997E+02  0.45594000000E+02  0.51100000000E-03 0.  1.
    9900012    2    1    2    0    0  0.21938507647E+01  0.78440381301E+01 -0.39834952445E+02  0.50528863860E+02  0.30000012189E+02 0.  0.
         12    1    1    2    0    0 -0.21938507647E+01 -0.78440381301E+01  0.39834952445E+02  0.40659136140E+02  0.00000000000E+00 0. -1.
         11    1    3    3    0    0 -0.58617249578E+01  0.19783049923E+01 -0.29850280480E+01  0.68690539983E+01  0.51100000000E-03 0. -1.
        -11    1    3    3    0    0 -0.15472030155E+01 -0.57127424607E+01 -0.20958020267E+02  0.21777692196E+02  0.51100000000E-03 0.  1.
        -12    1    3    3    0    0  0.96027787380E+01  0.11578475598E+02 -0.15891904130E+02  0.21882117666E+02  0.00000000000E+00 0.  1.
</event>
<event>
 7    1  0.6136531E-013  0.5052886E+02  0.7816164E-02  0.1300439E+00
        -11   -1    0    0    0    0  0.00000000000E+00  0.00000000000E+00  0.45593999997E+02  0.45594000000E+02  0.51100000000E-03 0. -1.
         11   -1    0    0    0    0 -0.00000000000E+00 -0.00000000000E+00 -0.45593999997E+02  0.45594000000E+02  0.51100000000E-03 0.  1.
    9900012    2    1    2    0    0 -0.18009697479E+01 -0.38050882807E+02 -0.14214508980E+02  0.50528862774E+02  0.30000008888E+02 0.  0.
         12    1    1    2    0    0  0.18009697479E+01  0.38050882807E+02  0.14214508980E+02  0.40659137226E+02  0.00000000000E+00 0. -1.
         11    1    3    3    0    0  0.62979661346E+01 -0.50059240342E+01 -0.10327711436E+02  0.13091419962E+02  0.51100000000E-03 0. -1.
        -11    1    3    3    0    0 -0.11238294083E+02 -0.30892001053E+02 -0.14239709591E+01  0.32903535927E+02  0.51100000000E-03 0.  1.
        -12    1    3    3    0    0  0.31393582002E+01 -0.21529577196E+01 -0.24628265850E+01  0.45339068847E+01  0.00000000000E+00 0.  1.
</event>
<event>
 7    1  0.6136531E-013  0.5052886E+02  0.7816164E-02  0.1300439E+00
        -11   -1    0    0    0    0  0.00000000000E+00  0.00000000000E+00  0.45593999997E+02  0.45594000000E+02  0.51100000000E-03 0.  1.
         11   -1    0    0    0    0 -0.00000000000E+00 -0.00000000000E+00 -0.45593999997E+02  0.45594000000E+02  0.51100000000E-03 0. -1.
    9900012    2    1    2    0    0 -0.13820741702E+01  0.72659943546E+01  0.39980757282E+02  0.50528858890E+02  0.29999997081E+02 0.  0.
         12    1    1    2    0    0  0.13820741702E+01 -0.72659943546E+01 -0.39980757282E+02  0.40659141110E+02  0.00000000000E+00 0. -1.
         11    1    3    3    0    0  0.60821995984E+01  0.11338154237E+02  0.24393323319E+02  0.27578635141E+02  0.51100000000E-03 0.  1.
        -11    1    3    3    0    0 -0.37090799383E+01 -0.54555422307E+01 -0.26316833573E+00  0.66022324144E+01  0.51100000000E-03 0. -1.
         12    1    3    3    0    0 -0.37551938304E+01  0.13833823486E+01  0.15850602299E+02  0.16347991335E+02  0.00000000000E+00 0. -1.
</event>
<event>
 7    1  0.6136531E-013  0.5052896E+02  0.7816164E-02  0.1300438E+00
        -11   -1    0    0    0    0  0.00000000000E+00  0.00000000000E+00  0.45593999997E+02  0.45594000000E+02  0.51100000000E-03 0. -1.
         11   -1    0    0    0    0 -0.00000000000E+00 -0.00000000000E+00 -0.45593999997E+02  0.45594000000E+02  0.51100000000E-03 0.  1.
    9900012    2    1    2    0    0 -0.26513496673E+01 -0.30356693410E+02 -0.26918379548E+02  0.50528958603E+02  0.30000300168E+02 0.  0.
         12    1    1    2    0    0  0.26513496673E+01  0.30356693410E+02  0.26918379548E+02  0.40659041397E+02  0.00000000000E+00 0. -1.
         11    1    3    3    0    0 -0.15621494869E+02 -0.11108219672E+02 -0.11755003082E+02  0.22485634168E+02  0.51100000000E-03 0. -1.
        -11    1    3    3    0    0  0.79132365738E+01 -0.12107053763E+02 -0.11807673727E+02  0.18671401206E+02  0.51100000000E-03 0.  1.
         12    1    3    3    0    0  0.50569086280E+01 -0.71414199745E+01 -0.33557027392E+01  0.93719232283E+01  0.00000000000E+00 0. -1.
</event>
<event>
 7    1  0.6136531E-013  0.5052886E+02  0.7816164E-02  0.1300439E+00
        -11   -1    0    0    0    0  0.00000000000E+00  0.00000000000E+00  0.45593999997E+02  0.45594000000E+02  0.51100000000E-03 0.  1.
         11   -1    0    0    0    0 -0.00000000000E+00 -0.00000000000E+00 -0.45593999997E+02  0.45594000000E+02  0.51100000000E-03 0. -1.
    9900012    2    1    2    0    0 -0.49111264697E+01 -0.40211358424E+02  0.34775679152E+01  0.50528856033E+02  0.29999988399E+02 0.  0.
         12    1    1    2    0    0  0.49111264697E+01  0.40211358424E+02 -0.34775679152E+01  0.40659143967E+02  0.00000000000E+00 0. -1.
         11    1    3    3    0    0  0.49576936594E+01 -0.85310496813E+01 -0.38359617912E+01  0.10586412906E+02  0.51100000000E-03 0. -1.
        -11    1    3    3    0    0 -0.10433641041E+02 -0.45142113048E+01  0.57137029297E+01  0.12723418193E+02  0.51100000000E-03 0.  1.
        -12    1    3    3    0    0  0.56482091233E+00 -0.27166097438E+02  0.15998267767E+01  0.27219024934E+02  0.00000000000E+00 0.  1.
</event>
<event>
 7    1  0.6136531E-013  0.5052884E+02  0.7816164E-02  0.1300439E+00
        -11   -1    0    0    0    0  0.00000000000E+00  0.00000000000E+00  0.45593999997E+02  0.45594000000E+02  0.51100000000E-03 0.  1.
         11   -1    0    0    0    0 -0.00000000000E+00 -0.00000000000E+00 -0.45593999997E+02  0.45594000000E+02  0.51100000000E-03 0. -1.
    9900012    2    1    2    0    0  0.25253371542E+02 -0.86166830022E+01  0.30678776411E+02  0.50528839627E+02  0.29999938529E+02 0.  0.
         12    1    1    2    0    0 -0.25253371542E+02  0.86166830022E+01 -0.30678776411E+02  0.40659160373E+02  0.00000000000E+00 0. -1.
         11    1    3    3    0    0  0.18305021622E+01 -0.38288390674E+01  0.23919600725E+02  0.24293168708E+02  0.51100000000E-03 0. -1.
        -11    1    3    3    0    0  0.20893266310E+02 -0.57065229645E+01  0.82290617349E+01  0.23169170006E+02  0.51100000000E-03 0.  1.
         12    1    3    3    0    0  0.25296030695E+01  0.91867902971E+00 -0.14698860495E+01  0.30665009126E+01  0.00000000000E+00 0. -1.
</event>
<event>
 7    1  0.6136531E-013  0.5052886E+02  0.7816164E-02  0.1300439E+00
        -11   -1    0    0    0    0  0.00000000000E+00  0.00000000000E+00  0.45593999997E+02  0.45594000000E+02  0.51100000000E-03 0.  1.
         11   -1    0    0    0    0 -0.00000000000E+00 -0.00000000000E+00 -0.45593999997E+02  0.45594000000E+02  0.51100000000E-03 0. -1.
    9900012    2    1    2    0    0 -0.14241915389E+02 -0.37985598571E+02  0.27254683501E+01  0.50528855512E+02  0.29999986816E+02 0.  0.
         12    1    1    2    0    0  0.14241915389E+02  0.37985598571E+02 -0.27254683501E+01  0.40659144488E+02  0.00000000000E+00 0. -1.
         11    1    3    3    0    0  0.37958453562E+01 -0.10143382155E+02 -0.61912172188E+01  0.12475087752E+02  0.51100000000E-03 0. -1.
        -11    1    3    3    0    0 -0.16833395056E+02 -0.11500479947E+02  0.28711485864E+01  0.20588048052E+02  0.51100000000E-03 0.  1.
        -12    1    3    3    0    0 -0.12043656891E+01 -0.16341736469E+02  0.60455369825E+01  0.17465719709E+02  0.00000000000E+00 0.  1.
</event>
<event>
 7    1  0.6136531E-013  0.5052886E+02  0.7816164E-02  0.1300439E+00
        -11   -1    0    0    0    0  0.00000000000E+00  0.00000000000E+00  0.45593999997E+02  0.45594000000E+02  0.51100000000E-03 0.  1.
         11   -1    0    0    0    0 -0.00000000000E+00 -0.00000000000E+00 -0.45593999997E+02  0.45594000000E+02  0.51100000000E-03 0. -1.
    9900012    2    1    2    0    0 -0.18885451815E+02 -0.15194602469E+02  0.32643974428E+02  0.50528864483E+02  0.30000014084E+02 0.  0.
         12    1    1    2    0    0  0.18885451815E+02  0.15194602469E+02 -0.32643974428E+02  0.40659135517E+02  0.00000000000E+00 0. -1.
         11    1    3    3    0    0 -0.19555001235E+02 -0.41499124688E+01  0.62120856896E+01  0.20933462582E+02  0.51100000000E-03 0. -1.
        -11    1    3    3    0    0 -0.19823926558E+01 -0.10269371791E+02  0.19391187072E+02  0.22031977078E+02  0.51100000000E-03 0.  1.
         12    1    3    3    0    0  0.26519420759E+01 -0.77531820954E+00  0.70407016669E+01  0.75634248236E+01  0.00000000000E+00 0. -1.
</event>
<event>
 7    1  0.6136531E-013  0.5052886E+02  0.7816164E-02  0.1300439E+00
        -11   -1    0    0    0    0  0.00000000000E+00  0.00000000000E+00  0.45593999997E+02  0.45594000000E+02  0.51100000000E-03 0.  1.
         11   -1    0    0    0    0 -0.00000000000E+00 -0.00000000000E+00 -0.45593999997E+02  0.45594000000E+02  0.51100000000E-03 0. -1.
    9900012    2    1    2    0    0  0.35285200029E+02  0.19610459529E+02  0.48528444815E+01  0.50528861253E+02  0.30000004266E+02 0.  0.
         12    1    1    2    0    0 -0.35285200029E+02 -0.19610459529E+02 -0.48528444815E+01  0.40659138747E+02  0.00000000000E+00 0. -1.
         11    1    3    3    0    0  0.38898976830E+01  0.13908019966E+02 -0.38252124418E+01  0.14939764853E+02  0.51100000000E-03 0. -1.
        -11    1    3    3    0    0  0.19239884636E+02  0.57938585818E-01 -0.66555780338E+00  0.19251480077E+02  0.51100000000E-03 0.  1.
        -12    1    3    3    0    0  0.12155417710E+02  0.56445009770E+01  0.93436147267E+01  0.16337616324E+02  0.00000000000E+00 0.  1.
</event>
<event>
 7    1  0.6136531E-013  0.5052887E+02  0.7816164E-02  0.1300439E+00
        -11   -1    0    0    0    0  0.00000000000E+00  0.00000000000E+00  0.45593999997E+02  0.45594000000E+02  0.51100000000E-03 0.  1.
         11   -1    0    0    0    0 -0.00000000000E+00 -0.00000000000E+00 -0.45593999997E+02  0.45594000000E+02  0.51100000000E-03 0. -1.
    9900012    2    1    2    0    0 -0.31894750191E+02  0.22463462969E+02 -0.11457877654E+02  0.50528865496E+02  0.30000017161E+02 0.  0.
         12    1    1    2    0    0  0.31894750191E+02 -0.22463462969E+02  0.11457877654E+02  0.40659134504E+02  0.00000000000E+00 0. -1.
         11    1    3    3    0    0 -0.97142657403E+01 -0.32507589715E+01  0.31545944964E+01  0.10718482144E+02  0.51100000000E-03 0. -1.
        -11    1    3    3    0    0 -0.12098968056E+02  0.19022224641E+02 -0.15979721046E+02  0.27632979269E+02  0.51100000000E-03 0.  1.
        -12    1    3    3    0    0 -0.10081516395E+02  0.66919972994E+01  0.13672488954E+01  0.12177404083E+02  0.00000000000E+00 0.  1.
</event>
<event>
 7    1  0.6136531E-013  0.5052889E+02  0.7816164E-02  0.1300439E+00
        -11   -1    0    0    0    0  0.00000000000E+00  0.00000000000E+00  0.45593999997E+02  0.45594000000E+02  0.51100000000E-03 0. -1.
         11   -1    0    0    0    0 -0.00000000000E+00 -0.00000000000E+00 -0.45593999997E+02  0.45594000000E+02  0.51100000000E-03 0.  1.
    9900012    2    1    2    0    0 -0.15348039547E+02 -0.37338817658E+02  0.48387706903E+01  0.50528888797E+02  0.30000087987E+02 0.  0.
         12    1    1    2    0    0  0.15348039547E+02  0.37338817658E+02 -0.48387706903E+01  0.40659111203E+02  0.00000000000E+00 0. -1.
         11    1    3    3    0    0  0.16553244361E-01 -0.15229859888E+02  0.19328086918E+01  0.15352024489E+02  0.51100000000E-03 0. -1.
        -11    1    3    3    0    0 -0.15803449905E+02 -0.64463719246E+01  0.77945105677E+01  0.18763238930E+02  0.51100000000E-03 0.  1.
        -12    1    3    3    0    0  0.43885711328E+00 -0.15662585846E+02 -0.48885485692E+01  0.16413625378E+02  0.00000000000E+00 0.  1.
</event>
<event>
 7    1  0.6136531E-013  0.5052885E+02  0.7816164E-02  0.1300439E+00
        -11   -1    0    0    0    0  0.00000000000E+00  0.00000000000E+00  0.45593999997E+02  0.45594000000E+02  0.51100000000E-03 0. -1.
         11   -1    0    0    0    0 -0.00000000000E+00 -0.00000000000E+00 -0.45593999997E+02  0.45594000000E+02  0.51100000000E-03 0.  1.
    9900012    2    1    2    0    0 -0.14169785544E+02  0.36844232479E+02  0.97409399446E+01  0.50528853424E+02  0.29999980467E+02 0.  0.
         12    1    1    2    0    0  0.14169785544E+02 -0.36844232479E+02 -0.97409399446E+01  0.40659146576E+02  0.00000000000E+00 0. -1.
         11    1    3    3    0    0  0.10632780728E+01  0.32183981060E+02  0.70078322214E+00  0.32209164759E+02  0.51100000000E-03 0. -1.
        -11    1    3    3    0    0 -0.45251515695E+01  0.12252728044E+01  0.27146726570E+01  0.54173552651E+01  0.51100000000E-03 0.  1.
         12    1    3    3    0    0 -0.10707912047E+02  0.34349786145E+01  0.63254840654E+01  0.12902333399E+02  0.00000000000E+00 0. -1.
</event>
<event>
 7    1  0.6136531E-013  0.5052886E+02  0.7816164E-02  0.1300439E+00
        -11   -1    0    0    0    0  0.00000000000E+00  0.00000000000E+00  0.45593999997E+02  0.45594000000E+02  0.51100000000E-03 0.  1.
         11   -1    0    0    0    0 -0.00000000000E+00 -0.00000000000E+00 -0.45593999997E+02  0.45594000000E+02  0.51100000000E-03 0. -1.
    9900012    2    1    2    0    0  0.12689645335E+01  0.37789169530E+02  0.14951053497E+02  0.50528860739E+02  0.30000002703E+02 0.  0.
         12    1    1    2    0    0 -0.12689645335E+01 -0.37789169530E+02 -0.14951053497E+02  0.40659139261E+02  0.00000000000E+00 0. -1.
         11    1    3    3    0    0 -0.22512468770E+01 -0.11567253892E+01 -0.13622728756E+00  0.25346960888E+01  0.51100000000E-03 0. -1.
        -11    1    3    3    0    0  0.86223118591E+01  0.39495203756E+02  0.13589981523E+02  0.42648598800E+02  0.51100000000E-03 0.  1.
        -12    1    3    3    0    0 -0.51021004486E+01 -0.54930883710E+00  0.14972992620E+01  0.53455658508E+01  0.00000000000E+00 0.  1.
</event>
<event>
 7    1  0.6136531E-013  0.5052886E+02  0.7816164E-02  0.1300439E+00
        -11   -1    0    0    0    0  0.00000000000E+00  0.00000000000E+00  0.45593999997E+02  0.45594000000E+02  0.51100000000E-03 0.  1.
         11   -1    0    0    0    0 -0.00000000000E+00 -0.00000000000E+00 -0.45593999997E+02  0.45594000000E+02  0.51100000000E-03 0. -1.
    9900012    2    1    2    0    0 -0.80788569372E+01  0.93336825294E+01  0.38739902562E+02  0.50528860689E+02  0.30000002550E+02 0.  0.
         12    1    1    2    0    0  0.80788569372E+01 -0.93336825294E+01 -0.38739902562E+02  0.40659139311E+02  0.00000000000E+00 0. -1.
         11    1    3    3    0    0  0.69492254807E+01  0.23759570363E+01 -0.17403134385E+00  0.73462367094E+01  0.51100000000E-03 0. -1.
        -11    1    3    3    0    0 -0.15665785314E+02  0.69696219409E+01  0.32577848597E+02  0.36814517231E+02  0.51100000000E-03 0.  1.
         12    1    3    3    0    0  0.63770289635E+00 -0.11896447813E-01  0.63360853092E+01  0.63681067481E+01  0.00000000000E+00 0. -1.
</event>
<event>
 7    1  0.6136531E-013  0.5052886E+02  0.7816164E-02  0.1300439E+00
        -11   -1    0    0    0    0  0.00000000000E+00  0.00000000000E+00  0.45593999997E+02  0.45594000000E+02  0.51100000000E-03 0. -1.
         11   -1    0    0    0    0 -0.00000000000E+00 -0.00000000000E+00 -0.45593999997E+02  0.45594000000E+02  0.51100000000E-03 0.  1.
    9900012    2    1    2    0    0  0.28210531316E+02 -0.28335806158E+02 -0.73765683885E+01  0.50528858974E+02  0.29999997339E+02 0.  0.
         12    1    1    2    0    0 -0.28210531316E+02  0.28335806158E+02  0.73765683885E+01  0.40659141026E+02  0.00000000000E+00 0. -1.
         11    1    3    3    0    0  0.85343003926E+01 -0.25601146373E+02  0.31021237661E+00  0.26987945657E+02  0.51100000000E-03 0. -1.
        -11    1    3    3    0    0  0.60276576299E+01  0.49588377669E-01 -0.74841591422E+01  0.96097738703E+01  0.51100000000E-03 0.  1.
         12    1    3    3    0    0  0.13648573294E+02 -0.27842481625E+01 -0.20262162293E+00  0.13931139448E+02  0.00000000000E+00 0. -1.
</event>
<event>
 7    1  0.6136531E-013  0.5052884E+02  0.7816164E-02  0.1300439E+00
        -11   -1    0    0    0    0  0.00000000000E+00  0.00000000000E+00  0.45593999997E+02  0.45594000000E+02  0.51100000000E-03 0.  1.
         11   -1    0    0    0    0 -0.00000000000E+00 -0.00000000000E+00 -0.45593999997E+02  0.45594000000E+02  0.51100000000E-03 0. -1.
    9900012    2    1    2    0    0  0.35185224529E+02 -0.14043667730E+02  0.14762893122E+02  0.50528835697E+02  0.29999926585E+02 0.  0.
         12    1    1    2    0    0 -0.35185224529E+02  0.14043667730E+02 -0.14762893122E+02  0.40659164303E+02  0.00000000000E+00 0. -1.
         11    1    3    3    0    0  0.12449396275E+02 -0.10012095536E+02 -0.31744981194E+01  0.16288246167E+02  0.51100000000E-03 0. -1.
        -11    1    3    3    0    0  0.17278573318E+02 -0.62404314499E+01  0.20751789214E+02  0.27715137315E+02  0.51100000000E-03 0.  1.
        -12    1    3    3    0    0  0.54572549365E+01  0.22088592557E+01 -0.28143979725E+01  0.65254522143E+01  0.00000000000E+00 0.  1.
</event>
<event>
 7    1  0.6136531E-013  0.5052886E+02  0.7816164E-02  0.1300439E+00
        -11   -1    0    0    0    0  0.00000000000E+00  0.00000000000E+00  0.45593999997E+02  0.45594000000E+02  0.51100000000E-03 0.  1.
         11   -1    0    0    0    0 -0.00000000000E+00 -0.00000000000E+00 -0.45593999997E+02  0.45594000000E+02  0.51100000000E-03 0. -1.
    9900012    2    1    2    0    0 -0.17746116561E+02 -0.32330130197E+02  0.17117360060E+02  0.50528856047E+02  0.29999988441E+02 0.  0.
         12    1    1    2    0    0  0.17746116561E+02  0.32330130197E+02 -0.17117360060E+02  0.40659143953E+02  0.00000000000E+00 0. -1.
         11    1    3    3    0    0 -0.90183226384E+01  0.24749064111E+01  0.26600786203E+00  0.93555366173E+01  0.51100000000E-03 0. -1.
        -11    1    3    3    0    0 -0.11160972206E+02 -0.23673323962E+02  0.11723610248E+02  0.28678155545E+02  0.51100000000E-03 0.  1.
        -12    1    3    3    0    0  0.24331782829E+01 -0.11131712646E+02  0.51277419503E+01  0.12495163885E+02  0.00000000000E+00 0.  1.
</event>
<event>
 7    1  0.6136531E-013  0.5052886E+02  0.7816164E-02  0.1300439E+00
        -11   -1    0    0    0    0  0.00000000000E+00  0.00000000000E+00  0.45593999997E+02  0.45594000000E+02  0.51100000000E-03 0.  1.
         11   -1    0    0    0    0 -0.00000000000E+00 -0.00000000000E+00 -0.45593999997E+02  0.45594000000E+02  0.51100000000E-03 0. -1.
    9900012    2    1    2    0    0 -0.24299731795E+02 -0.21303488649E+02  0.24674884699E+02  0.50528861681E+02  0.30000005567E+02 0.  0.
         12    1    1    2    0    0  0.24299731795E+02  0.21303488649E+02 -0.24674884699E+02  0.40659138319E+02  0.00000000000E+00 0. -1.
         11    1    3    3    0    0 -0.36189313226E+01  0.42928430580E+01  0.13330681924E+02  0.14464862469E+02  0.51100000000E-03 0. -1.
        -11    1    3    3    0    0 -0.81466927317E+01 -0.15771481867E+02  0.92024005878E+01  0.19994809816E+02  0.51100000000E-03 0.  1.
         12    1    3    3    0    0 -0.12534107740E+02 -0.98248498401E+01  0.21418021870E+01  0.16069189396E+02  0.00000000000E+00 0. -1.
</event>
<event>
 7    1  0.6136531E-013  0.5052889E+02  0.7816164E-02  0.1300439E+00
        -11   -1    0    0    0    0  0.00000000000E+00  0.00000000000E+00  0.45593999997E+02  0.45594000000E+02  0.51100000000E-03 0.  1.
         11   -1    0    0    0    0 -0.00000000000E+00 -0.00000000000E+00 -0.45593999997E+02  0.45594000000E+02  0.51100000000E-03 0. -1.
    9900012    2    1    2    0    0  0.10247244368E+02 -0.10653216475E+02  0.37876987821E+02  0.50528889769E+02  0.30000090942E+02 0.  0.
         12    1    1    2    0    0 -0.10247244368E+02  0.10653216475E+02 -0.37876987821E+02  0.40659110231E+02  0.00000000000E+00 0. -1.
         11    1    3    3    0    0 -0.84091643321E+01 -0.23532197290E+01  0.87027274856E+01  0.12328388127E+02  0.51100000000E-03 0. -1.
        -11    1    3    3    0    0  0.13053883155E+02 -0.23000688590E+01  0.26390718218E+02  0.29532426086E+02  0.51100000000E-03 0.  1.
         12    1    3    3    0    0  0.56025255450E+01 -0.59999278870E+01  0.27835421165E+01  0.86680755560E+01  0.00000000000E+00 0. -1.
</event>
<event>
 7    1  0.6136531E-013  0.5052887E+02  0.7816164E-02  0.1300439E+00
        -11   -1    0    0    0    0  0.00000000000E+00  0.00000000000E+00  0.45593999997E+02  0.45594000000E+02  0.51100000000E-03 0.  1.
         11   -1    0    0    0    0 -0.00000000000E+00 -0.00000000000E+00 -0.45593999997E+02  0.45594000000E+02  0.51100000000E-03 0. -1.
    9900012    2    1    2    0    0  0.17882280879E+02 -0.20555069821E+02  0.30180761554E+02  0.50528865322E+02  0.30000016634E+02 0.  0.
         12    1    1    2    0    0 -0.17882280879E+02  0.20555069821E+02 -0.30180761554E+02  0.40659134678E+02  0.00000000000E+00 0. -1.
         11    1    3    3    0    0  0.50167394753E+01  0.29443197516E+01 -0.25166953853E+01  0.63380162265E+01  0.51100000000E-03 0. -1.
        -11    1    3    3    0    0  0.47113982925E+01 -0.20211719655E+02  0.25119758269E+02  0.32583939925E+02  0.51100000000E-03 0.  1.
        -12    1    3    3    0    0  0.81541431112E+01 -0.32876699171E+01  0.75776986705E+01  0.11606909171E+02  0.00000000000E+00 0.  1.
</event>
<event>
 7    1  0.6136531E-013  0.5052886E+02  0.7816164E-02  0.1300439E+00
        -11   -1    0    0    0    0  0.00000000000E+00  0.00000000000E+00  0.45593999997E+02  0.45594000000E+02  0.51100000000E-03 0.  1.
         11   -1    0    0    0    0 -0.00000000000E+00 -0.00000000000E+00 -0.45593999997E+02  0.45594000000E+02  0.51100000000E-03 0. -1.
    9900012    2    1    2    0    0  0.10258515993E+02 -0.37771952248E+02 -0.11009459731E+02  0.50528859200E+02  0.29999998026E+02 0.  0.
         12    1    1    2    0    0 -0.10258515993E+02  0.37771952248E+02  0.11009459731E+02  0.40659140800E+02  0.00000000000E+00 0. -1.
         11    1    3    3    0    0  0.57621248263E+01 -0.12262301226E+02 -0.12583450942E+02  0.18490790998E+02  0.51100000000E-03 0. -1.
        -11    1    3    3    0    0 -0.68922000077E+01 -0.11836344509E+02  0.35065662033E+01  0.14138510497E+02  0.51100000000E-03 0.  1.
        -12    1    3    3    0    0  0.11388591174E+02 -0.13673306512E+02 -0.19325749925E+01  0.17899557705E+02  0.00000000000E+00 0.  1.
</event>
<event>
 7    1  0.6136531E-013  0.5052886E+02  0.7816164E-02  0.1300439E+00
        -11   -1    0    0    0    0  0.00000000000E+00  0.00000000000E+00  0.45593999997E+02  0.45594000000E+02  0.51100000000E-03 0.  1.
         11   -1    0    0    0    0 -0.00000000000E+00 -0.00000000000E+00 -0.45593999997E+02  0.45594000000E+02  0.51100000000E-03 0. -1.
    9900012    2    1    2    0    0  0.23510964785E+02 -0.13478346236E+02  0.30310635703E+02  0.50528856882E+02  0.29999990979E+02 0.  0.
         12    1    1    2    0    0 -0.23510964785E+02  0.13478346236E+02 -0.30310635703E+02  0.40659143118E+02  0.00000000000E+00 0. -1.
         11    1    3    3    0    0  0.15342002888E+02 -0.19667013252E+02  0.28314163741E+02  0.37734073879E+02  0.51100000000E-03 0. -1.
        -11    1    3    3    0    0  0.26394307565E+01 -0.15226496532E+01 -0.20425116374E+00  0.30539769946E+01  0.51100000000E-03 0.  1.
         12    1    3    3    0    0  0.55295311408E+01  0.77113166698E+01  0.22007231248E+01  0.97408060083E+01  0.00000000000E+00 0. -1.
</event>
<event>
 7    1  0.6136531E-013  0.5052886E+02  0.7816164E-02  0.1300439E+00
        -11   -1    0    0    0    0  0.00000000000E+00  0.00000000000E+00  0.45593999997E+02  0.45594000000E+02  0.51100000000E-03 0.  1.
         11   -1    0    0    0    0 -0.00000000000E+00 -0.00000000000E+00 -0.45593999997E+02  0.45594000000E+02  0.51100000000E-03 0. -1.
    9900012    2    1    2    0    0 -0.38334345221E+02  0.10821475149E+02  0.81571820516E+01  0.50528856293E+02  0.29999989189E+02 0.  0.
         12    1    1    2    0    0  0.38334345221E+02 -0.10821475149E+02 -0.81571820516E+01  0.40659143707E+02  0.00000000000E+00 0. -1.
         11    1    3    3    0    0 -0.37054069751E+01  0.90387376810E+01 -0.53482781580E+01  0.11137005847E+02  0.51100000000E-03 0. -1.
        -11    1    3    3    0    0 -0.27806258966E+02 -0.23744773518E+01  0.14309200157E+02  0.31362069284E+02  0.51100000000E-03 0.  1.
         12    1    3    3    0    0 -0.68226792799E+01  0.41572148193E+01 -0.80373994722E+00  0.80297811622E+01  0.00000000000E+00 0. -1.
</event>
<event>
 7    1  0.6136531E-013  0.5052886E+02  0.7816164E-02  0.1300439E+00
        -11   -1    0    0    0    0  0.00000000000E+00  0.00000000000E+00  0.45593999997E+02  0.45594000000E+02  0.51100000000E-03 0.  1.
         11   -1    0    0    0    0 -0.00000000000E+00 -0.00000000000E+00 -0.45593999997E+02  0.45594000000E+02  0.51100000000E-03 0. -1.
    9900012    2    1    2    0    0  0.20713354684E+02  0.30809993830E+02  0.16579114330E+02  0.50528858174E+02  0.29999994906E+02 0.  0.
         12    1    1    2    0    0 -0.20713354684E+02 -0.30809993830E+02 -0.16579114330E+02  0.40659141826E+02  0.00000000000E+00 0. -1.
         11    1    3    3    0    0 -0.53077319164E+01  0.68219897919E+01  0.76868862695E+01  0.11567185639E+02  0.51100000000E-03 0. -1.
        -11    1    3    3    0    0  0.14107719965E+02  0.85258717359E+01  0.10223660533E+02  0.19396945286E+02  0.51100000000E-03 0.  1.
         12    1    3    3    0    0  0.11913366635E+02  0.15462132302E+02 -0.13314324728E+01  0.19564727249E+02  0.00000000000E+00 0. -1.
</event>
<event>
 7    1  0.6136531E-013  0.5052886E+02  0.7816164E-02  0.1300439E+00
        -11   -1    0    0    0    0  0.00000000000E+00  0.00000000000E+00  0.45593999997E+02  0.45594000000E+02  0.51100000000E-03 0. -1.
         11   -1    0    0    0    0 -0.00000000000E+00 -0.00000000000E+00 -0.45593999997E+02  0.45594000000E+02  0.51100000000E-03 0.  1.
    9900012    2    1    2    0    0 -0.16863047036E+02  0.36993068217E+02 -0.56217313623E+00  0.50528862158E+02  0.30000007014E+02 0.  0.
         12    1    1    2    0    0  0.16863047036E+02 -0.36993068217E+02  0.56217313623E+00  0.40659137842E+02  0.00000000000E+00 0. -1.
         11    1    3    3    0    0 -0.70308287947E+01  0.21627635295E+02  0.94116179341E+01  0.24612308189E+02  0.51100000000E-03 0. -1.
        -11    1    3    3    0    0 -0.18113011318E+01  0.15778387457E+02 -0.63276679346E+01  0.17096131267E+02  0.51100000000E-03 0.  1.
         12    1    3    3    0    0 -0.80209171091E+01 -0.41295453474E+00 -0.36461231357E+01  0.88204227019E+01  0.00000000000E+00 0. -1.
</event>
<event>
 7    1  0.6136531E-013  0.5052887E+02  0.7816164E-02  0.1300439E+00
        -11   -1    0    0    0    0  0.00000000000E+00  0.00000000000E+00  0.45593999997E+02  0.45594000000E+02  0.51100000000E-03 0. -1.
         11   -1    0    0    0    0 -0.00000000000E+00 -0.00000000000E+00 -0.45593999997E+02  0.45594000000E+02  0.51100000000E-03 0.  1.
    9900012    2    1    2    0    0 -0.22180718645E+02  0.32033155135E+02  0.11621436702E+02  0.50528866972E+02  0.30000021649E+02 0.  0.
         12    1    1    2    0    0  0.22180718645E+02 -0.32033155135E+02 -0.11621436702E+02  0.40659133028E+02  0.00000000000E+00 0. -1.
         11    1    3    3    0    0 -0.17878843210E+02  0.12956715607E+02 -0.22493440708E+00  0.22081216216E+02  0.51100000000E-03 0. -1.
        -11    1    3    3    0    0 -0.71450910608E+01  0.20996857646E+02  0.11543062690E+02  0.25003252864E+02  0.51100000000E-03 0.  1.
         12    1    3    3    0    0  0.28432156252E+01 -0.19204181179E+01  0.30330841876E+00  0.34443978916E+01  0.00000000000E+00 0. -1.
</event>
<event>
 7    1  0.6136531E-013  0.5052886E+02  0.7816164E-02  0.1300439E+00
        -11   -1    0    0    0    0  0.00000000000E+00  0.00000000000E+00  0.45593999997E+02  0.45594000000E+02  0.51100000000E-03 0.  1.
         11   -1    0    0    0    0 -0.00000000000E+00 -0.00000000000E+00 -0.45593999997E+02  0.45594000000E+02  0.51100000000E-03 0. -1.
    9900012    2    1    2    0    0 -0.81681734689E+01  0.12499459156E+02  0.37818118438E+02  0.50528860570E+02  0.30000002187E+02 0.  0.
         12    1    1    2    0    0  0.81681734689E+01 -0.12499459156E+02 -0.37818118438E+02  0.40659139430E+02  0.00000000000E+00 0. -1.
         11    1    3    3    0    0 -0.14604265039E+01 -0.94594247724E+00 -0.31204245219E+01  0.35727723412E+01  0.51100000000E-03 0. -1.
        -11    1    3    3    0    0 -0.16687643867E+01  0.14770115377E+02  0.17571304887E+02  0.23015035054E+02  0.51100000000E-03 0.  1.
         12    1    3    3    0    0 -0.50389825782E+01 -0.13247137442E+01  0.23367238074E+02  0.23941053175E+02  0.00000000000E+00 0. -1.
</event>
<event>
 7    1  0.6136531E-013  0.5052885E+02  0.7816164E-02  0.1300439E+00
        -11   -1    0    0    0    0  0.00000000000E+00  0.00000000000E+00  0.45593999997E+02  0.45594000000E+02  0.51100000000E-03 0.  1.
         11   -1    0    0    0    0 -0.00000000000E+00 -0.00000000000E+00 -0.45593999997E+02  0.45594000000E+02  0.51100000000E-03 0. -1.
    9900012    2    1    2    0    0  0.29513788814E+01  0.33293928141E+02  0.23151022841E+02  0.50528854080E+02  0.29999982462E+02 0.  0.
         12    1    1    2    0    0 -0.29513788814E+01 -0.33293928141E+02 -0.23151022841E+02  0.40659145920E+02  0.00000000000E+00 0. -1.
         11    1    3    3    0    0 -0.71932716857E+01  0.25313679654E+02  0.16550224572E+02  0.31087545237E+02  0.51100000000E-03 0. -1.
        -11    1    3    3    0    0  0.11226746151E+02  0.13193003144E+01  0.56138776619E+01  0.12621252122E+02  0.51100000000E-03 0.  1.
         12    1    3    3    0    0 -0.10820955840E+01  0.66609481718E+01  0.98692060722E+00  0.68200567216E+01  0.00000000000E+00 0. -1.
</event>
<event>
 7    1  0.6136531E-013  0.5052886E+02  0.7816164E-02  0.1300439E+00
        -11   -1    0    0    0    0  0.00000000000E+00  0.00000000000E+00  0.45593999997E+02  0.45594000000E+02  0.51100000000E-03 0. -1.
         11   -1    0    0    0    0 -0.00000000000E+00 -0.00000000000E+00 -0.45593999997E+02  0.45594000000E+02  0.51100000000E-03 0.  1.
    9900012    2    1    2    0    0 -0.16060800560E+02 -0.36031552397E+02  0.98459925104E+01  0.50528860175E+02  0.30000000988E+02 0.  0.
         12    1    1    2    0    0  0.16060800560E+02  0.36031552397E+02 -0.98459925104E+01  0.40659139825E+02  0.00000000000E+00 0. -1.
         11    1    3    3    0    0 -0.23144728226E+01 -0.52631921389E+01  0.79301957393E+01  0.97952019205E+01  0.51100000000E-03 0. -1.
        -11    1    3    3    0    0 -0.11862359787E+02 -0.47296583470E+01 -0.50192895252E+01  0.13721461853E+02  0.51100000000E-03 0.  1.
        -12    1    3    3    0    0 -0.18839679508E+01 -0.26038701911E+02  0.69350862963E+01  0.27012196401E+02  0.00000000000E+00 0.  1.
</event>
<event>
 7    1  0.6136531E-013  0.5052886E+02  0.7816164E-02  0.1300439E+00
        -11   -1    0    0    0    0  0.00000000000E+00  0.00000000000E+00  0.45593999997E+02  0.45594000000E+02  0.51100000000E-03 0. -1.
         11   -1    0    0    0    0 -0.00000000000E+00 -0.00000000000E+00 -0.45593999997E+02  0.45594000000E+02  0.51100000000E-03 0.  1.
    9900012    2    1    2    0    0 -0.24402904380E+02  0.24038097777E+02 -0.21905099389E+02  0.50528864912E+02  0.30000015385E+02 0.  0.
         12    1    1    2    0    0  0.24402904380E+02 -0.24038097777E+02  0.21905099389E+02  0.40659135088E+02  0.00000000000E+00 0. -1.
         11    1    3    3    0    0 -0.23604321513E+01  0.15720098581E+02 -0.60823184494E+01  0.17020215549E+02  0.51100000000E-03 0. -1.
        -11    1    3    3    0    0 -0.23603064375E+02  0.34008490269E+01 -0.15277893237E+02  0.28321095388E+02  0.51100000000E-03 0.  1.
         12    1    3    3    0    0  0.15605921463E+01  0.49171501688E+01 -0.54488770274E+00  0.51875539745E+01  0.00000000000E+00 0. -1.
</event>
<event>
 7    1  0.6136531E-013  0.5052885E+02  0.7816164E-02  0.1300439E+00
        -11   -1    0    0    0    0  0.00000000000E+00  0.00000000000E+00  0.45593999997E+02  0.45594000000E+02  0.51100000000E-03 0.  1.
         11   -1    0    0    0    0 -0.00000000000E+00 -0.00000000000E+00 -0.45593999997E+02  0.45594000000E+02  0.51100000000E-03 0. -1.
    9900012    2    1    2    0    0  0.10888957310E+02  0.36021752413E+02  0.15395780839E+02  0.50528854585E+02  0.29999983997E+02 0.  0.
         12    1    1    2    0    0 -0.10888957310E+02 -0.36021752413E+02 -0.15395780839E+02  0.40659145415E+02  0.00000000000E+00 0. -1.
         11    1    3    3    0    0  0.59529023799E+01  0.58257735788E+01  0.11571890273E+02  0.14257816428E+02  0.51100000000E-03 0. -1.
        -11    1    3    3    0    0  0.11074856088E+02  0.23882937769E+02 -0.77419248363E+00  0.26337170085E+02  0.51100000000E-03 0.  1.
         12    1    3    3    0    0 -0.61388011576E+01  0.63130410659E+01  0.45980830495E+01  0.99338680725E+01  0.00000000000E+00 0. -1.
</event>
<event>
 7    1  0.6136531E-013  0.5052895E+02  0.7816164E-02  0.1300438E+00
        -11   -1    0    0    0    0  0.00000000000E+00  0.00000000000E+00  0.45593999997E+02  0.45594000000E+02  0.51100000000E-03 0. -1.
         11   -1    0    0    0    0 -0.00000000000E+00 -0.00000000000E+00 -0.45593999997E+02  0.45594000000E+02  0.51100000000E-03 0.  1.
    9900012    2    1    2    0    0  0.24188199681E+01  0.37246634715E+02 -0.16124391398E+02  0.50528948295E+02  0.30000268836E+02 0.  0.
         12    1    1    2    0    0 -0.24188199681E+01 -0.37246634715E+02  0.16124391398E+02  0.40659051705E+02  0.00000000000E+00 0. -1.
         11    1    3    3    0    0  0.95716490524E+01  0.25346674409E+02 -0.15945971114E+02  0.31437944656E+02  0.51100000000E-03 0. -1.
        -11    1    3    3    0    0 -0.78042875181E+01  0.57381890662E+01 -0.53092062150E+01  0.11046329179E+02  0.51100000000E-03 0.  1.
         12    1    3    3    0    0  0.65145843377E+00  0.61617712394E+01  0.51307859311E+01  0.80446744601E+01  0.00000000000E+00 0. -1.
</event>
<event>
 7    1  0.6136531E-013  0.5052879E+02  0.7816164E-02  0.1300439E+00
        -11   -1    0    0    0    0  0.00000000000E+00  0.00000000000E+00  0.45593999997E+02  0.45594000000E+02  0.51100000000E-03 0.  1.
         11   -1    0    0    0    0 -0.00000000000E+00 -0.00000000000E+00 -0.45593999997E+02  0.45594000000E+02  0.51100000000E-03 0. -1.
    9900012    2    1    2    0    0 -0.11707668589E+02 -0.15404211738E+02  0.35760480308E+02  0.50528792003E+02  0.29999793772E+02 0.  0.
         12    1    1    2    0    0  0.11707668589E+02  0.15404211738E+02 -0.35760480308E+02  0.40659207997E+02  0.00000000000E+00 0. -1.
         11    1    3    3    0    0 -0.30950473694E+01 -0.17992205850E+02  0.27880414694E+02  0.33325910540E+02  0.51100000000E-03 0. -1.
        -11    1    3    3    0    0  0.32244359031E+01  0.61362348906E+00  0.14518634463E+01  0.35890706885E+01  0.51100000000E-03 0.  1.
         12    1    3    3    0    0 -0.11837057123E+02  0.19743706228E+01  0.64282021680E+01  0.13613810774E+02  0.00000000000E+00 0. -1.
</event>
<event>
 7    1  0.6136531E-013  0.5052887E+02  0.7816164E-02  0.1300439E+00
        -11   -1    0    0    0    0  0.00000000000E+00  0.00000000000E+00  0.45593999997E+02  0.45594000000E+02  0.51100000000E-03 0. -1.
         11   -1    0    0    0    0 -0.00000000000E+00 -0.00000000000E+00 -0.45593999997E+02  0.45594000000E+02  0.51100000000E-03 0.  1.
    9900012    2    1    2    0    0  0.70734073412E+01 -0.33411565206E+02 -0.22063528154E+02  0.50528867502E+02  0.30000023258E+02 0.  0.
         12    1    1    2    0    0 -0.70734073412E+01  0.33411565206E+02  0.22063528154E+02  0.40659132498E+02  0.00000000000E+00 0. -1.
         11    1    3    3    0    0 -0.87658253871E+01 -0.17960737162E+02 -0.73385006976E+01  0.21290405512E+02  0.51100000000E-03 0. -1.
        -11    1    3    3    0    0  0.12781753496E+02 -0.42008546151E+01 -0.94562994460E+01  0.16445120899E+02  0.51100000000E-03 0.  1.
         12    1    3    3    0    0  0.30574792326E+01 -0.11249973429E+02 -0.52687280099E+01  0.12793341090E+02  0.00000000000E+00 0. -1.
</event>
<event>
 7    1  0.6136531E-013  0.5052886E+02  0.7816164E-02  0.1300439E+00
        -11   -1    0    0    0    0  0.00000000000E+00  0.00000000000E+00  0.45593999997E+02  0.45594000000E+02  0.51100000000E-03 0.  1.
         11   -1    0    0    0    0 -0.00000000000E+00 -0.00000000000E+00 -0.45593999997E+02  0.45594000000E+02  0.51100000000E-03 0. -1.
    9900012    2    1    2    0    0 -0.29550696506E+02 -0.27925507467E+02  0.29633901548E+00  0.50528862674E+02  0.30000008584E+02 0.  0.
         12    1    1    2    0    0  0.29550696506E+02  0.27925507467E+02 -0.29633901548E+00  0.40659137326E+02  0.00000000000E+00 0. -1.
         11    1    3    3    0    0 -0.14035197077E+02 -0.13520568565E+02  0.10791756950E+02  0.22276771526E+02  0.51100000000E-03 0. -1.
        -11    1    3    3    0    0 -0.11243010174E+02 -0.17362426330E+02 -0.10159369059E+02  0.23044997413E+02  0.51100000000E-03 0.  1.
        -12    1    3    3    0    0 -0.42724892556E+01  0.29574874274E+01 -0.33604887512E+00  0.52070937354E+01  0.00000000000E+00 0.  1.
</event>
<event>
 7    1  0.6136531E-013  0.5052889E+02  0.7816164E-02  0.1300439E+00
        -11   -1    0    0    0    0  0.00000000000E+00  0.00000000000E+00  0.45593999997E+02  0.45594000000E+02  0.51100000000E-03 0. -1.
         11   -1    0    0    0    0 -0.00000000000E+00 -0.00000000000E+00 -0.45593999997E+02  0.45594000000E+02  0.51100000000E-03 0.  1.
    9900012    2    1    2    0    0  0.38178120486E+02 -0.74118889311E+01  0.11859950484E+02  0.50528887776E+02  0.30000084883E+02 0.  0.
         12    1    1    2    0    0 -0.38178120486E+02  0.74118889311E+01 -0.11859950484E+02  0.40659112224E+02  0.00000000000E+00 0. -1.
         11    1    3    3    0    0  0.38210833561E+02 -0.65142114314E+01  0.57695057576E+01  0.39189156012E+02  0.51100000000E-03 0. -1.
        -11    1    3    3    0    0 -0.30347886113E+01  0.21436016838E+01 -0.21601099146E+00  0.37217779492E+01  0.51100000000E-03 0.  1.
         12    1    3    3    0    0  0.30020755365E+01 -0.30412791835E+01  0.63064557180E+01  0.76179538147E+01  0.00000000000E+00 0. -1.
</event>
<event>
 7    1  0.6136531E-013  0.5052887E+02  0.7816164E-02  0.1300439E+00
        -11   -1    0    0    0    0  0.00000000000E+00  0.00000000000E+00  0.45593999997E+02  0.45594000000E+02  0.51100000000E-03 0.  1.
         11   -1    0    0    0    0 -0.00000000000E+00 -0.00000000000E+00 -0.45593999997E+02  0.45594000000E+02  0.51100000000E-03 0. -1.
    9900012    2    1    2    0    0  0.18322708728E+02  0.25633253489E+02  0.25697855804E+02  0.50528866555E+02  0.30000020381E+02 0.  0.
         12    1    1    2    0    0 -0.18322708728E+02 -0.25633253489E+02 -0.25697855804E+02  0.40659133445E+02  0.00000000000E+00 0. -1.
         11    1    3    3    0    0  0.11059312529E+02 -0.37539995295E+01  0.75110494854E+01  0.13885847858E+02  0.51100000000E-03 0. -1.
        -11    1    3    3    0    0  0.58657396808E+01  0.97101175096E+01  0.29626310804E+01  0.11724780051E+02  0.51100000000E-03 0.  1.
         12    1    3    3    0    0  0.13976565175E+01  0.19677135509E+02  0.15224175238E+02  0.24918238647E+02  0.00000000000E+00 0. -1.
</event>
<event>
 7    1  0.6136531E-013  0.5052885E+02  0.7816164E-02  0.1300439E+00
        -11   -1    0    0    0    0  0.00000000000E+00  0.00000000000E+00  0.45593999997E+02  0.45594000000E+02  0.51100000000E-03 0.  1.
         11   -1    0    0    0    0 -0.00000000000E+00 -0.00000000000E+00 -0.45593999997E+02  0.45594000000E+02  0.51100000000E-03 0. -1.
    9900012    2    1    2    0    0 -0.22993255989E+02 -0.57629750189E+01  0.33034293491E+02  0.50528852831E+02  0.29999978665E+02 0.  0.
         12    1    1    2    0    0  0.22993255989E+02  0.57629750189E+01 -0.33034293491E+02  0.40659147169E+02  0.00000000000E+00 0. -1.
         11    1    3    3    0    0  0.17050739528E+01  0.49329790589E+01  0.77767709280E-01  0.52199241046E+01  0.51100000000E-03 0. -1.
        -11    1    3    3    0    0 -0.17611786698E+02  0.69948248319E+00  0.17457487188E+02  0.24807824685E+02  0.51100000000E-03 0.  1.
        -12    1    3    3    0    0 -0.70865432441E+01 -0.11395436561E+02  0.15499038595E+02  0.20501104042E+02  0.00000000000E+00 0.  1.
</event>
<event>
 7    1  0.6136531E-013  0.5052886E+02  0.7816164E-02  0.1300439E+00
        -11   -1    0    0    0    0  0.00000000000E+00  0.00000000000E+00  0.45593999997E+02  0.45594000000E+02  0.51100000000E-03 0.  1.
         11   -1    0    0    0    0 -0.00000000000E+00 -0.00000000000E+00 -0.45593999997E+02  0.45594000000E+02  0.51100000000E-03 0. -1.
    9900012    2    1    2    0    0  0.34926655199E+01  0.89403500443E+01  0.39509965747E+02  0.50528856322E+02  0.29999989275E+02 0.  0.
         12    1    1    2    0    0 -0.34926655199E+01 -0.89403500443E+01 -0.39509965747E+02  0.40659143678E+02  0.00000000000E+00 0. -1.
         11    1    3    3    0    0  0.57421521962E+01 -0.44635683048E+01 -0.11474972123E+01  0.73629140949E+01  0.51100000000E-03 0. -1.
        -11    1    3    3    0    0 -0.29813984128E+01  0.51575574628E+01  0.13082145052E+02  0.14374687993E+02  0.51100000000E-03 0.  1.
         12    1    3    3    0    0  0.73191173651E+00  0.82463608863E+01  0.27575317907E+02  0.28791254233E+02  0.00000000000E+00 0. -1.
</event>
<event>
 7    1  0.6136531E-013  0.5052886E+02  0.7816164E-02  0.1300439E+00
        -11   -1    0    0    0    0  0.00000000000E+00  0.00000000000E+00  0.45593999997E+02  0.45594000000E+02  0.51100000000E-03 0.  1.
         11   -1    0    0    0    0 -0.00000000000E+00 -0.00000000000E+00 -0.45593999997E+02  0.45594000000E+02  0.51100000000E-03 0. -1.
    9900012    2    1    2    0    0 -0.30442564087E+02  0.51742816224E+01  0.26450764433E+02  0.50528857884E+02  0.29999994023E+02 0.  0.
         12    1    1    2    0    0  0.30442564087E+02 -0.51742816224E+01 -0.26450764433E+02  0.40659142116E+02  0.00000000000E+00 0. -1.
         11    1    3    3    0    0 -0.88535650665E+00  0.84960890387E+01  0.10975505430E+02  0.13907879234E+02  0.51100000000E-03 0. -1.
        -11    1    3    3    0    0 -0.25762746686E+02 -0.79624866477E+01  0.10921289883E+02  0.29092866538E+02  0.51100000000E-03 0.  1.
        -12    1    3    3    0    0 -0.37944608951E+01  0.46406792315E+01  0.45539691207E+01  0.75281121117E+01  0.00000000000E+00 0.  1.
</event>
<event>
 7    1  0.6136531E-013  0.5052891E+02  0.7816164E-02  0.1300439E+00
        -11   -1    0    0    0    0  0.00000000000E+00  0.00000000000E+00  0.45593999997E+02  0.45594000000E+02  0.51100000000E-03 0.  1.
         11   -1    0    0    0    0 -0.00000000000E+00 -0.00000000000E+00 -0.45593999997E+02  0.45594000000E+02  0.51100000000E-03 0. -1.
    9900012    2    1    2    0    0 -0.40609346758E+01 -0.10755457230E+02  0.38999880555E+02  0.50528908348E+02  0.30000147415E+02 0.  0.
         12    1    1    2    0    0  0.40609346758E+01  0.10755457230E+02 -0.38999880555E+02  0.40659091652E+02  0.00000000000E+00 0. -1.
         11    1    3    3    0    0 -0.34610582893E+01 -0.16207627337E+02  0.10789646318E+02  0.19775807855E+02  0.51100000000E-03 0. -1.
        -11    1    3    3    0    0 -0.21694284422E+01 -0.26886437261E+01  0.47685443750E+01  0.58884837241E+01  0.51100000000E-03 0.  1.
         12    1    3    3    0    0  0.15695520557E+01  0.81408138330E+01  0.23441689862E+02  0.24864616770E+02  0.00000000000E+00 0. -1.
</event>
<event>
 7    1  0.6136531E-013  0.5052889E+02  0.7816164E-02  0.1300439E+00
        -11   -1    0    0    0    0  0.00000000000E+00  0.00000000000E+00  0.45593999997E+02  0.45594000000E+02  0.51100000000E-03 0.  1.
         11   -1    0    0    0    0 -0.00000000000E+00 -0.00000000000E+00 -0.45593999997E+02  0.45594000000E+02  0.51100000000E-03 0. -1.
    9900012    2    1    2    0    0 -0.42091312005E+01 -0.86518257072E+01  0.39504330351E+02  0.50528892902E+02  0.30000100464E+02 0.  0.
         12    1    1    2    0    0  0.42091312005E+01  0.86518257072E+01 -0.39504330351E+02  0.40659107098E+02  0.00000000000E+00 0. -1.
         11    1    3    3    0    0 -0.84764360339E+01 -0.10233844682E+02  0.57722609327E+01  0.14487944690E+02  0.51100000000E-03 0. -1.
        -11    1    3    3    0    0 -0.24710956229E+01 -0.79472178901E+00  0.23011316742E+02  0.23157257928E+02  0.51100000000E-03 0.  1.
         12    1    3    3    0    0  0.67384004563E+01  0.23767407634E+01  0.10720752677E+02  0.12883690284E+02  0.00000000000E+00 0. -1.
</event>
<event>
 7    1  0.6136531E-013  0.5052886E+02  0.7816164E-02  0.1300439E+00
        -11   -1    0    0    0    0  0.00000000000E+00  0.00000000000E+00  0.45593999997E+02  0.45594000000E+02  0.51100000000E-03 0.  1.
         11   -1    0    0    0    0 -0.00000000000E+00 -0.00000000000E+00 -0.45593999997E+02  0.45594000000E+02  0.51100000000E-03 0. -1.
    9900012    2    1    2    0    0  0.16814944502E+02 -0.33405923941E+02  0.15952050930E+02  0.50528855373E+02  0.29999986392E+02 0.  0.
         12    1    1    2    0    0 -0.16814944502E+02  0.33405923941E+02 -0.15952050930E+02  0.40659144627E+02  0.00000000000E+00 0. -1.
         11    1    3    3    0    0  0.78996273506E+01 -0.41683679736E+01 -0.16682868393E+01  0.90863956045E+01  0.51100000000E-03 0. -1.
        -11    1    3    3    0    0  0.13676356153E+02 -0.29083817304E+02  0.17675132751E+02  0.36678624083E+02  0.51100000000E-03 0.  1.
        -12    1    3    3    0    0 -0.47610390015E+01 -0.15373866318E+00 -0.54794981638E-01  0.47638356857E+01  0.00000000000E+00 0.  1.
</event>
<event>
 7    1  0.6136531E-013  0.5052886E+02  0.7816164E-02  0.1300439E+00
        -11   -1    0    0    0    0  0.00000000000E+00  0.00000000000E+00  0.45593999997E+02  0.45594000000E+02  0.51100000000E-03 0.  1.
         11   -1    0    0    0    0 -0.00000000000E+00 -0.00000000000E+00 -0.45593999997E+02  0.45594000000E+02  0.51100000000E-03 0. -1.
    9900012    2    1    2    0    0 -0.37477313993E+01 -0.14833206722E+02  0.37670893979E+02  0.50528858771E+02  0.29999996719E+02 0.  0.
         12    1    1    2    0    0  0.37477313993E+01  0.14833206722E+02 -0.37670893979E+02  0.40659141229E+02  0.00000000000E+00 0. -1.
         11    1    3    3    0    0 -0.73875815566E+01 -0.15629844410E+02  0.13843566051E+02  0.22147521730E+02  0.51100000000E-03 0. -1.
        -11    1    3    3    0    0  0.26331060022E+01  0.33755184619E+01  0.25007910970E+02  0.25371696503E+02  0.51100000000E-03 0.  1.
        -12    1    3    3    0    0  0.10067441550E+01 -0.25788807745E+01 -0.11805830417E+01  0.30096405369E+01  0.00000000000E+00 0.  1.
</event>
<event>
 7    1  0.6136531E-013  0.5052885E+02  0.7816164E-02  0.1300439E+00
        -11   -1    0    0    0    0  0.00000000000E+00  0.00000000000E+00  0.45593999997E+02  0.45594000000E+02  0.51100000000E-03 0.  1.
         11   -1    0    0    0    0 -0.00000000000E+00 -0.00000000000E+00 -0.45593999997E+02  0.45594000000E+02  0.51100000000E-03 0. -1.
    9900012    2    1    2    0    0 -0.82682369716E+01 -0.68929901129E+01  0.39208279857E+02  0.50528852632E+02  0.29999978060E+02 0.  0.
         12    1    1    2    0    0  0.82682369716E+01  0.68929901129E+01 -0.39208279857E+02  0.40659147368E+02  0.00000000000E+00 0. -1.
         11    1    3    3    0    0  0.68785076300E+01 -0.11027098048E+02  0.19147179894E+02  0.23141418641E+02  0.51100000000E-03 0. -1.
        -11    1    3    3    0    0 -0.84985309545E+01  0.24653892583E+01  0.18274162494E+02  0.20303895875E+02  0.51100000000E-03 0.  1.
         12    1    3    3    0    0 -0.66482136471E+01  0.16687186767E+01  0.17869374694E+01  0.70835381159E+01  0.00000000000E+00 0. -1.
</event>
<event>
 7    1  0.6136531E-013  0.5052894E+02  0.7816164E-02  0.1300438E+00
        -11   -1    0    0    0    0  0.00000000000E+00  0.00000000000E+00  0.45593999997E+02  0.45594000000E+02  0.51100000000E-03 0. -1.
         11   -1    0    0    0    0 -0.00000000000E+00 -0.00000000000E+00 -0.45593999997E+02  0.45594000000E+02  0.51100000000E-03 0.  1.
    9900012    2    1    2    0    0 -0.29655025707E+02 -0.11967429918E+02  0.25110134453E+02  0.50528944665E+02  0.30000257802E+02 0.  0.
         12    1    1    2    0    0  0.29655025707E+02  0.11967429918E+02 -0.25110134453E+02  0.40659055335E+02  0.00000000000E+00 0. -1.
         11    1    3    3    0    0 -0.69425447951E+01  0.16636544216E+01 -0.51944610692E+00  0.71579675038E+01  0.51100000000E-03 0. -1.
        -11    1    3    3    0    0 -0.14746668490E+02 -0.15425598964E+02  0.27680672356E+02  0.34951866292E+02  0.51100000000E-03 0.  1.
        -12    1    3    3    0    0 -0.79658124216E+01  0.17945146243E+01 -0.20510917959E+01  0.84191108693E+01  0.00000000000E+00 0.  1.
</event>
<event>
 7    1  0.6136531E-013  0.5052886E+02  0.7816164E-02  0.1300439E+00
        -11   -1    0    0    0    0  0.00000000000E+00  0.00000000000E+00  0.45593999997E+02  0.45594000000E+02  0.51100000000E-03 0.  1.
         11   -1    0    0    0    0 -0.00000000000E+00 -0.00000000000E+00 -0.45593999997E+02  0.45594000000E+02  0.51100000000E-03 0. -1.
    9900012    2    1    2    0    0  0.15617404072E+01 -0.66585637679E+01  0.40079798831E+02  0.50528858606E+02  0.29999996220E+02 0.  0.
         12    1    1    2    0    0 -0.15617404072E+01  0.66585637679E+01 -0.40079798831E+02  0.40659141394E+02  0.00000000000E+00 0. -1.
         11    1    3    3    0    0  0.54632624313E+01  0.80632825450E+01  0.40804461550E+01  0.10560009606E+02  0.51100000000E-03 0. -1.
        -11    1    3    3    0    0 -0.59607105178E+01 -0.98225683233E+01  0.28903855751E+02  0.31103790699E+02  0.51100000000E-03 0.  1.
         12    1    3    3    0    0  0.20591884938E+01 -0.48992779896E+01  0.70954969250E+01  0.88650583012E+01  0.00000000000E+00 0. -1.
</event>
<event>
 7    1  0.6136531E-013  0.5052886E+02  0.7816164E-02  0.1300439E+00
        -11   -1    0    0    0    0  0.00000000000E+00  0.00000000000E+00  0.45593999997E+02  0.45594000000E+02  0.51100000000E-03 0.  1.
         11   -1    0    0    0    0 -0.00000000000E+00 -0.00000000000E+00 -0.45593999997E+02  0.45594000000E+02  0.51100000000E-03 0. -1.
    9900012    2    1    2    0    0  0.23984322955E+02 -0.32191158207E+02 -0.64534919252E+01  0.50528856227E+02  0.29999988988E+02 0.  0.
         12    1    1    2    0    0 -0.23984322955E+02  0.32191158207E+02  0.64534919252E+01  0.40659143773E+02  0.00000000000E+00 0. -1.
         11    1    3    3    0    0  0.26680068929E+02 -0.21322796413E+02 -0.23146220669E+01  0.34232224591E+02  0.51100000000E-03 0.  1.
        -11    1    3    3    0    0 -0.46446015154E+01 -0.37439224356E+01  0.24015263729E+01  0.64309103260E+01  0.51100000000E-03 0. -1.
         12    1    3    3    0    0  0.19488555418E+01 -0.71244393586E+01 -0.65403962311E+01  0.98657213095E+01  0.00000000000E+00 0. -1.
</event>
<event>
 7    1  0.6136531E-013  0.5052885E+02  0.7816164E-02  0.1300439E+00
        -11   -1    0    0    0    0  0.00000000000E+00  0.00000000000E+00  0.45593999997E+02  0.45594000000E+02  0.51100000000E-03 0. -1.
         11   -1    0    0    0    0 -0.00000000000E+00 -0.00000000000E+00 -0.45593999997E+02  0.45594000000E+02  0.51100000000E-03 0.  1.
    9900012    2    1    2    0    0  0.23480274019E+02 -0.32388370900E+02 -0.72688555846E+01  0.50528854669E+02  0.29999984252E+02 0.  0.
         12    1    1    2    0    0 -0.23480274019E+02  0.32388370900E+02  0.72688555846E+01  0.40659145331E+02  0.00000000000E+00 0. -1.
         11    1    3    3    0    0 -0.38710847644E-01  0.37735745245E+01 -0.31642570981E+01  0.49248234958E+01  0.51100000000E-03 0. -1.
        -11    1    3    3    0    0  0.12843833575E+02 -0.30036571251E+02 -0.12071420798E+00  0.32667632996E+02  0.51100000000E-03 0.  1.
         12    1    3    3    0    0  0.10675151291E+02 -0.61253741736E+01 -0.39838842786E+01  0.12936398177E+02  0.00000000000E+00 0. -1.
</event>
<event>
 7    1  0.6136531E-013  0.5052882E+02  0.7816164E-02  0.1300439E+00
        -11   -1    0    0    0    0  0.00000000000E+00  0.00000000000E+00  0.45593999997E+02  0.45594000000E+02  0.51100000000E-03 0. -1.
         11   -1    0    0    0    0 -0.00000000000E+00 -0.00000000000E+00 -0.45593999997E+02  0.45594000000E+02  0.51100000000E-03 0.  1.
    9900012    2    1    2    0    0 -0.13015456995E+02 -0.33210444742E+02 -0.19514948286E+02  0.50528819396E+02  0.29999877036E+02 0.  0.
         12    1    1    2    0    0  0.13015456995E+02  0.33210444742E+02  0.19514948286E+02  0.40659180604E+02  0.00000000000E+00 0. -1.
         11    1    3    3    0    0 -0.52968835573E+01  0.12822634848E+01 -0.32415343660E+01  0.63410346452E+01  0.51100000000E-03 0. -1.
        -11    1    3    3    0    0 -0.11714016258E+02 -0.31589493697E+02 -0.81215461092E+01  0.34656511659E+02  0.51100000000E-03 0.  1.
        -12    1    3    3    0    0  0.39954428204E+01 -0.29032145302E+01 -0.81518678110E+01  0.95312730916E+01  0.00000000000E+00 0.  1.
</event>
<event>
 7    1  0.6136531E-013  0.5052888E+02  0.7816164E-02  0.1300439E+00
        -11   -1    0    0    0    0  0.00000000000E+00  0.00000000000E+00  0.45593999997E+02  0.45594000000E+02  0.51100000000E-03 0. -1.
         11   -1    0    0    0    0 -0.00000000000E+00 -0.00000000000E+00 -0.45593999997E+02  0.45594000000E+02  0.51100000000E-03 0.  1.
    9900012    2    1    2    0    0 -0.39434956060E+02  0.55753751563E+01 -0.81831309743E+01  0.50528878021E+02  0.30000055231E+02 0.  0.
         12    1    1    2    0    0  0.39434956060E+02 -0.55753751563E+01  0.81831309743E+01  0.40659121979E+02  0.00000000000E+00 0. -1.
         11    1    3    3    0    0 -0.10778145769E+02  0.60733091925E+01  0.54827806718E+01  0.13531976756E+02  0.51100000000E-03 0. -1.
        -11    1    3    3    0    0 -0.19177455168E+02 -0.92102536983E+01 -0.10567269666E+02  0.23754383771E+02  0.51100000000E-03 0.  1.
        -12    1    3    3    0    0 -0.94793551236E+01  0.87123196621E+01 -0.30986419805E+01  0.13242517494E+02  0.00000000000E+00 0.  1.
</event>
<event>
 7    1  0.6136531E-013  0.5052889E+02  0.7816164E-02  0.1300439E+00
        -11   -1    0    0    0    0  0.00000000000E+00  0.00000000000E+00  0.45593999997E+02  0.45594000000E+02  0.51100000000E-03 0. -1.
         11   -1    0    0    0    0 -0.00000000000E+00 -0.00000000000E+00 -0.45593999997E+02  0.45594000000E+02  0.51100000000E-03 0.  1.
    9900012    2    1    2    0    0 -0.84994150085E+01 -0.84742338708E+01 -0.38847275099E+02  0.50528886904E+02  0.30000082232E+02 0.  0.
         12    1    1    2    0    0  0.84994150085E+01  0.84742338708E+01  0.38847275099E+02  0.40659113096E+02  0.00000000000E+00 0. -1.
         11    1    3    3    0    0 -0.68283538662E+01  0.81603724021E+01 -0.21884193239E+02  0.24333844912E+02  0.51100000000E-03 0. -1.
        -11    1    3    3    0    0  0.40879333616E+01 -0.11349310567E+02 -0.11430698951E+02  0.16618631962E+02  0.51100000000E-03 0.  1.
         12    1    3    3    0    0 -0.57589945040E+01 -0.52852957061E+01 -0.55323829095E+01  0.95764100296E+01  0.00000000000E+00 0. -1.
</event>
<event>
 7    1  0.6136531E-013  0.5052886E+02  0.7816164E-02  0.1300439E+00
        -11   -1    0    0    0    0  0.00000000000E+00  0.00000000000E+00  0.45593999997E+02  0.45594000000E+02  0.51100000000E-03 0.  1.
         11   -1    0    0    0    0 -0.00000000000E+00 -0.00000000000E+00 -0.45593999997E+02  0.45594000000E+02  0.51100000000E-03 0. -1.
    9900012    2    1    2    0    0  0.30416452130E+02 -0.12882843982E+02 -0.23707331210E+02  0.50528858564E+02  0.29999996090E+02 0.  0.
         12    1    1    2    0    0 -0.30416452130E+02  0.12882843982E+02  0.23707331210E+02  0.40659141436E+02  0.00000000000E+00 0. -1.
         11    1    3    3    0    0  0.26999578019E+01 -0.11368169371E+01 -0.10279511850E+02  0.10688802039E+02  0.51100000000E-03 0. -1.
        -11    1    3    3    0    0  0.29448259271E+02 -0.97790727766E+01 -0.17022089936E+02  0.35391832172E+02  0.51100000000E-03 0.  1.
        -12    1    3    3    0    0 -0.17317649431E+01 -0.19669542687E+01  0.35942705764E+01  0.44482243525E+01  0.00000000000E+00 0.  1.
</event>
<event>
 7    1  0.6136531E-013  0.5052880E+02  0.7816164E-02  0.1300439E+00
        -11   -1    0    0    0    0  0.00000000000E+00  0.00000000000E+00  0.45593999997E+02  0.45594000000E+02  0.51100000000E-03 0.  1.
         11   -1    0    0    0    0 -0.00000000000E+00 -0.00000000000E+00 -0.45593999997E+02  0.45594000000E+02  0.51100000000E-03 0. -1.
    9900012    2    1    2    0    0  0.28282522849E+02 -0.29033074371E+02  0.32171941355E+01  0.50528796316E+02  0.29999806880E+02 0.  0.
         12    1    1    2    0    0 -0.28282522849E+02  0.29033074371E+02 -0.32171941355E+01  0.40659203684E+02  0.00000000000E+00 0. -1.
         11    1    3    3    0    0  0.39736545213E+01  0.35203079889E+01 -0.53919541099E+01  0.75667475163E+01  0.51100000000E-03 0. -1.
        -11    1    3    3    0    0  0.18574451978E+02 -0.17343707960E+02  0.22668985533E+01  0.25513786497E+02  0.51100000000E-03 0.  1.
         12    1    3    3    0    0  0.57344163495E+01 -0.15209674400E+02  0.63422496921E+01  0.17448262303E+02  0.00000000000E+00 0. -1.
</event>
<event>
 7    1  0.6136531E-013  0.5052886E+02  0.7816164E-02  0.1300439E+00
        -11   -1    0    0    0    0  0.00000000000E+00  0.00000000000E+00  0.45593999997E+02  0.45594000000E+02  0.51100000000E-03 0.  1.
         11   -1    0    0    0    0 -0.00000000000E+00 -0.00000000000E+00 -0.45593999997E+02  0.45594000000E+02  0.51100000000E-03 0. -1.
    9900012    2    1    2    0    0 -0.89327136645E+01  0.29691126105E+02  0.26302266865E+02  0.50528860990E+02  0.30000003465E+02 0.  0.
         12    1    1    2    0    0  0.89327136645E+01 -0.29691126105E+02 -0.26302266865E+02  0.40659139010E+02  0.00000000000E+00 0. -1.
         11    1    3    3    0    0  0.60059074981E+01  0.25269554714E+01  0.12507181469E+02  0.14102695395E+02  0.51100000000E-03 0. -1.
        -11    1    3    3    0    0 -0.48240534228E+01  0.80117605113E+01 -0.20696590918E+01  0.95782716047E+01  0.51100000000E-03 0.  1.
         12    1    3    3    0    0 -0.10114567740E+02  0.19152410122E+02  0.15864744488E+02  0.26847893991E+02  0.00000000000E+00 0. -1.
</event>
<event>
 7    1  0.6136531E-013  0.5052882E+02  0.7816164E-02  0.1300439E+00
        -11   -1    0    0    0    0  0.00000000000E+00  0.00000000000E+00  0.45593999997E+02  0.45594000000E+02  0.51100000000E-03 0. -1.
         11   -1    0    0    0    0 -0.00000000000E+00 -0.00000000000E+00 -0.45593999997E+02  0.45594000000E+02  0.51100000000E-03 0.  1.
    9900012    2    1    2    0    0 -0.34879260368E+02 -0.19587516007E+02 -0.72756716050E+01  0.50528819187E+02  0.29999876400E+02 0.  0.
         12    1    1    2    0    0  0.34879260368E+02  0.19587516007E+02  0.72756716050E+01  0.40659180813E+02  0.00000000000E+00 0. -1.
         11    1    3    3    0    0 -0.11414622583E+02  0.34090496847E+01  0.70564244217E+01  0.13845878605E+02  0.51100000000E-03 0. -1.
        -11    1    3    3    0    0 -0.19820661283E+02 -0.15670040169E+02 -0.85919255911E+01  0.26687636805E+02  0.51100000000E-03 0.  1.
         12    1    3    3    0    0 -0.36439765021E+01 -0.73265255220E+01 -0.57401704357E+01  0.99953037774E+01  0.00000000000E+00 0. -1.
</event>
<event>
 7    1  0.6136531E-013  0.5052887E+02  0.7816164E-02  0.1300439E+00
        -11   -1    0    0    0    0  0.00000000000E+00  0.00000000000E+00  0.45593999997E+02  0.45594000000E+02  0.51100000000E-03 0.  1.
         11   -1    0    0    0    0 -0.00000000000E+00 -0.00000000000E+00 -0.45593999997E+02  0.45594000000E+02  0.51100000000E-03 0. -1.
    9900012    2    1    2    0    0  0.23770594872E+02  0.29449412920E+02  0.14861229461E+02  0.50528865196E+02  0.30000016251E+02 0.  0.
         12    1    1    2    0    0 -0.23770594872E+02 -0.29449412920E+02 -0.14861229461E+02  0.40659134804E+02  0.00000000000E+00 0. -1.
         11    1    3    3    0    0  0.22148438617E+01  0.10680169677E+02 -0.28004709224E+01  0.11261180903E+02  0.51100000000E-03 0.  1.
        -11    1    3    3    0    0  0.14302519965E+02  0.11966822055E+02  0.21631799601E+02  0.28560491272E+02  0.51100000000E-03 0. -1.
         12    1    3    3    0    0  0.72532310447E+01  0.68024211878E+01 -0.39700992177E+01  0.10707193022E+02  0.00000000000E+00 0. -1.
</event>
<event>
 7    1  0.6136531E-013  0.5052885E+02  0.7816164E-02  0.1300439E+00
        -11   -1    0    0    0    0  0.00000000000E+00  0.00000000000E+00  0.45593999997E+02  0.45594000000E+02  0.51100000000E-03 0.  1.
         11   -1    0    0    0    0 -0.00000000000E+00 -0.00000000000E+00 -0.45593999997E+02  0.45594000000E+02  0.51100000000E-03 0. -1.
    9900012    2    1    2    0    0 -0.36857388669E+02  0.16448721662E+02  0.49130989702E+01  0.50528854838E+02  0.29999984766E+02 0.  0.
         12    1    1    2    0    0  0.36857388669E+02 -0.16448721662E+02 -0.49130989702E+01  0.40659145162E+02  0.00000000000E+00 0. -1.
         11    1    3    3    0    0 -0.43052506989E+01  0.20344184064E+00  0.52081754999E+01  0.67603006192E+01  0.51100000000E-03 0. -1.
        -11    1    3    3    0    0 -0.35845788077E+02  0.10976869668E+02  0.58441403015E+00  0.37493382491E+02  0.51100000000E-03 0.  1.
        -12    1    3    3    0    0  0.32936501072E+01  0.52684101534E+01 -0.87949055981E+00  0.62751717281E+01  0.00000000000E+00 0.  1.
</event>
<event>
 7    1  0.6136531E-013  0.5052885E+02  0.7816164E-02  0.1300439E+00
        -11   -1    0    0    0    0  0.00000000000E+00  0.00000000000E+00  0.45593999997E+02  0.45594000000E+02  0.51100000000E-03 0.  1.
         11   -1    0    0    0    0 -0.00000000000E+00 -0.00000000000E+00 -0.45593999997E+02  0.45594000000E+02  0.51100000000E-03 0. -1.
    9900012    2    1    2    0    0  0.14189004241E+02 -0.36912874928E+02 -0.94487104619E+01  0.50528852122E+02  0.29999976510E+02 0.  0.
         12    1    1    2    0    0 -0.14189004241E+02  0.36912874928E+02  0.94487104619E+01  0.40659147878E+02  0.00000000000E+00 0. -1.
         11    1    3    3    0    0 -0.52036112174E+01 -0.19777819698E+02 -0.10457789161E+02  0.22969655550E+02  0.51100000000E-03 0. -1.
        -11    1    3    3    0    0  0.19690973522E+02 -0.15949719566E+02 -0.82669437236E+00  0.25353725887E+02  0.51100000000E-03 0.  1.
        -12    1    3    3    0    0 -0.29835806362E+00 -0.11853356643E+01  0.18357730719E+01  0.22054706851E+01  0.00000000000E+00 0.  1.
</event>
<event>
 7    1  0.6136531E-013  0.5052887E+02  0.7816164E-02  0.1300439E+00
        -11   -1    0    0    0    0  0.00000000000E+00  0.00000000000E+00  0.45593999997E+02  0.45594000000E+02  0.51100000000E-03 0.  1.
         11   -1    0    0    0    0 -0.00000000000E+00 -0.00000000000E+00 -0.45593999997E+02  0.45594000000E+02  0.51100000000E-03 0. -1.
    9900012    2    1    2    0    0  0.24593809241E+02  0.13135022208E+02  0.29593596416E+02  0.50528865599E+02  0.30000017475E+02 0.  0.
         12    1    1    2    0    0 -0.24593809241E+02 -0.13135022208E+02 -0.29593596416E+02  0.40659134401E+02  0.00000000000E+00 0. -1.
         11    1    3    3    0    0  0.17023987586E+02  0.14942135380E+02  0.39428434138E+01  0.22991945926E+02  0.51100000000E-03 0. -1.
        -11    1    3    3    0    0  0.54574686410E+01  0.12073853628E+01  0.99697579543E+01  0.11429690167E+02  0.51100000000E-03 0.  1.
         12    1    3    3    0    0  0.21123530148E+01 -0.30144985348E+01  0.15680995048E+02  0.16107229506E+02  0.00000000000E+00 0. -1.
</event>
<event>
 7    1  0.6136531E-013  0.5052886E+02  0.7816164E-02  0.1300439E+00
        -11   -1    0    0    0    0  0.00000000000E+00  0.00000000000E+00  0.45593999997E+02  0.45594000000E+02  0.51100000000E-03 0. -1.
         11   -1    0    0    0    0 -0.00000000000E+00 -0.00000000000E+00 -0.45593999997E+02  0.45594000000E+02  0.51100000000E-03 0.  1.
    9900012    2    1    2    0    0 -0.30918512787E+02 -0.24837079883E+02 -0.89627204579E+01  0.50528864149E+02  0.30000013068E+02 0.  0.
         12    1    1    2    0    0  0.30918512787E+02  0.24837079883E+02  0.89627204579E+01  0.40659135851E+02  0.00000000000E+00 0. -1.
         11    1    3    3    0    0 -0.55457275876E+01 -0.10925534291E+02  0.67418507314E+01  0.13984811245E+02  0.51100000000E-03 0. -1.
        -11    1    3    3    0    0 -0.23332998586E+02 -0.74254829537E+01 -0.16747118673E+02  0.29665343487E+02  0.51100000000E-03 0.  1.
        -12    1    3    3    0    0 -0.20397866135E+01 -0.64860626389E+01  0.10425474837E+01  0.68787094168E+01  0.00000000000E+00 0.  1.
</event>
<event>
 7    1  0.6136531E-013  0.5052886E+02  0.7816164E-02  0.1300439E+00
        -11   -1    0    0    0    0  0.00000000000E+00  0.00000000000E+00  0.45593999997E+02  0.45594000000E+02  0.51100000000E-03 0. -1.
         11   -1    0    0    0    0 -0.00000000000E+00 -0.00000000000E+00 -0.45593999997E+02  0.45594000000E+02  0.51100000000E-03 0.  1.
    9900012    2    1    2    0    0 -0.64746845391E+00  0.11571021958E+02 -0.38972529291E+02  0.50528858298E+02  0.29999995284E+02 0.  0.
         12    1    1    2    0    0  0.64746845391E+00 -0.11571021958E+02  0.38972529291E+02  0.40659141702E+02  0.00000000000E+00 0. -1.
         11    1    3    3    0    0 -0.12080536951E+02  0.47331900509E+01 -0.25056121249E+02  0.28216159792E+02  0.51100000000E-03 0.  1.
        -11    1    3    3    0    0  0.85666771007E+01  0.96091816365E+01 -0.12841723291E+02  0.18183349131E+02  0.51100000000E-03 0. -1.
         12    1    3    3    0    0  0.28663913960E+01 -0.27713497290E+01 -0.10746847514E+01  0.41293493762E+01  0.00000000000E+00 0. -1.
</event>
<event>
 7    1  0.6136531E-013  0.5052886E+02  0.7816164E-02  0.1300439E+00
        -11   -1    0    0    0    0  0.00000000000E+00  0.00000000000E+00  0.45593999997E+02  0.45594000000E+02  0.51100000000E-03 0.  1.
         11   -1    0    0    0    0 -0.00000000000E+00 -0.00000000000E+00 -0.45593999997E+02  0.45594000000E+02  0.51100000000E-03 0. -1.
    9900012    2    1    2    0    0  0.10804297702E+02 -0.16768784280E+02  0.35429381628E+02  0.50528855179E+02  0.29999985801E+02 0.  0.
         12    1    1    2    0    0 -0.10804297702E+02  0.16768784280E+02 -0.35429381628E+02  0.40659144821E+02  0.00000000000E+00 0. -1.
         11    1    3    3    0    0  0.96438170187E+01 -0.12982075709E+02  0.28601187480E+01  0.16423086675E+02  0.51100000000E-03 0. -1.
        -11    1    3    3    0    0  0.17717364594E+01 -0.67935985076E+01  0.23877915336E+02  0.24888689637E+02  0.51100000000E-03 0.  1.
         12    1    3    3    0    0 -0.61125577566E+00  0.30068899371E+01  0.86913475438E+01  0.92170788672E+01  0.00000000000E+00 0. -1.
</event>
<event>
 7    1  0.6136531E-013  0.5052887E+02  0.7816164E-02  0.1300439E+00
        -11   -1    0    0    0    0  0.00000000000E+00  0.00000000000E+00  0.45593999997E+02  0.45594000000E+02  0.51100000000E-03 0. -1.
         11   -1    0    0    0    0 -0.00000000000E+00 -0.00000000000E+00 -0.45593999997E+02  0.45594000000E+02  0.51100000000E-03 0.  1.
    9900012    2    1    2    0    0 -0.32251318623E+02  0.21977555003E+02 -0.11401944645E+02  0.50528870417E+02  0.30000032118E+02 0.  0.
         12    1    1    2    0    0  0.32251318623E+02 -0.21977555003E+02  0.11401944645E+02  0.40659129583E+02  0.00000000000E+00 0. -1.
         11    1    3    3    0    0 -0.10086390122E+02  0.11862196330E+02  0.69077035038E+01  0.17034181384E+02  0.51100000000E-03 0. -1.
        -11    1    3    3    0    0 -0.23672022926E+02  0.88128554228E+01 -0.18746107955E+02  0.31455486864E+02  0.51100000000E-03 0.  1.
        -12    1    3    3    0    0  0.15070944256E+01  0.13025032495E+01  0.43645980612E+00  0.20392021687E+01  0.00000000000E+00 0.  1.
</event>
<event>
 7    1  0.6136531E-013  0.5052885E+02  0.7816164E-02  0.1300439E+00
        -11   -1    0    0    0    0  0.00000000000E+00  0.00000000000E+00  0.45593999997E+02  0.45594000000E+02  0.51100000000E-03 0.  1.
         11   -1    0    0    0    0 -0.00000000000E+00 -0.00000000000E+00 -0.45593999997E+02  0.45594000000E+02  0.51100000000E-03 0. -1.
    9900012    2    1    2    0    0  0.32867042879E+01  0.28051632004E+02  0.29248417817E+02  0.50528850624E+02  0.29999971958E+02 0.  0.
         12    1    1    2    0    0 -0.32867042879E+01 -0.28051632004E+02 -0.29248417817E+02  0.40659149376E+02  0.00000000000E+00 0. -1.
         11    1    3    3    0    0  0.14824351756E+00  0.15719750600E+01 -0.50849096033E+01  0.53244143024E+01  0.51100000000E-03 0. -1.
        -11    1    3    3    0    0 -0.45588753805E+01  0.11061536982E+02  0.16754528724E+02  0.20587743397E+02  0.51100000000E-03 0.  1.
         12    1    3    3    0    0  0.76973361509E+01  0.15418119962E+02  0.17578798696E+02  0.24616692925E+02  0.00000000000E+00 0. -1.
</event>
<event>
 7    1  0.6136531E-013  0.5052886E+02  0.7816164E-02  0.1300439E+00
        -11   -1    0    0    0    0  0.00000000000E+00  0.00000000000E+00  0.45593999997E+02  0.45594000000E+02  0.51100000000E-03 0.  1.
         11   -1    0    0    0    0 -0.00000000000E+00 -0.00000000000E+00 -0.45593999997E+02  0.45594000000E+02  0.51100000000E-03 0. -1.
    9900012    2    1    2    0    0 -0.16264428476E+02 -0.61875830100E+01  0.36747082652E+02  0.50528857110E+02  0.29999991671E+02 0.  0.
         12    1    1    2    0    0  0.16264428476E+02  0.61875830100E+01 -0.36747082652E+02  0.40659142890E+02  0.00000000000E+00 0. -1.
         11    1    3    3    0    0 -0.11560719377E+01  0.70348322768E+01  0.24084024574E+00  0.71332581456E+01  0.51100000000E-03 0. -1.
        -11    1    3    3    0    0 -0.13980692346E+02 -0.90718019361E+01  0.18574945985E+02  0.24955680064E+02  0.51100000000E-03 0.  1.
         12    1    3    3    0    0 -0.11276641929E+01 -0.41506133507E+01  0.17931296421E+02  0.18439918900E+02  0.00000000000E+00 0. -1.
</event>
<event>
 7    1  0.6136531E-013  0.5052886E+02  0.7816164E-02  0.1300439E+00
        -11   -1    0    0    0    0  0.00000000000E+00  0.00000000000E+00  0.45593999997E+02  0.45594000000E+02  0.51100000000E-03 0.  1.
         11   -1    0    0    0    0 -0.00000000000E+00 -0.00000000000E+00 -0.45593999997E+02  0.45594000000E+02  0.51100000000E-03 0. -1.
    9900012    2    1    2    0    0  0.51160016285E+01 -0.39574036834E+02 -0.78030563429E+01  0.50528861393E+02  0.30000004689E+02 0.  0.
         12    1    1    2    0    0 -0.51160016285E+01  0.39574036834E+02  0.78030563429E+01  0.40659138607E+02  0.00000000000E+00 0. -1.
         11    1    3    3    0    0  0.79178815145E+00 -0.23290746546E+00 -0.95058193309E+01  0.95415814086E+01  0.51100000000E-03 0. -1.
        -11    1    3    3    0    0 -0.61626878088E+00 -0.20211007174E+02 -0.35813241830E+01  0.20535103637E+02  0.51100000000E-03 0.  1.
         12    1    3    3    0    0  0.49404822580E+01 -0.19130122194E+02  0.52840871710E+01  0.20452176347E+02  0.00000000000E+00 0. -1.
</event>
<event>
 7    1  0.6136531E-013  0.5052886E+02  0.7816164E-02  0.1300439E+00
        -11   -1    0    0    0    0  0.00000000000E+00  0.00000000000E+00  0.45593999997E+02  0.45594000000E+02  0.51100000000E-03 0.  1.
         11   -1    0    0    0    0 -0.00000000000E+00 -0.00000000000E+00 -0.45593999997E+02  0.45594000000E+02  0.51100000000E-03 0. -1.
    9900012    2    1    2    0    0  0.22995481740E+02 -0.33530539987E+02 -0.27635052521E+00  0.50528860045E+02  0.30000000591E+02 0.  0.
         12    1    1    2    0    0 -0.22995481740E+02  0.33530539987E+02  0.27635052521E+00  0.40659139955E+02  0.00000000000E+00 0. -1.
         11    1    3    3    0    0 -0.11556740664E+01 -0.83167231713E+00 -0.33158630794E+01  0.36086298804E+01  0.51100000000E-03 0. -1.
        -11    1    3    3    0    0  0.21806464718E+02 -0.24534643344E+02  0.11644417008E+02  0.34829055043E+02  0.51100000000E-03 0.  1.
        -12    1    3    3    0    0  0.23446910887E+01 -0.81642243267E+01 -0.86049044533E+01  0.12091175121E+02  0.00000000000E+00 0.  1.
</event>
<event>
 7    1  0.6136531E-013  0.5052892E+02  0.7816164E-02  0.1300439E+00
        -11   -1    0    0    0    0  0.00000000000E+00  0.00000000000E+00  0.45593999997E+02  0.45594000000E+02  0.51100000000E-03 0.  1.
         11   -1    0    0    0    0 -0.00000000000E+00 -0.00000000000E+00 -0.45593999997E+02  0.45594000000E+02  0.51100000000E-03 0. -1.
    9900012    2    1    2    0    0  0.37095222282E+02 -0.77139309113E+01  0.14751295231E+02  0.50528917900E+02  0.30000176447E+02 0.  0.
         12    1    1    2    0    0 -0.37095222282E+02  0.77139309113E+01 -0.14751295231E+02  0.40659082100E+02  0.00000000000E+00 0. -1.
         11    1    3    3    0    0  0.44956453056E+01 -0.13095175905E+02 -0.25578707272E+00  0.13847739382E+02  0.51100000000E-03 0. -1.
        -11    1    3    3    0    0  0.16624338557E+02  0.54480507051E+01  0.79971299264E+01  0.19235487420E+02  0.51100000000E-03 0.  1.
         12    1    3    3    0    0  0.15975238419E+02 -0.66805711041E-01  0.70099523769E+01  0.17445691098E+02  0.00000000000E+00 0. -1.
</event>
<event>
 7    1  0.6136531E-013  0.5052886E+02  0.7816164E-02  0.1300439E+00
        -11   -1    0    0    0    0  0.00000000000E+00  0.00000000000E+00  0.45593999997E+02  0.45594000000E+02  0.51100000000E-03 0.  1.
         11   -1    0    0    0    0 -0.00000000000E+00 -0.00000000000E+00 -0.45593999997E+02  0.45594000000E+02  0.51100000000E-03 0. -1.
    9900012    2    1    2    0    0  0.25387427365E+02  0.24135498015E+02 -0.20642721495E+02  0.50528859781E+02  0.29999999790E+02 0.  0.
         12    1    1    2    0    0 -0.25387427365E+02 -0.24135498015E+02  0.20642721495E+02  0.40659140219E+02  0.00000000000E+00 0. -1.
         11    1    3    3    0    0  0.95244586907E+00  0.13055006701E+02 -0.13911222853E+02  0.19101373632E+02  0.51100000000E-03 0. -1.
        -11    1    3    3    0    0  0.14774591936E+02  0.13904389944E+02 -0.22589614301E+01  0.20413807425E+02  0.51100000000E-03 0.  1.
         12    1    3    3    0    0  0.96603895601E+01 -0.28238986301E+01 -0.44725372114E+01  0.11013678724E+02  0.00000000000E+00 0. -1.
</event>
<event>
 7    1  0.6136531E-013  0.5052885E+02  0.7816164E-02  0.1300439E+00
        -11   -1    0    0    0    0  0.00000000000E+00  0.00000000000E+00  0.45593999997E+02  0.45594000000E+02  0.51100000000E-03 0.  1.
         11   -1    0    0    0    0 -0.00000000000E+00 -0.00000000000E+00 -0.45593999997E+02  0.45594000000E+02  0.51100000000E-03 0. -1.
    9900012    2    1    2    0    0  0.85829455660E+01  0.36487309998E+02  0.15753586187E+02  0.50528853142E+02  0.29999979609E+02 0.  0.
         12    1    1    2    0    0 -0.85829455660E+01 -0.36487309998E+02 -0.15753586187E+02  0.40659146858E+02  0.00000000000E+00 0. -1.
         11    1    3    3    0    0 -0.17844333438E+01  0.46377718644E+00 -0.35135543763E+01  0.39679158576E+01  0.51100000000E-03 0. -1.
        -11    1    3    3    0    0  0.15833934342E+02  0.27214181800E+02  0.17568100592E+02  0.36055004181E+02  0.51100000000E-03 0.  1.
         12    1    3    3    0    0 -0.54665554326E+01  0.88093510112E+01  0.16990399710E+01  0.10505933103E+02  0.00000000000E+00 0. -1.
</event>
<event>
 7    1  0.6136531E-013  0.5052883E+02  0.7816164E-02  0.1300439E+00
        -11   -1    0    0    0    0  0.00000000000E+00  0.00000000000E+00  0.45593999997E+02  0.45594000000E+02  0.51100000000E-03 0.  1.
         11   -1    0    0    0    0 -0.00000000000E+00 -0.00000000000E+00 -0.45593999997E+02  0.45594000000E+02  0.51100000000E-03 0. -1.
    9900012    2    1    2    0    0  0.35635541539E+02 -0.15455569774E+02 -0.12016707292E+02  0.50528834835E+02  0.29999923964E+02 0.  0.
         12    1    1    2    0    0 -0.35635541539E+02  0.15455569774E+02  0.12016707292E+02  0.40659165165E+02  0.00000000000E+00 0. -1.
         11    1    3    3    0    0  0.19195488176E+02 -0.97994750079E+01 -0.18947336210E+02  0.28696655318E+02  0.51100000000E-03 0. -1.
        -11    1    3    3    0    0  0.14001213065E+02 -0.88023177567E+01  0.43945492526E+01  0.17112183630E+02  0.51100000000E-03 0.  1.
         12    1    3    3    0    0  0.24388402977E+01  0.31462229905E+01  0.25360796652E+01  0.47199958868E+01  0.00000000000E+00 0. -1.
</event>
<event>
 7    1  0.6136531E-013  0.5052887E+02  0.7816164E-02  0.1300439E+00
        -11   -1    0    0    0    0  0.00000000000E+00  0.00000000000E+00  0.45593999997E+02  0.45594000000E+02  0.51100000000E-03 0. -1.
         11   -1    0    0    0    0 -0.00000000000E+00 -0.00000000000E+00 -0.45593999997E+02  0.45594000000E+02  0.51100000000E-03 0.  1.
    9900012    2    1    2    0    0 -0.24962697164E+02  0.32931500480E+01 -0.31924658417E+02  0.50528869390E+02  0.30000028996E+02 0.  0.
         12    1    1    2    0    0  0.24962697164E+02 -0.32931500480E+01  0.31924658417E+02  0.40659130610E+02  0.00000000000E+00 0. -1.
         11    1    3    3    0    0 -0.22434426828E+02  0.29804887964E+01 -0.72336675369E+01  0.23759477412E+02  0.51100000000E-03 0. -1.
        -11    1    3    3    0    0 -0.50741373166E+01  0.59528730565E+00 -0.23302071469E+02  0.23855560599E+02  0.51100000000E-03 0.  1.
        -12    1    3    3    0    0  0.25458669811E+01 -0.28262605413E+00 -0.13889194110E+01  0.29138313785E+01  0.00000000000E+00 0.  1.
</event>
<event>
 7    1  0.6136531E-013  0.5052883E+02  0.7816164E-02  0.1300439E+00
        -11   -1    0    0    0    0  0.00000000000E+00  0.00000000000E+00  0.45593999997E+02  0.45594000000E+02  0.51100000000E-03 0.  1.
         11   -1    0    0    0    0 -0.00000000000E+00 -0.00000000000E+00 -0.45593999997E+02  0.45594000000E+02  0.51100000000E-03 0. -1.
    9900012    2    1    2    0    0 -0.74488086542E+01  0.18824928268E+02  0.35260537334E+02  0.50528829229E+02  0.29999906925E+02 0.  0.
         12    1    1    2    0    0  0.74488086542E+01 -0.18824928268E+02 -0.35260537334E+02  0.40659170771E+02  0.00000000000E+00 0. -1.
         11    1    3    3    0    0 -0.16705459967E+02  0.72933795458E+01  0.26193828640E+02  0.31912104866E+02  0.51100000000E-03 0. -1.
        -11    1    3    3    0    0  0.33833689461E+01  0.67794988810E+01  0.79454299568E+01  0.10979009425E+02  0.51100000000E-03 0.  1.
         12    1    3    3    0    0  0.58732823670E+01  0.47520498414E+01  0.11212787377E+01  0.76377149374E+01  0.00000000000E+00 0. -1.
</event>
<event>
 7    1  0.6136531E-013  0.5052885E+02  0.7816164E-02  0.1300439E+00
        -11   -1    0    0    0    0  0.00000000000E+00  0.00000000000E+00  0.45593999997E+02  0.45594000000E+02  0.51100000000E-03 0. -1.
         11   -1    0    0    0    0 -0.00000000000E+00 -0.00000000000E+00 -0.45593999997E+02  0.45594000000E+02  0.51100000000E-03 0.  1.
    9900012    2    1    2    0    0 -0.32661685021E+02  0.13822055681E+02 -0.19882953907E+02  0.50528846692E+02  0.29999960004E+02 0.  0.
         12    1    1    2    0    0  0.32661685021E+02 -0.13822055681E+02  0.19882953907E+02  0.40659153308E+02  0.00000000000E+00 0. -1.
         11    1    3    3    0    0 -0.66133107012E+01 -0.67454567302E+01  0.81670506835E+00  0.94817758020E+01  0.51100000000E-03 0. -1.
        -11    1    3    3    0    0 -0.13127148881E+02  0.17408412597E+02 -0.10052635163E+02  0.24008963761E+02  0.51100000000E-03 0.  1.
         12    1    3    3    0    0 -0.12921225439E+02  0.31590998141E+01 -0.10647023812E+02  0.17038107129E+02  0.00000000000E+00 0. -1.
</event>
<event>
 7    1  0.6136531E-013  0.5052885E+02  0.7816164E-02  0.1300439E+00
        -11   -1    0    0    0    0  0.00000000000E+00  0.00000000000E+00  0.45593999997E+02  0.45594000000E+02  0.51100000000E-03 0.  1.
         11   -1    0    0    0    0 -0.00000000000E+00 -0.00000000000E+00 -0.45593999997E+02  0.45594000000E+02  0.51100000000E-03 0. -1.
    9900012    2    1    2    0    0  0.33850575788E+02  0.10828642753E+02  0.19749568214E+02  0.50528850603E+02  0.29999971892E+02 0.  0.
         12    1    1    2    0    0 -0.33850575788E+02 -0.10828642753E+02 -0.19749568214E+02  0.40659149397E+02  0.00000000000E+00 0. -1.
         11    1    3    3    0    0  0.15827783359E+00 -0.68204808930E+01  0.50565202697E+01  0.84919025538E+01  0.51100000000E-03 0. -1.
        -11    1    3    3    0    0  0.16163827589E+02  0.33815607326E+01  0.37886280944E+01  0.16942785438E+02  0.51100000000E-03 0.  1.
         12    1    3    3    0    0  0.17528470366E+02  0.14267562914E+02  0.10904419850E+02  0.25094162611E+02  0.00000000000E+00 0. -1.
</event>
<event>
 7    1  0.6136531E-013  0.5052886E+02  0.7816164E-02  0.1300439E+00
        -11   -1    0    0    0    0  0.00000000000E+00  0.00000000000E+00  0.45593999997E+02  0.45594000000E+02  0.51100000000E-03 0. -1.
         11   -1    0    0    0    0 -0.00000000000E+00 -0.00000000000E+00 -0.45593999997E+02  0.45594000000E+02  0.51100000000E-03 0.  1.
    9900012    2    1    2    0    0 -0.86194592661E+00  0.72687282158E+01 -0.39994851006E+02  0.50528862434E+02  0.30000007853E+02 0.  0.
         12    1    1    2    0    0  0.86194592661E+00 -0.72687282158E+01  0.39994851006E+02  0.40659137566E+02  0.00000000000E+00 0. -1.
         11    1    3    3    0    0  0.77548945164E+01  0.41513322503E+01 -0.27569029364E+02  0.28938267549E+02  0.51100000000E-03 0. -1.
        -11    1    3    3    0    0 -0.11125253273E+02  0.51618514389E+01 -0.13444420192E+02  0.18198033004E+02  0.51100000000E-03 0.  1.
         12    1    3    3    0    0  0.25084128295E+01 -0.20444554734E+01  0.10185985502E+01  0.33925618804E+01  0.00000000000E+00 0. -1.
</event>
<event>
 7    1  0.6136531E-013  0.5052885E+02  0.7816164E-02  0.1300439E+00
        -11   -1    0    0    0    0  0.00000000000E+00  0.00000000000E+00  0.45593999997E+02  0.45594000000E+02  0.51100000000E-03 0.  1.
         11   -1    0    0    0    0 -0.00000000000E+00 -0.00000000000E+00 -0.45593999997E+02  0.45594000000E+02  0.51100000000E-03 0. -1.
    9900012    2    1    2    0    0  0.29224167103E+02 -0.11208128706E+02  0.25951726268E+02  0.50528853572E+02  0.29999980918E+02 0.  0.
         12    1    1    2    0    0 -0.29224167103E+02  0.11208128706E+02 -0.25951726268E+02  0.40659146428E+02  0.00000000000E+00 0. -1.
         11    1    3    3    0    0  0.13050388006E+02 -0.47843119621E+01 -0.25346758713E+01  0.14128936623E+02  0.51100000000E-03 0. -1.
        -11    1    3    3    0    0  0.18062757409E+02 -0.25234321033E+01  0.24215438822E+02  0.30315316136E+02  0.51100000000E-03 0.  1.
        -12    1    3    3    0    0 -0.18889783120E+01 -0.39003846404E+01  0.42709633166E+01  0.60846008134E+01  0.00000000000E+00 0.  1.
</event>
<event>
 7    1  0.6136531E-013  0.5052885E+02  0.7816164E-02  0.1300439E+00
        -11   -1    0    0    0    0  0.00000000000E+00  0.00000000000E+00  0.45593999997E+02  0.45594000000E+02  0.51100000000E-03 0.  1.
         11   -1    0    0    0    0 -0.00000000000E+00 -0.00000000000E+00 -0.45593999997E+02  0.45594000000E+02  0.51100000000E-03 0. -1.
    9900012    2    1    2    0    0  0.20823391445E+02 -0.34844638650E+02 -0.23246626780E+01  0.50528849364E+02  0.29999968126E+02 0.  0.
         12    1    1    2    0    0 -0.20823391445E+02  0.34844638650E+02  0.23246626780E+01  0.40659150636E+02  0.00000000000E+00 0. -1.
         11    1    3    3    0    0 -0.31925956299E+01  0.21693483346E+01  0.37025525695E+01  0.53486105527E+01  0.51100000000E-03 0. -1.
        -11    1    3    3    0    0  0.13185975153E+02 -0.26890085908E+02 -0.42458002323E+01  0.30248528572E+02  0.51100000000E-03 0.  1.
         12    1    3    3    0    0  0.10830011921E+02 -0.10123901076E+02 -0.17814150152E+01  0.14931710239E+02  0.00000000000E+00 0. -1.
</event>
<event>
 7    1  0.6136531E-013  0.5052884E+02  0.7816164E-02  0.1300439E+00
        -11   -1    0    0    0    0  0.00000000000E+00  0.00000000000E+00  0.45593999997E+02  0.45594000000E+02  0.51100000000E-03 0.  1.
         11   -1    0    0    0    0 -0.00000000000E+00 -0.00000000000E+00 -0.45593999997E+02  0.45594000000E+02  0.51100000000E-03 0. -1.
    9900012    2    1    2    0    0  0.13862922225E+02 -0.23897250180E+02  0.29831327280E+02  0.50528840317E+02  0.29999940629E+02 0.  0.
         12    1    1    2    0    0 -0.13862922225E+02  0.23897250180E+02 -0.29831327280E+02  0.40659159683E+02  0.00000000000E+00 0. -1.
         11    1    3    3    0    0  0.47521454808E+01  0.39488329638E+01  0.33127085653E+00  0.61875608352E+01  0.51100000000E-03 0. -1.
        -11    1    3    3    0    0  0.12644630699E+02 -0.20027311168E+02  0.25722993346E+02  0.34966444845E+02  0.51100000000E-03 0.  1.
         12    1    3    3    0    0 -0.35338539549E+01 -0.78187719761E+01  0.37770630773E+01  0.93748346374E+01  0.00000000000E+00 0. -1.
</event>
<event>
 7    1  0.6136531E-013  0.5052885E+02  0.7816164E-02  0.1300439E+00
        -11   -1    0    0    0    0  0.00000000000E+00  0.00000000000E+00  0.45593999997E+02  0.45594000000E+02  0.51100000000E-03 0.  1.
         11   -1    0    0    0    0 -0.00000000000E+00 -0.00000000000E+00 -0.45593999997E+02  0.45594000000E+02  0.51100000000E-03 0. -1.
    9900012    2    1    2    0    0 -0.35184416527E+02 -0.10745503131E+02  0.17313501970E+02  0.50528851530E+02  0.29999974710E+02 0.  0.
         12    1    1    2    0    0  0.35184416527E+02  0.10745503131E+02 -0.17313501970E+02  0.40659148470E+02  0.00000000000E+00 0. -1.
         11    1    3    3    0    0 -0.40165561690E+01  0.43381278556E+01 -0.32847612196E+01  0.67632635082E+01  0.51100000000E-03 0. -1.
        -11    1    3    3    0    0 -0.27146926528E+02 -0.15619124426E+02  0.23173681131E+02  0.38960648932E+02  0.51100000000E-03 0.  1.
        -12    1    3    3    0    0 -0.40209338296E+01  0.53549343937E+00 -0.25754179413E+01  0.48049390899E+01  0.00000000000E+00 0.  1.
</event>
<event>
 7    1  0.6136531E-013  0.5052886E+02  0.7816164E-02  0.1300439E+00
        -11   -1    0    0    0    0  0.00000000000E+00  0.00000000000E+00  0.45593999997E+02  0.45594000000E+02  0.51100000000E-03 0.  1.
         11   -1    0    0    0    0 -0.00000000000E+00 -0.00000000000E+00 -0.45593999997E+02  0.45594000000E+02  0.51100000000E-03 0. -1.
    9900012    2    1    2    0    0  0.39532060609E+02  0.69345958234E+01 -0.65033183105E+01  0.50528860999E+02  0.30000003494E+02 0.  0.
         12    1    1    2    0    0 -0.39532060609E+02 -0.69345958234E+01  0.65033183105E+01  0.40659139001E+02  0.00000000000E+00 0. -1.
         11    1    3    3    0    0  0.11199402712E+02  0.40332492141E+01 -0.11876152393E+02  0.16814776723E+02  0.51100000000E-03 0. -1.
        -11    1    3    3    0    0  0.12351728314E+02  0.63413226414E+01  0.95378859663E+01  0.16844845923E+02  0.51100000000E-03 0.  1.
        -12    1    3    3    0    0  0.15980929583E+02 -0.34399760321E+01 -0.41650518837E+01  0.16869238354E+02  0.00000000000E+00 0.  1.
</event>
<event>
 7    1  0.6136531E-013  0.5052885E+02  0.7816164E-02  0.1300439E+00
        -11   -1    0    0    0    0  0.00000000000E+00  0.00000000000E+00  0.45593999997E+02  0.45594000000E+02  0.51100000000E-03 0. -1.
         11   -1    0    0    0    0 -0.00000000000E+00 -0.00000000000E+00 -0.45593999997E+02  0.45594000000E+02  0.51100000000E-03 0.  1.
    9900012    2    1    2    0    0 -0.73795631747E+01  0.25614857902E+02 -0.30701585415E+02  0.50528852874E+02  0.29999978795E+02 0.  0.
         12    1    1    2    0    0  0.73795631747E+01 -0.25614857902E+02  0.30701585415E+02  0.40659147126E+02  0.00000000000E+00 0. -1.
         11    1    3    3    0    0 -0.73879225840E+01  0.12781468939E+02  0.16931023389E+00  0.14764010789E+02  0.51100000000E-03 0. -1.
        -11    1    3    3    0    0  0.24219412378E+01  0.12316080251E+02 -0.14368786903E+02  0.19079142261E+02  0.51100000000E-03 0.  1.
         12    1    3    3    0    0 -0.24135818285E+01  0.51730871269E+00 -0.16502108747E+02  0.16685699824E+02  0.00000000000E+00 0. -1.
</event>
<event>
 7    1  0.6136531E-013  0.5052886E+02  0.7816164E-02  0.1300439E+00
        -11   -1    0    0    0    0  0.00000000000E+00  0.00000000000E+00  0.45593999997E+02  0.45594000000E+02  0.51100000000E-03 0.  1.
         11   -1    0    0    0    0 -0.00000000000E+00 -0.00000000000E+00 -0.45593999997E+02  0.45594000000E+02  0.51100000000E-03 0. -1.
    9900012    2    1    2    0    0 -0.33801669020E+02  0.62827925702E+01  0.21705749018E+02  0.50528857714E+02  0.29999993507E+02 0.  0.
         12    1    1    2    0    0  0.33801669020E+02 -0.62827925702E+01 -0.21705749018E+02  0.40659142286E+02  0.00000000000E+00 0. -1.
         11    1    3    3    0    0 -0.13475578861E+02  0.15196310549E+02  0.38966939228E+01  0.20680988945E+02  0.51100000000E-03 0. -1.
        -11    1    3    3    0    0 -0.15946656148E+02 -0.24642180740E+01  0.12589304223E+02  0.20466040020E+02  0.51100000000E-03 0.  1.
         12    1    3    3    0    0 -0.43794340109E+01 -0.64492999046E+01  0.52197508725E+01  0.93818287496E+01  0.00000000000E+00 0. -1.
</event>
<event>
 7    1  0.6136531E-013  0.5052886E+02  0.7816164E-02  0.1300439E+00
        -11   -1    0    0    0    0  0.00000000000E+00  0.00000000000E+00  0.45593999997E+02  0.45594000000E+02  0.51100000000E-03 0. -1.
         11   -1    0    0    0    0 -0.00000000000E+00 -0.00000000000E+00 -0.45593999997E+02  0.45594000000E+02  0.51100000000E-03 0.  1.
    9900012    2    1    2    0    0  0.36320587665E+02  0.18170816167E+02 -0.19498038158E+01  0.50528863469E+02  0.30000011001E+02 0.  0.
         12    1    1    2    0    0 -0.36320587665E+02 -0.18170816167E+02  0.19498038158E+01  0.40659136531E+02  0.00000000000E+00 0. -1.
         11    1    3    3    0    0 -0.30317806254E+00 -0.32018365175E+01  0.44769477793E+00  0.32471687510E+01  0.51100000000E-03 0. -1.
        -11    1    3    3    0    0  0.31224287923E+02  0.17350324726E+02  0.63106793760E+01  0.36274158830E+02  0.51100000000E-03 0.  1.
        -12    1    3    3    0    0  0.53994778046E+01  0.40223279589E+01 -0.87081779697E+01  0.11007535888E+02  0.00000000000E+00 0.  1.
</event>
<event>
 7    1  0.6136531E-013  0.5052884E+02  0.7816164E-02  0.1300439E+00
        -11   -1    0    0    0    0  0.00000000000E+00  0.00000000000E+00  0.45593999997E+02  0.45594000000E+02  0.51100000000E-03 0. -1.
         11   -1    0    0    0    0 -0.00000000000E+00 -0.00000000000E+00 -0.45593999997E+02  0.45594000000E+02  0.51100000000E-03 0.  1.
    9900012    2    1    2    0    0 -0.18526691388E+02  0.32604313154E+02  0.15712656364E+02  0.50528842360E+02  0.29999946837E+02 0.  0.
         12    1    1    2    0    0  0.18526691388E+02 -0.32604313154E+02 -0.15712656364E+02  0.40659157640E+02  0.00000000000E+00 0. -1.
         11    1    3    3    0    0  0.60149982536E+01  0.24832589037E+01  0.68865888300E+00  0.65437779678E+01  0.51100000000E-03 0. -1.
        -11    1    3    3    0    0 -0.19878915179E+02  0.13916391869E+02  0.11036387892E+02  0.26657814789E+02  0.51100000000E-03 0.  1.
        -12    1    3    3    0    0 -0.46627744625E+01  0.16204662381E+02  0.39876095889E+01  0.17327249603E+02  0.00000000000E+00 0.  1.
</event>
<event>
 7    1  0.6136531E-013  0.5052886E+02  0.7816164E-02  0.1300439E+00
        -11   -1    0    0    0    0  0.00000000000E+00  0.00000000000E+00  0.45593999997E+02  0.45594000000E+02  0.51100000000E-03 0.  1.
         11   -1    0    0    0    0 -0.00000000000E+00 -0.00000000000E+00 -0.45593999997E+02  0.45594000000E+02  0.51100000000E-03 0. -1.
    9900012    2    1    2    0    0 -0.26643298783E+02  0.14890957664E+02  0.26861869473E+02  0.50528855619E+02  0.29999987139E+02 0.  0.
         12    1    1    2    0    0  0.26643298783E+02 -0.14890957664E+02 -0.26861869473E+02  0.40659144381E+02  0.00000000000E+00 0. -1.
         11    1    3    3    0    0 -0.13476496064E+02  0.20321816635E+02  0.22316622543E+02  0.33054860754E+02  0.51100000000E-03 0.  1.
        -11    1    3    3    0    0  0.86984536797E+00 -0.23440576044E+01  0.64325600158E+00  0.25816691426E+01  0.51100000000E-03 0. -1.
         12    1    3    3    0    0 -0.14036648087E+02 -0.30868013664E+01  0.39019909290E+01  0.14892325722E+02  0.00000000000E+00 0. -1.
</event>
<event>
 7    1  0.6136531E-013  0.5052886E+02  0.7816164E-02  0.1300439E+00
        -11   -1    0    0    0    0  0.00000000000E+00  0.00000000000E+00  0.45593999997E+02  0.45594000000E+02  0.51100000000E-03 0.  1.
         11   -1    0    0    0    0 -0.00000000000E+00 -0.00000000000E+00 -0.45593999997E+02  0.45594000000E+02  0.51100000000E-03 0. -1.
    9900012    2    1    2    0    0  0.33111017714E+01 -0.14986078081E+02  0.37651293861E+02  0.50528857601E+02  0.29999993164E+02 0.  0.
         12    1    1    2    0    0 -0.33111017714E+01  0.14986078081E+02 -0.37651293861E+02  0.40659142399E+02  0.00000000000E+00 0. -1.
         11    1    3    3    0    0 -0.53559991816E+01  0.24443551195E+00  0.25357350862E+02  0.25917980611E+02  0.51100000000E-03 0. -1.
        -11    1    3    3    0    0  0.11047742469E+02 -0.14848647631E+02  0.12259083760E+02  0.22199551460E+02  0.51100000000E-03 0.  1.
        -12    1    3    3    0    0 -0.23806415165E+01 -0.38186596213E+00  0.34859239228E-01  0.24113255296E+01  0.00000000000E+00 0.  1.
</event>
<event>
 7    1  0.6136531E-013  0.5052883E+02  0.7816164E-02  0.1300439E+00
        -11   -1    0    0    0    0  0.00000000000E+00  0.00000000000E+00  0.45593999997E+02  0.45594000000E+02  0.51100000000E-03 0.  1.
         11   -1    0    0    0    0 -0.00000000000E+00 -0.00000000000E+00 -0.45593999997E+02  0.45594000000E+02  0.51100000000E-03 0. -1.
    9900012    2    1    2    0    0  0.27736128244E+01  0.24815204187E+02  0.32088641923E+02  0.50528828496E+02  0.29999904697E+02 0.  0.
         12    1    1    2    0    0 -0.27736128244E+01 -0.24815204187E+02 -0.32088641923E+02  0.40659171504E+02  0.00000000000E+00 0. -1.
         11    1    3    3    0    0 -0.70932293643E+01  0.20723651844E+02  0.31077986599E+02  0.38021374251E+02  0.51100000000E-03 0.  1.
        -11    1    3    3    0    0  0.49157200167E+01 -0.87836801622E+00 -0.12304230933E+01  0.51429344643E+01  0.51100000000E-03 0. -1.
        -12    1    3    3    0    0  0.49511221720E+01  0.49699203591E+01  0.22410784167E+01  0.73645197812E+01  0.00000000000E+00 0.  1.
</event>
<event>
 7    1  0.6136531E-013  0.5052887E+02  0.7816164E-02  0.1300439E+00
        -11   -1    0    0    0    0  0.00000000000E+00  0.00000000000E+00  0.45593999997E+02  0.45594000000E+02  0.51100000000E-03 0.  1.
         11   -1    0    0    0    0 -0.00000000000E+00 -0.00000000000E+00 -0.45593999997E+02  0.45594000000E+02  0.51100000000E-03 0. -1.
    9900012    2    1    2    0    0 -0.27952511712E+02 -0.27308020686E+02 -0.11229173257E+02  0.50528865272E+02  0.30000016481E+02 0.  0.
         12    1    1    2    0    0  0.27952511712E+02  0.27308020686E+02  0.11229173257E+02  0.40659134728E+02  0.00000000000E+00 0. -1.
         11    1    3    3    0    0 -0.22687800549E+02 -0.14094390253E+02 -0.14989039484E+02  0.30627755962E+02  0.51100000000E-03 0. -1.
        -11    1    3    3    0    0 -0.51273981649E+01  0.10245468100E+01  0.17899583160E+01  0.55266499022E+01  0.51100000000E-03 0.  1.
         12    1    3    3    0    0 -0.13731299769E+00 -0.14238177244E+02  0.19699079113E+01  0.14374459408E+02  0.00000000000E+00 0. -1.
</event>
<event>
 7    1  0.6136531E-013  0.5052888E+02  0.7816164E-02  0.1300439E+00
        -11   -1    0    0    0    0  0.00000000000E+00  0.00000000000E+00  0.45593999997E+02  0.45594000000E+02  0.51100000000E-03 0.  1.
         11   -1    0    0    0    0 -0.00000000000E+00 -0.00000000000E+00 -0.45593999997E+02  0.45594000000E+02  0.51100000000E-03 0. -1.
    9900012    2    1    2    0    0 -0.22412946971E+02  0.44738331154E+01  0.33627502234E+02  0.50528877024E+02  0.30000052203E+02 0.  0.
         12    1    1    2    0    0  0.22412946971E+02 -0.44738331154E+01 -0.33627502234E+02  0.40659122976E+02  0.00000000000E+00 0. -1.
         11    1    3    3    0    0 -0.86675961457E+01 -0.42369405610E+01 -0.32286730595E+01  0.10173653142E+02  0.51100000000E-03 0. -1.
        -11    1    3    3    0    0 -0.91325549720E+01  0.51774552341E+01  0.21232413274E+02  0.23685965818E+02  0.51100000000E-03 0.  1.
         12    1    3    3    0    0 -0.46127958532E+01  0.35333184423E+01  0.15623762019E+02  0.16669258065E+02  0.00000000000E+00 0. -1.
</event>
<event>
 7    1  0.6136531E-013  0.5052887E+02  0.7816164E-02  0.1300439E+00
        -11   -1    0    0    0    0  0.00000000000E+00  0.00000000000E+00  0.45593999997E+02  0.45594000000E+02  0.51100000000E-03 0.  1.
         11   -1    0    0    0    0 -0.00000000000E+00 -0.00000000000E+00 -0.45593999997E+02  0.45594000000E+02  0.51100000000E-03 0. -1.
    9900012    2    1    2    0    0  0.24938882212E+02  0.31912060463E+02  0.35829398728E+01  0.50528869327E+02  0.30000028806E+02 0.  0.
         12    1    1    2    0    0 -0.24938882212E+02 -0.31912060463E+02 -0.35829398728E+01  0.40659130673E+02  0.00000000000E+00 0. -1.
         11    1    3    3    0    0  0.71649621457E+01  0.39777385567E+01  0.71132393837E+01  0.10851601788E+02  0.51100000000E-03 0. -1.
        -11    1    3    3    0    0  0.73289951437E+01  0.10817802834E+02 -0.12158043519E+02  0.17848166585E+02  0.51100000000E-03 0.  1.
        -12    1    3    3    0    0  0.10444924922E+02  0.17116519072E+02  0.86277440081E+01  0.21829100954E+02  0.00000000000E+00 0.  1.
</event>
<event>
 7    1  0.6136531E-013  0.5052885E+02  0.7816164E-02  0.1300439E+00
        -11   -1    0    0    0    0  0.00000000000E+00  0.00000000000E+00  0.45593999997E+02  0.45594000000E+02  0.51100000000E-03 0. -1.
         11   -1    0    0    0    0 -0.00000000000E+00 -0.00000000000E+00 -0.45593999997E+02  0.45594000000E+02  0.51100000000E-03 0.  1.
    9900012    2    1    2    0    0 -0.31975641568E+02 -0.10117488208E+02 -0.22986114205E+02  0.50528847678E+02  0.29999963001E+02 0.  0.
         12    1    1    2    0    0  0.31975641568E+02  0.10117488208E+02  0.22986114205E+02  0.40659152322E+02  0.00000000000E+00 0. -1.
         11    1    3    3    0    0 -0.16371148354E+02 -0.13592920422E+02  0.48838315397E+00  0.21284278291E+02  0.51100000000E-03 0. -1.
        -11    1    3    3    0    0 -0.53806708577E+01 -0.20209666642E+01 -0.91776132834E+01  0.10828873948E+02  0.51100000000E-03 0.  1.
         12    1    3    3    0    0 -0.10223822357E+02  0.54963988783E+01 -0.14296884076E+02  0.18415695438E+02  0.00000000000E+00 0. -1.
</event>
<event>
 7    1  0.6136531E-013  0.5052886E+02  0.7816164E-02  0.1300439E+00
        -11   -1    0    0    0    0  0.00000000000E+00  0.00000000000E+00  0.45593999997E+02  0.45594000000E+02  0.51100000000E-03 0.  1.
         11   -1    0    0    0    0 -0.00000000000E+00 -0.00000000000E+00 -0.45593999997E+02  0.45594000000E+02  0.51100000000E-03 0. -1.
    9900012    2    1    2    0    0 -0.14589672374E+02 -0.13142762633E+02  0.35603019218E+02  0.50528859244E+02  0.29999998157E+02 0.  0.
         12    1    1    2    0    0  0.14589672374E+02  0.13142762633E+02 -0.35603019218E+02  0.40659140756E+02  0.00000000000E+00 0. -1.
         11    1    3    3    0    0 -0.14357146079E+02 -0.64582145814E+01  0.47527056128E+01  0.16444585432E+02  0.51100000000E-03 0. -1.
        -11    1    3    3    0    0  0.56207192437E+00 -0.10326900720E+02  0.18632435536E+02  0.21310289946E+02  0.51100000000E-03 0.  1.
         12    1    3    3    0    0 -0.79459821902E+00  0.36423526684E+01  0.12217878070E+02  0.12773983866E+02  0.00000000000E+00 0. -1.
</event>
<event>
 7    1  0.6136531E-013  0.5052897E+02  0.7816164E-02  0.1300438E+00
        -11   -1    0    0    0    0  0.00000000000E+00  0.00000000000E+00  0.45593999997E+02  0.45594000000E+02  0.51100000000E-03 0. -1.
         11   -1    0    0    0    0 -0.00000000000E+00 -0.00000000000E+00 -0.45593999997E+02  0.45594000000E+02  0.51100000000E-03 0.  1.
    9900012    2    1    2    0    0 -0.12365685438E+02 -0.14006571644E+02 -0.36111809393E+02  0.50528966524E+02  0.30000324245E+02 0.  0.
         12    1    1    2    0    0  0.12365685438E+02  0.14006571644E+02  0.36111809393E+02  0.40659033476E+02  0.00000000000E+00 0. -1.
         11    1    3    3    0    0 -0.18822758605E+01 -0.36237712542E+01  0.21172533897E+01  0.45997220237E+01  0.51100000000E-03 0. -1.
        -11    1    3    3    0    0 -0.38868766760E+01 -0.11369642596E+02 -0.37308996461E+02  0.39196145222E+02  0.51100000000E-03 0.  1.
        -12    1    3    3    0    0 -0.65965329016E+01  0.98684220653E+00 -0.92006632163E+00  0.67330992788E+01  0.00000000000E+00 0.  1.
</event>
<event>
 7    1  0.6136531E-013  0.5052886E+02  0.7816164E-02  0.1300439E+00
        -11   -1    0    0    0    0  0.00000000000E+00  0.00000000000E+00  0.45593999997E+02  0.45594000000E+02  0.51100000000E-03 0.  1.
         11   -1    0    0    0    0 -0.00000000000E+00 -0.00000000000E+00 -0.45593999997E+02  0.45594000000E+02  0.51100000000E-03 0. -1.
    9900012    2    1    2    0    0  0.11772712568E+02  0.32718393531E+02  0.21073098277E+02  0.50528861944E+02  0.30000006366E+02 0.  0.
         12    1    1    2    0    0 -0.11772712568E+02 -0.32718393531E+02 -0.21073098277E+02  0.40659138056E+02  0.00000000000E+00 0. -1.
         11    1    3    3    0    0  0.47812536800E+01  0.14137579607E+02  0.61037660772E+01  0.16124128022E+02  0.51100000000E-03 0. -1.
        -11    1    3    3    0    0  0.12353275456E+02  0.26823368989E+01  0.11874036865E+02  0.17343330057E+02  0.51100000000E-03 0.  1.
        -12    1    3    3    0    0 -0.53618165686E+01  0.15898477025E+02  0.30952953353E+01  0.17061403865E+02  0.00000000000E+00 0.  1.
</event>
<event>
 7    1  0.6136531E-013  0.5052886E+02  0.7816164E-02  0.1300439E+00
        -11   -1    0    0    0    0  0.00000000000E+00  0.00000000000E+00  0.45593999997E+02  0.45594000000E+02  0.51100000000E-03 0.  1.
         11   -1    0    0    0    0 -0.00000000000E+00 -0.00000000000E+00 -0.45593999997E+02  0.45594000000E+02  0.51100000000E-03 0. -1.
    9900012    2    1    2    0    0  0.12773479368E+02 -0.14559581473E+02  0.35749439574E+02  0.50528860588E+02  0.30000002244E+02 0.  0.
         12    1    1    2    0    0 -0.12773479368E+02  0.14559581473E+02 -0.35749439574E+02  0.40659139412E+02  0.00000000000E+00 0. -1.
         11    1    3    3    0    0  0.18402878856E+02 -0.95364910601E+01  0.20544699193E+02  0.29183818755E+02  0.51100000000E-03 0.  1.
        -11    1    3    3    0    0 -0.56059394831E+01 -0.27890662180E+01  0.29449879726E+00  0.62683472829E+01  0.51100000000E-03 0. -1.
        -12    1    3    3    0    0 -0.23460004848E-01 -0.22340241949E+01  0.14910241584E+02  0.15076694550E+02  0.00000000000E+00 0.  1.
</event>
<event>
 7    1  0.6136531E-013  0.5052889E+02  0.7816164E-02  0.1300439E+00
        -11   -1    0    0    0    0  0.00000000000E+00  0.00000000000E+00  0.45593999997E+02  0.45594000000E+02  0.51100000000E-03 0. -1.
         11   -1    0    0    0    0 -0.00000000000E+00 -0.00000000000E+00 -0.45593999997E+02  0.45594000000E+02  0.51100000000E-03 0.  1.
    9900012    2    1    2    0    0 -0.91275212810E+01 -0.33204993113E+02 -0.21616657207E+02  0.50528891781E+02  0.30000097058E+02 0.  0.
         12    1    1    2    0    0  0.91275212810E+01  0.33204993113E+02  0.21616657207E+02  0.40659108219E+02  0.00000000000E+00 0. -1.
         11    1    3    3    0    0  0.20924203276E+01 -0.11140097578E+02 -0.74644984159E+01  0.13571983412E+02  0.51100000000E-03 0. -1.
        -11    1    3    3    0    0 -0.57021656376E+01 -0.60744680529E+01  0.62785281544E+01  0.10432342552E+02  0.51100000000E-03 0.  1.
        -12    1    3    3    0    0 -0.55177759710E+01 -0.15990427482E+02 -0.20430686945E+02  0.26524565817E+02  0.00000000000E+00 0.  1.
</event>
<event>
 7    1  0.6136531E-013  0.5052886E+02  0.7816164E-02  0.1300439E+00
        -11   -1    0    0    0    0  0.00000000000E+00  0.00000000000E+00  0.45593999997E+02  0.45594000000E+02  0.51100000000E-03 0.  1.
         11   -1    0    0    0    0 -0.00000000000E+00 -0.00000000000E+00 -0.45593999997E+02  0.45594000000E+02  0.51100000000E-03 0. -1.
    9900012    2    1    2    0    0  0.36385508477E+02  0.10759416960E+02  0.14611478383E+02  0.50528861040E+02  0.30000003618E+02 0.  0.
         12    1    1    2    0    0 -0.36385508477E+02 -0.10759416960E+02 -0.14611478383E+02  0.40659138960E+02  0.00000000000E+00 0. -1.
         11    1    3    3    0    0  0.96765073006E+01  0.64986771960E+01 -0.55236970358E+01  0.12898791728E+02  0.51100000000E-03 0. -1.
        -11    1    3    3    0    0  0.10468875696E+02 -0.61058962976E+01  0.10745355808E+02  0.16196975015E+02  0.51100000000E-03 0.  1.
        -12    1    3    3    0    0  0.16240125480E+02  0.10366636061E+02  0.93898196107E+01  0.21433094298E+02  0.00000000000E+00 0.  1.
</event>
<event>
 7    1  0.6136531E-013  0.5052886E+02  0.7816164E-02  0.1300439E+00
        -11   -1    0    0    0    0  0.00000000000E+00  0.00000000000E+00  0.45593999997E+02  0.45594000000E+02  0.51100000000E-03 0. -1.
         11   -1    0    0    0    0 -0.00000000000E+00 -0.00000000000E+00 -0.45593999997E+02  0.45594000000E+02  0.51100000000E-03 0.  1.
    9900012    2    1    2    0    0  0.14265073261E+02 -0.26777957569E+02 -0.27066851725E+02  0.50528858481E+02  0.29999995839E+02 0.  0.
         12    1    1    2    0    0 -0.14265073261E+02  0.26777957569E+02  0.27066851725E+02  0.40659141519E+02  0.00000000000E+00 0. -1.
         11    1    3    3    0    0  0.43056325761E+01 -0.73181462533E+01 -0.40402061841E-01  0.84908991899E+01  0.51100000000E-03 0. -1.
        -11    1    3    3    0    0 -0.66020764100E+01 -0.13960483943E+01 -0.10492853003E+02  0.12475428988E+02  0.51100000000E-03 0.  1.
        -12    1    3    3    0    0  0.16561517094E+02 -0.18063762922E+02 -0.16533596661E+02  0.29562530303E+02  0.00000000000E+00 0.  1.
</event>
<event>
 7    1  0.6136531E-013  0.5052885E+02  0.7816164E-02  0.1300439E+00
        -11   -1    0    0    0    0  0.00000000000E+00  0.00000000000E+00  0.45593999997E+02  0.45594000000E+02  0.51100000000E-03 0.  1.
         11   -1    0    0    0    0 -0.00000000000E+00 -0.00000000000E+00 -0.45593999997E+02  0.45594000000E+02  0.51100000000E-03 0. -1.
    9900012    2    1    2    0    0 -0.10554809041E+02 -0.11764572200E+02  0.37461409480E+02  0.50528851544E+02  0.29999974752E+02 0.  0.
         12    1    1    2    0    0  0.10554809041E+02  0.11764572200E+02 -0.37461409480E+02  0.40659148456E+02  0.00000000000E+00 0. -1.
         11    1    3    3    0    0 -0.34223258120E+01 -0.11837351962E+02  0.17518962125E+02  0.21418432474E+02  0.51100000000E-03 0. -1.
        -11    1    3    3    0    0 -0.35275756316E+01  0.56069199721E+01  0.21352872816E+02  0.22356800289E+02  0.51100000000E-03 0.  1.
        -12    1    3    3    0    0 -0.36049075972E+01 -0.55341402101E+01 -0.14104254609E+01  0.67536187803E+01  0.00000000000E+00 0.  1.
</event>
<event>
 7    1  0.6136531E-013  0.5052885E+02  0.7816164E-02  0.1300439E+00
        -11   -1    0    0    0    0  0.00000000000E+00  0.00000000000E+00  0.45593999997E+02  0.45594000000E+02  0.51100000000E-03 0.  1.
         11   -1    0    0    0    0 -0.00000000000E+00 -0.00000000000E+00 -0.45593999997E+02  0.45594000000E+02  0.51100000000E-03 0. -1.
    9900012    2    1    2    0    0 -0.10439887294E+02  0.12536502865E+01  0.39275995001E+02  0.50528847659E+02  0.29999962944E+02 0.  0.
         12    1    1    2    0    0  0.10439887294E+02 -0.12536502865E+01 -0.39275995001E+02  0.40659152341E+02  0.00000000000E+00 0. -1.
         11    1    3    3    0    0 -0.28098192569E+01  0.72940410757E+01  0.10033004368E+01  0.78806555246E+01  0.51100000000E-03 0. -1.
        -11    1    3    3    0    0 -0.97827119011E+01  0.23977562988E+01  0.21836669657E+02  0.24047678253E+02  0.51100000000E-03 0.  1.
         12    1    3    3    0    0  0.21526438637E+01 -0.84381470881E+01  0.16436024908E+02  0.18600513881E+02  0.00000000000E+00 0. -1.
</event>
<event>
 7    1  0.6136531E-013  0.5052885E+02  0.7816164E-02  0.1300439E+00
        -11   -1    0    0    0    0  0.00000000000E+00  0.00000000000E+00  0.45593999997E+02  0.45594000000E+02  0.51100000000E-03 0.  1.
         11   -1    0    0    0    0 -0.00000000000E+00 -0.00000000000E+00 -0.45593999997E+02  0.45594000000E+02  0.51100000000E-03 0. -1.
    9900012    2    1    2    0    0 -0.35037726245E+02  0.98318881331E+01  0.18134438628E+02  0.50528854054E+02  0.29999982382E+02 0.  0.
         12    1    1    2    0    0  0.35037726245E+02 -0.98318881331E+01 -0.18134438628E+02  0.40659145946E+02  0.00000000000E+00 0. -1.
         11    1    3    3    0    0 -0.33283476659E+01 -0.17060384649E+00  0.88831038047E+01  0.94877045340E+01  0.51100000000E-03 0. -1.
        -11    1    3    3    0    0 -0.34086784174E+02  0.80803003253E+01  0.43997505682E+01  0.35306627055E+02  0.51100000000E-03 0.  1.
        -12    1    3    3    0    0  0.23774055943E+01  0.19221916542E+01  0.48515842555E+01  0.57345224652E+01  0.00000000000E+00 0.  1.
</event>
<event>
 7    1  0.6136531E-013  0.5052888E+02  0.7816164E-02  0.1300439E+00
        -11   -1    0    0    0    0  0.00000000000E+00  0.00000000000E+00  0.45593999997E+02  0.45594000000E+02  0.51100000000E-03 0. -1.
         11   -1    0    0    0    0 -0.00000000000E+00 -0.00000000000E+00 -0.45593999997E+02  0.45594000000E+02  0.51100000000E-03 0.  1.
    9900012    2    1    2    0    0  0.15650267497E+02  0.37524369004E+02  0.39321447076E+00  0.50528883439E+02  0.30000071701E+02 0.  0.
         12    1    1    2    0    0 -0.15650267497E+02 -0.37524369004E+02 -0.39321447076E+00  0.40659116561E+02  0.00000000000E+00 0. -1.
         11    1    3    3    0    0  0.33610688652E+01  0.15094872301E+02  0.68695237333E+01  0.16921652114E+02  0.51100000000E-03 0. -1.
        -11    1    3    3    0    0  0.47104307888E+01 -0.34701134644E+01  0.19816203273E-01  0.58506613827E+01  0.51100000000E-03 0.  1.
        -12    1    3    3    0    0  0.75787678435E+01  0.25899610168E+02 -0.64961254658E+01  0.27756569942E+02  0.00000000000E+00 0.  1.
</event>
<event>
 7    1  0.6136531E-013  0.5052886E+02  0.7816164E-02  0.1300439E+00
        -11   -1    0    0    0    0  0.00000000000E+00  0.00000000000E+00  0.45593999997E+02  0.45594000000E+02  0.51100000000E-03 0.  1.
         11   -1    0    0    0    0 -0.00000000000E+00 -0.00000000000E+00 -0.45593999997E+02  0.45594000000E+02  0.51100000000E-03 0. -1.
    9900012    2    1    2    0    0 -0.11466843892E+02  0.13880896004E+02  0.36455426137E+02  0.50528857393E+02  0.29999992532E+02 0.  0.
         12    1    1    2    0    0  0.11466843892E+02 -0.13880896004E+02 -0.36455426137E+02  0.40659142607E+02  0.00000000000E+00 0. -1.
         11    1    3    3    0    0 -0.98767285479E+01 -0.17522289261E+01  0.21492184118E+02  0.23717800308E+02  0.51100000000E-03 0. -1.
        -11    1    3    3    0    0 -0.44664142481E+01  0.64525613680E+01 -0.12616239224E+01  0.79483394258E+01  0.51100000000E-03 0.  1.
        -12    1    3    3    0    0  0.28762989040E+01  0.91805635621E+01  0.16224865941E+02  0.18862717660E+02  0.00000000000E+00 0.  1.
</event>
<event>
 7    1  0.6136531E-013  0.5052886E+02  0.7816164E-02  0.1300439E+00
        -11   -1    0    0    0    0  0.00000000000E+00  0.00000000000E+00  0.45593999997E+02  0.45594000000E+02  0.51100000000E-03 0.  1.
         11   -1    0    0    0    0 -0.00000000000E+00 -0.00000000000E+00 -0.45593999997E+02  0.45594000000E+02  0.51100000000E-03 0. -1.
    9900012    2    1    2    0    0  0.29095647047E+02 -0.10760577719E+02  0.26283438561E+02  0.50528857701E+02  0.29999993467E+02 0.  0.
         12    1    1    2    0    0 -0.29095647047E+02  0.10760577719E+02 -0.26283438561E+02  0.40659142299E+02  0.00000000000E+00 0. -1.
         11    1    3    3    0    0 -0.12357984370E+01 -0.35481054110E+01  0.84512034748E+00  0.38510360226E+01  0.51100000000E-03 0. -1.
        -11    1    3    3    0    0  0.14888715318E+02  0.66120449525E+01  0.18883147408E+02  0.24939250962E+02  0.51100000000E-03 0.  1.
        -12    1    3    3    0    0  0.15442730166E+02 -0.13824517261E+02  0.65551708058E+01  0.21738570716E+02  0.00000000000E+00 0.  1.
</event>
<event>
 7    1  0.6136531E-013  0.5052886E+02  0.7816164E-02  0.1300439E+00
        -11   -1    0    0    0    0  0.00000000000E+00  0.00000000000E+00  0.45593999997E+02  0.45594000000E+02  0.51100000000E-03 0. -1.
         11   -1    0    0    0    0 -0.00000000000E+00 -0.00000000000E+00 -0.45593999997E+02  0.45594000000E+02  0.51100000000E-03 0.  1.
    9900012    2    1    2    0    0  0.35104379985E+02 -0.94375299185E+00 -0.20492859347E+02  0.50528862674E+02  0.30000008585E+02 0.  0.
         12    1    1    2    0    0 -0.35104379985E+02  0.94375299185E+00  0.20492859347E+02  0.40659137326E+02  0.00000000000E+00 0. -1.
         11    1    3    3    0    0  0.15542611858E+02 -0.12920967397E+02 -0.14747335802E+02  0.25020153783E+02  0.51100000000E-03 0. -1.
        -11    1    3    3    0    0  0.16781441208E+02  0.81154524637E+01 -0.81811460335E+00  0.18658688311E+02  0.51100000000E-03 0.  1.
         12    1    3    3    0    0  0.27803269185E+01  0.38617619411E+01 -0.49274089421E+01  0.68500205800E+01  0.00000000000E+00 0. -1.
</event>
<event>
 7    1  0.6136531E-013  0.5052886E+02  0.7816164E-02  0.1300439E+00
        -11   -1    0    0    0    0  0.00000000000E+00  0.00000000000E+00  0.45593999997E+02  0.45594000000E+02  0.51100000000E-03 0. -1.
         11   -1    0    0    0    0 -0.00000000000E+00 -0.00000000000E+00 -0.45593999997E+02  0.45594000000E+02  0.51100000000E-03 0.  1.
    9900012    2    1    2    0    0  0.15193725078E+02 -0.34220352887E+02 -0.15851938060E+02  0.50528858670E+02  0.29999996412E+02 0.  0.
         12    1    1    2    0    0 -0.15193725078E+02  0.34220352887E+02  0.15851938060E+02  0.40659141330E+02  0.00000000000E+00 0. -1.
         11    1    3    3    0    0  0.17102300414E+02 -0.14923550793E+02 -0.18647425848E+00  0.22698806591E+02  0.51100000000E-03 0. -1.
        -11    1    3    3    0    0 -0.92825420831E+00  0.27354413732E+00 -0.58216414971E+01  0.59015245702E+01  0.51100000000E-03 0.  1.
         12    1    3    3    0    0 -0.98032112838E+00 -0.19570346232E+02 -0.98438223043E+01  0.21928527509E+02  0.00000000000E+00 0. -1.
</event>
<event>
 7    1  0.6136531E-013  0.5052886E+02  0.7816164E-02  0.1300439E+00
        -11   -1    0    0    0    0  0.00000000000E+00  0.00000000000E+00  0.45593999997E+02  0.45594000000E+02  0.51100000000E-03 0.  1.
         11   -1    0    0    0    0 -0.00000000000E+00 -0.00000000000E+00 -0.45593999997E+02  0.45594000000E+02  0.51100000000E-03 0. -1.
    9900012    2    1    2    0    0 -0.75595408167E+01  0.35601366348E+02  0.18126271548E+02  0.50528860026E+02  0.30000000536E+02 0.  0.
         12    1    1    2    0    0  0.75595408167E+01 -0.35601366348E+02 -0.18126271548E+02  0.40659139974E+02  0.00000000000E+00 0. -1.
         11    1    3    3    0    0 -0.10437122599E+01  0.34292677140E+01 -0.57912363853E+01  0.68108466043E+01  0.51100000000E-03 0. -1.
        -11    1    3    3    0    0 -0.44438755322E+01  0.31381445219E+02  0.16016296328E+02  0.35511475358E+02  0.51100000000E-03 0.  1.
        -12    1    3    3    0    0 -0.20719530246E+01  0.79065341450E+00  0.79012116058E+01  0.82065380641E+01  0.00000000000E+00 0.  1.
</event>
<event>
 7    1  0.6136531E-013  0.5052884E+02  0.7816164E-02  0.1300439E+00
        -11   -1    0    0    0    0  0.00000000000E+00  0.00000000000E+00  0.45593999997E+02  0.45594000000E+02  0.51100000000E-03 0.  1.
         11   -1    0    0    0    0 -0.00000000000E+00 -0.00000000000E+00 -0.45593999997E+02  0.45594000000E+02  0.51100000000E-03 0. -1.
    9900012    2    1    2    0    0  0.76804227439E+00 -0.14982068935E+02  0.37790404061E+02  0.50528844603E+02  0.29999953656E+02 0.  0.
         12    1    1    2    0    0 -0.76804227439E+00  0.14982068935E+02 -0.37790404061E+02  0.40659155397E+02  0.00000000000E+00 0. -1.
         11    1    3    3    0    0 -0.47745168624E+01  0.53287931011E+01  0.66800366989E+01  0.97885104966E+01  0.51100000000E-03 0. -1.
        -11    1    3    3    0    0  0.20910060424E+01 -0.22103720747E+02  0.28152285362E+02  0.35853841475E+02  0.51100000000E-03 0.  1.
        -12    1    3    3    0    0  0.34515530944E+01  0.17928587109E+01  0.29580819995E+01  0.48864926314E+01  0.00000000000E+00 0.  1.
</event>
<event>
 7    1  0.6136531E-013  0.5052886E+02  0.7816164E-02  0.1300439E+00
        -11   -1    0    0    0    0  0.00000000000E+00  0.00000000000E+00  0.45593999997E+02  0.45594000000E+02  0.51100000000E-03 0.  1.
         11   -1    0    0    0    0 -0.00000000000E+00 -0.00000000000E+00 -0.45593999997E+02  0.45594000000E+02  0.51100000000E-03 0. -1.
    9900012    2    1    2    0    0 -0.11760285553E+02  0.22550190200E+02  0.31723019388E+02  0.50528863838E+02  0.30000012121E+02 0.  0.
         12    1    1    2    0    0  0.11760285553E+02 -0.22550190200E+02 -0.31723019388E+02  0.40659136162E+02  0.00000000000E+00 0. -1.
         11    1    3    3    0    0  0.67482442829E+01  0.20370581444E+01  0.13238227657E+01  0.71722321325E+01  0.51100000000E-03 0. -1.
        -11    1    3    3    0    0 -0.17266600355E+02  0.13525117531E+02  0.28586543554E+02  0.36031302567E+02  0.51100000000E-03 0.  1.
        -12    1    3    3    0    0 -0.12419294809E+01  0.69880145249E+01  0.18126530683E+01  0.73253291381E+01  0.00000000000E+00 0.  1.
</event>
<event>
 7    1  0.6136531E-013  0.5052884E+02  0.7816164E-02  0.1300439E+00
        -11   -1    0    0    0    0  0.00000000000E+00  0.00000000000E+00  0.45593999997E+02  0.45594000000E+02  0.51100000000E-03 0.  1.
         11   -1    0    0    0    0 -0.00000000000E+00 -0.00000000000E+00 -0.45593999997E+02  0.45594000000E+02  0.51100000000E-03 0. -1.
    9900012    2    1    2    0    0  0.18348313245E+02 -0.36268787957E+02 -0.10399682551E+01  0.50528842202E+02  0.29999946358E+02 0.  0.
         12    1    1    2    0    0 -0.18348313245E+02  0.36268787957E+02  0.10399682551E+01  0.40659157798E+02  0.00000000000E+00 0. -1.
         11    1    3    3    0    0  0.71924502521E+00 -0.12205576958E+02 -0.10178957532E+01  0.12269047816E+02  0.51100000000E-03 0. -1.
        -11    1    3    3    0    0  0.21585290099E+02 -0.16336310221E+02 -0.59904506140E+01  0.27725174104E+02  0.51100000000E-03 0.  1.
        -12    1    3    3    0    0 -0.39562218792E+01 -0.77269007785E+01  0.59683781121E+01  0.10534620282E+02  0.00000000000E+00 0.  1.
</event>
<event>
 7    1  0.6136531E-013  0.5052887E+02  0.7816164E-02  0.1300439E+00
        -11   -1    0    0    0    0  0.00000000000E+00  0.00000000000E+00  0.45593999997E+02  0.45594000000E+02  0.51100000000E-03 0. -1.
         11   -1    0    0    0    0 -0.00000000000E+00 -0.00000000000E+00 -0.45593999997E+02  0.45594000000E+02  0.51100000000E-03 0.  1.
    9900012    2    1    2    0    0  0.40243309364E+02  0.36873593400E+01 -0.44771021632E+01  0.50528868046E+02  0.30000024913E+02 0.  0.
         12    1    1    2    0    0 -0.40243309364E+02 -0.36873593400E+01  0.44771021632E+01  0.40659131954E+02  0.00000000000E+00 0. -1.
         11    1    3    3    0    0  0.49652785248E+01  0.18643829848E+01 -0.70109980784E+01  0.87911324105E+01  0.51100000000E-03 0. -1.
        -11    1    3    3    0    0  0.33579683286E+02  0.32208298092E+01 -0.48068231017E+01  0.34074542152E+02  0.51100000000E-03 0.  1.
        -12    1    3    3    0    0  0.16983475529E+01 -0.13978534540E+01  0.73407190168E+01  0.76631934840E+01  0.00000000000E+00 0.  1.
</event>
<event>
 7    1  0.6136531E-013  0.5052887E+02  0.7816164E-02  0.1300439E+00
        -11   -1    0    0    0    0  0.00000000000E+00  0.00000000000E+00  0.45593999997E+02  0.45594000000E+02  0.51100000000E-03 0. -1.
         11   -1    0    0    0    0 -0.00000000000E+00 -0.00000000000E+00 -0.45593999997E+02  0.45594000000E+02  0.51100000000E-03 0.  1.
    9900012    2    1    2    0    0  0.40021678941E+02  0.65357775918E+01  0.29519202687E+01  0.50528868096E+02  0.30000025063E+02 0.  0.
         12    1    1    2    0    0 -0.40021678941E+02 -0.65357775918E+01 -0.29519202687E+01  0.40659131904E+02  0.00000000000E+00 0. -1.
         11    1    3    3    0    0  0.10974270384E+02 -0.78657603853E+01 -0.34601153316E+01  0.13938335455E+02  0.51100000000E-03 0. -1.
        -11    1    3    3    0    0  0.19311986900E+02  0.16872180625E+02  0.68289419970E+01  0.26537855341E+02  0.51100000000E-03 0.  1.
        -12    1    3    3    0    0  0.97354216569E+01 -0.24706426479E+01 -0.41690639677E+00  0.10052677299E+02  0.00000000000E+00 0.  1.
</event>
<event>
 7    1  0.6136531E-013  0.5052886E+02  0.7816164E-02  0.1300439E+00
        -11   -1    0    0    0    0  0.00000000000E+00  0.00000000000E+00  0.45593999997E+02  0.45594000000E+02  0.51100000000E-03 0.  1.
         11   -1    0    0    0    0 -0.00000000000E+00 -0.00000000000E+00 -0.45593999997E+02  0.45594000000E+02  0.51100000000E-03 0. -1.
    9900012    2    1    2    0    0 -0.29924353662E+02 -0.46769023402E+01  0.27126096406E+02  0.50528862481E+02  0.30000007998E+02 0.  0.
         12    1    1    2    0    0  0.29924353662E+02  0.46769023402E+01 -0.27126096406E+02  0.40659137519E+02  0.00000000000E+00 0. -1.
         11    1    3    3    0    0  0.54280024144E+01 -0.37550256231E+01  0.35578290567E+01  0.74981047938E+01  0.51100000000E-03 0. -1.
        -11    1    3    3    0    0 -0.16215117094E+02 -0.25415977486E+01  0.14003530024E+02  0.21575184701E+02  0.51100000000E-03 0.  1.
         12    1    3    3    0    0 -0.19137238982E+02  0.16197210315E+01  0.95647373254E+01  0.21455572987E+02  0.00000000000E+00 0. -1.
</event>
<event>
 7    1  0.6136531E-013  0.5052886E+02  0.7816164E-02  0.1300439E+00
        -11   -1    0    0    0    0  0.00000000000E+00  0.00000000000E+00  0.45593999997E+02  0.45594000000E+02  0.51100000000E-03 0.  1.
         11   -1    0    0    0    0 -0.00000000000E+00 -0.00000000000E+00 -0.45593999997E+02  0.45594000000E+02  0.51100000000E-03 0. -1.
    9900012    2    1    2    0    0 -0.31166007079E+02 -0.24563497005E+02  0.88589087863E+01  0.50528860225E+02  0.30000001139E+02 0.  0.
         12    1    1    2    0    0  0.31166007079E+02  0.24563497005E+02 -0.88589087863E+01  0.40659139775E+02  0.00000000000E+00 0. -1.
         11    1    3    3    0    0 -0.12068321046E+02 -0.10712645666E+02 -0.54938721319E+01  0.17046635483E+02  0.51100000000E-03 0. -1.
        -11    1    3    3    0    0 -0.13803802744E+02 -0.15994780830E+02  0.17065736278E+02  0.27159111528E+02  0.51100000000E-03 0.  1.
         12    1    3    3    0    0 -0.52938832886E+01  0.21439294910E+01 -0.27129553594E+01  0.63231132141E+01  0.00000000000E+00 0. -1.
</event>
<event>
 7    1  0.6136531E-013  0.5052892E+02  0.7816164E-02  0.1300439E+00
        -11   -1    0    0    0    0  0.00000000000E+00  0.00000000000E+00  0.45593999997E+02  0.45594000000E+02  0.51100000000E-03 0.  1.
         11   -1    0    0    0    0 -0.00000000000E+00 -0.00000000000E+00 -0.45593999997E+02  0.45594000000E+02  0.51100000000E-03 0. -1.
    9900012    2    1    2    0    0 -0.26242679186E+02  0.31054230871E+02 -0.34230290477E+00  0.50528921836E+02  0.30000188412E+02 0.  0.
         12    1    1    2    0    0  0.26242679186E+02 -0.31054230871E+02  0.34230290477E+00  0.40659078164E+02  0.00000000000E+00 0. -1.
         11    1    3    3    0    0 -0.58949592788E+01  0.21869746969E+02 -0.61269970977E+01  0.23464365985E+02  0.51100000000E-03 0.  1.
        -11    1    3    3    0    0 -0.17259025683E+01 -0.31870406234E+00  0.59022873224E+01  0.61577031312E+01  0.51100000000E-03 0. -1.
         12    1    3    3    0    0 -0.18621817339E+02  0.95031879649E+01 -0.11759312951E+00  0.20906852720E+02  0.00000000000E+00 0. -1.
</event>
<event>
 7    1  0.6136531E-013  0.5052886E+02  0.7816164E-02  0.1300439E+00
        -11   -1    0    0    0    0  0.00000000000E+00  0.00000000000E+00  0.45593999997E+02  0.45594000000E+02  0.51100000000E-03 0. -1.
         11   -1    0    0    0    0 -0.00000000000E+00 -0.00000000000E+00 -0.45593999997E+02  0.45594000000E+02  0.51100000000E-03 0.  1.
    9900012    2    1    2    0    0 -0.21156243995E+02  0.53633621082E+01 -0.34304710375E+02  0.50528862442E+02  0.30000007877E+02 0.  0.
         12    1    1    2    0    0  0.21156243995E+02 -0.53633621082E+01  0.34304710375E+02  0.40659137558E+02  0.00000000000E+00 0. -1.
         11    1    3    3    0    0 -0.13597635188E+02 -0.14069668942E+01 -0.82481571860E+00  0.13695092544E+02  0.51100000000E-03 0. -1.
        -11    1    3    3    0    0  0.10671546881E+01  0.13567733494E+01 -0.19293397864E+02  0.19370463455E+02  0.51100000000E-03 0.  1.
         12    1    3    3    0    0 -0.86257634947E+01  0.54135556530E+01 -0.14186496792E+02  0.17463306443E+02  0.00000000000E+00 0. -1.
</event>
<event>
 7    1  0.6136531E-013  0.5052895E+02  0.7816164E-02  0.1300438E+00
        -11   -1    0    0    0    0  0.00000000000E+00  0.00000000000E+00  0.45593999997E+02  0.45594000000E+02  0.51100000000E-03 0.  1.
         11   -1    0    0    0    0 -0.00000000000E+00 -0.00000000000E+00 -0.45593999997E+02  0.45594000000E+02  0.51100000000E-03 0. -1.
    9900012    2    1    2    0    0 -0.27759998836E+02  0.68992607736E+01  0.28895349278E+02  0.50528947570E+02  0.30000266634E+02 0.  0.
         12    1    1    2    0    0  0.27759998836E+02 -0.68992607736E+01 -0.28895349278E+02  0.40659052430E+02  0.00000000000E+00 0. -1.
         11    1    3    3    0    0 -0.18064529372E+01  0.39757095883E+01  0.58670843668E+01  0.73138374450E+01  0.51100000000E-03 0. -1.
        -11    1    3    3    0    0 -0.13072806532E+02  0.23581446503E+01 -0.34848387253E+01  0.13733288682E+02  0.51100000000E-03 0.  1.
        -12    1    3    3    0    0 -0.12880739366E+02  0.56540653499E+00  0.26513103637E+02  0.29481821443E+02  0.00000000000E+00 0.  1.
</event>
<event>
 7    1  0.6136531E-013  0.5052885E+02  0.7816164E-02  0.1300439E+00
        -11   -1    0    0    0    0  0.00000000000E+00  0.00000000000E+00  0.45593999997E+02  0.45594000000E+02  0.51100000000E-03 0.  1.
         11   -1    0    0    0    0 -0.00000000000E+00 -0.00000000000E+00 -0.45593999997E+02  0.45594000000E+02  0.51100000000E-03 0. -1.
    9900012    2    1    2    0    0 -0.60007213719E+01  0.30783898403E+02  0.25874878997E+02  0.50528850710E+02  0.29999972219E+02 0.  0.
         12    1    1    2    0    0  0.60007213719E+01 -0.30783898403E+02 -0.25874878997E+02  0.40659149290E+02  0.00000000000E+00 0. -1.
         11    1    3    3    0    0 -0.80016698369E+01  0.46147234428E+01  0.21069650441E+01  0.94742648575E+01  0.51100000000E-03 0. -1.
        -11    1    3    3    0    0  0.79705362844E+01  0.70266552267E+01  0.16699762676E+02  0.19793569815E+02  0.51100000000E-03 0.  1.
        -12    1    3    3    0    0 -0.59695878195E+01  0.19142519734E+02  0.70681512769E+01  0.21261016038E+02  0.00000000000E+00 0.  1.
</event>
<event>
 7    1  0.6136531E-013  0.5052884E+02  0.7816164E-02  0.1300439E+00
        -11   -1    0    0    0    0  0.00000000000E+00  0.00000000000E+00  0.45593999997E+02  0.45594000000E+02  0.51100000000E-03 0. -1.
         11   -1    0    0    0    0 -0.00000000000E+00 -0.00000000000E+00 -0.45593999997E+02  0.45594000000E+02  0.51100000000E-03 0.  1.
    9900012    2    1    2    0    0 -0.18068754556E+02  0.14716757074E+02 -0.33318233732E+02  0.50528837084E+02  0.29999930801E+02 0.  0.
         12    1    1    2    0    0  0.18068754556E+02 -0.14716757074E+02  0.33318233732E+02  0.40659162916E+02  0.00000000000E+00 0. -1.
         11    1    3    3    0    0 -0.16987973003E+02  0.27070366687E+01 -0.25306926134E+02  0.30599996485E+02  0.51100000000E-03 0. -1.
        -11    1    3    3    0    0  0.87678728807E+00  0.12498774285E+02 -0.92806169331E+00  0.12563813646E+02  0.51100000000E-03 0.  1.
        -12    1    3    3    0    0 -0.19575688414E+01 -0.48905387941E+00 -0.70832459056E+01  0.73650269535E+01  0.00000000000E+00 0.  1.
</event>
<event>
 7    1  0.6136531E-013  0.5052886E+02  0.7816164E-02  0.1300439E+00
        -11   -1    0    0    0    0  0.00000000000E+00  0.00000000000E+00  0.45593999997E+02  0.45594000000E+02  0.51100000000E-03 0. -1.
         11   -1    0    0    0    0 -0.00000000000E+00 -0.00000000000E+00 -0.45593999997E+02  0.45594000000E+02  0.51100000000E-03 0.  1.
    9900012    2    1    2    0    0  0.25645488101E+02  0.29846935827E+02  0.10229142891E+02  0.50528855856E+02  0.29999987861E+02 0.  0.
         12    1    1    2    0    0 -0.25645488101E+02 -0.29846935827E+02 -0.10229142891E+02  0.40659144144E+02  0.00000000000E+00 0. -1.
         11    1    3    3    0    0  0.21344775831E+02  0.91512799535E+01  0.78573799047E+01  0.24517010407E+02  0.51100000000E-03 0.  1.
        -11    1    3    3    0    0  0.44261889926E+01  0.19082217743E+02 -0.35193803091E+01  0.19902467712E+02  0.51100000000E-03 0. -1.
         12    1    3    3    0    0 -0.12547672329E+00  0.16134381308E+01  0.58911432956E+01  0.61093777375E+01  0.00000000000E+00 0. -1.
</event>
<event>
 7    1  0.6136531E-013  0.5052886E+02  0.7816164E-02  0.1300439E+00
        -11   -1    0    0    0    0  0.00000000000E+00  0.00000000000E+00  0.45593999997E+02  0.45594000000E+02  0.51100000000E-03 0. -1.
         11   -1    0    0    0    0 -0.00000000000E+00 -0.00000000000E+00 -0.45593999997E+02  0.45594000000E+02  0.51100000000E-03 0.  1.
    9900012    2    1    2    0    0  0.34642114296E+02 -0.14854150513E+02 -0.15246108059E+02  0.50528859806E+02  0.29999999865E+02 0.  0.
         12    1    1    2    0    0 -0.34642114296E+02  0.14854150513E+02  0.15246108059E+02  0.40659140194E+02  0.00000000000E+00 0. -1.
         11    1    3    3    0    0  0.21451510579E+02 -0.39795235405E+01 -0.79770990527E+01  0.23230110273E+02  0.51100000000E-03 0. -1.
        -11    1    3    3    0    0  0.52856204027E+01 -0.15203425779E+02 -0.84998804846E+01  0.18202469804E+02  0.51100000000E-03 0.  1.
         12    1    3    3    0    0  0.79049833147E+01  0.43287988060E+01  0.12308714780E+01  0.90962797288E+01  0.00000000000E+00 0. -1.
</event>
<event>
 7    1  0.6136531E-013  0.5052887E+02  0.7816164E-02  0.1300439E+00
        -11   -1    0    0    0    0  0.00000000000E+00  0.00000000000E+00  0.45593999997E+02  0.45594000000E+02  0.51100000000E-03 0.  1.
         11   -1    0    0    0    0 -0.00000000000E+00 -0.00000000000E+00 -0.45593999997E+02  0.45594000000E+02  0.51100000000E-03 0. -1.
    9900012    2    1    2    0    0 -0.26147814661E+02  0.29672962696E+02  0.94324987656E+01  0.50528868681E+02  0.30000026842E+02 0.  0.
         12    1    1    2    0    0  0.26147814661E+02 -0.29672962696E+02 -0.94324987656E+01  0.40659131319E+02  0.00000000000E+00 0. -1.
         11    1    3    3    0    0 -0.23751745109E+02  0.16274137582E+02  0.81128878135E+01  0.29913406671E+02  0.51100000000E-03 0. -1.
        -11    1    3    3    0    0  0.53405825124E+00  0.11691361724E+02  0.72619543651E+01  0.13773494061E+02  0.51100000000E-03 0.  1.
         12    1    3    3    0    0 -0.29301278031E+01  0.17074633899E+01 -0.59423434130E+01  0.68419679485E+01  0.00000000000E+00 0. -1.
</event>
<event>
 7    1  0.6136531E-013  0.5052886E+02  0.7816164E-02  0.1300439E+00
        -11   -1    0    0    0    0  0.00000000000E+00  0.00000000000E+00  0.45593999997E+02  0.45594000000E+02  0.51100000000E-03 0.  1.
         11   -1    0    0    0    0 -0.00000000000E+00 -0.00000000000E+00 -0.45593999997E+02  0.45594000000E+02  0.51100000000E-03 0. -1.
    9900012    2    1    2    0    0 -0.34625413444E+02 -0.18401512704E+02  0.10753180747E+02  0.50528858075E+02  0.29999994604E+02 0.  0.
         12    1    1    2    0    0  0.34625413444E+02  0.18401512704E+02 -0.10753180747E+02  0.40659141925E+02  0.00000000000E+00 0. -1.
         11    1    3    3    0    0 -0.70128426688E+01 -0.59088042307E+01  0.16768580024E+02  0.19112278933E+02  0.51100000000E-03 0. -1.
        -11    1    3    3    0    0 -0.13508622683E+02 -0.52068310083E+01 -0.10620663871E+00  0.14477750379E+02  0.51100000000E-03 0.  1.
         12    1    3    3    0    0 -0.14103948092E+02 -0.72858774648E+01 -0.59091926382E+01  0.16938828763E+02  0.00000000000E+00 0. -1.
</event>
<event>
 7    1  0.6136531E-013  0.5052886E+02  0.7816164E-02  0.1300439E+00
        -11   -1    0    0    0    0  0.00000000000E+00  0.00000000000E+00  0.45593999997E+02  0.45594000000E+02  0.51100000000E-03 0. -1.
         11   -1    0    0    0    0 -0.00000000000E+00 -0.00000000000E+00 -0.45593999997E+02  0.45594000000E+02  0.51100000000E-03 0.  1.
    9900012    2    1    2    0    0  0.30624360429E+02 -0.14682478292E+02 -0.22354851289E+02  0.50528855929E+02  0.29999988080E+02 0.  0.
         12    1    1    2    0    0 -0.30624360429E+02  0.14682478292E+02  0.22354851289E+02  0.40659144071E+02  0.00000000000E+00 0. -1.
         11    1    3    3    0    0  0.12859996936E+02 -0.14986921344E+02 -0.20448482952E+02  0.28427588499E+02  0.51100000000E-03 0.  1.
        -11    1    3    3    0    0  0.76986447401E+01 -0.64178497486E+00  0.55726425114E+01  0.95255111993E+01  0.51100000000E-03 0. -1.
        -12    1    3    3    0    0  0.10065718753E+02  0.94622802714E+00 -0.74790108487E+01  0.12575756230E+02  0.00000000000E+00 0.  1.
</event>
<event>
 7    1  0.6136531E-013  0.5052886E+02  0.7816164E-02  0.1300439E+00
        -11   -1    0    0    0    0  0.00000000000E+00  0.00000000000E+00  0.45593999997E+02  0.45594000000E+02  0.51100000000E-03 0.  1.
         11   -1    0    0    0    0 -0.00000000000E+00 -0.00000000000E+00 -0.45593999997E+02  0.45594000000E+02  0.51100000000E-03 0. -1.
    9900012    2    1    2    0    0  0.10175839179E+02  0.27167655262E+02  0.28487475724E+02  0.50528862422E+02  0.30000007818E+02 0.  0.
         12    1    1    2    0    0 -0.10175839179E+02 -0.27167655262E+02 -0.28487475724E+02  0.40659137578E+02  0.00000000000E+00 0. -1.
         11    1    3    3    0    0 -0.37578242064E+01 -0.41090145156E+01  0.13081632997E+01  0.57198369326E+01  0.51100000000E-03 0. -1.
        -11    1    3    3    0    0  0.43474525845E+01  0.95535497930E+01  0.14473936026E+02  0.17879191312E+02  0.51100000000E-03 0.  1.
         12    1    3    3    0    0  0.95862108011E+01  0.21723119985E+02  0.12705376399E+02  0.26929834178E+02  0.00000000000E+00 0. -1.
</event>
<event>
 7    1  0.6136531E-013  0.5052899E+02  0.7816164E-02  0.1300438E+00
        -11   -1    0    0    0    0  0.00000000000E+00  0.00000000000E+00  0.45593999997E+02  0.45594000000E+02  0.51100000000E-03 0.  1.
         11   -1    0    0    0    0 -0.00000000000E+00 -0.00000000000E+00 -0.45593999997E+02  0.45594000000E+02  0.51100000000E-03 0. -1.
    9900012    2    1    2    0    0 -0.13818233702E+02  0.38158314319E+02  0.24808696143E+01  0.50528988104E+02  0.30000389838E+02 0.  0.
         12    1    1    2    0    0  0.13818233702E+02 -0.38158314319E+02 -0.24808696143E+01  0.40659011896E+02  0.00000000000E+00 0. -1.
         11    1    3    3    0    0 -0.91691216832E+00  0.14716650725E+02 -0.93455635674E+01  0.17457379389E+02  0.51100000000E-03 0. -1.
        -11    1    3    3    0    0 -0.10005821789E+02  0.79993913669E+01  0.11715673312E+02  0.17359831028E+02  0.51100000000E-03 0.  1.
        -12    1    3    3    0    0 -0.28954997450E+01  0.15442272228E+02  0.11075986976E+00  0.15711777687E+02  0.00000000000E+00 0.  1.
</event>
<event>
 7    1  0.6136531E-013  0.5052886E+02  0.7816164E-02  0.1300439E+00
        -11   -1    0    0    0    0  0.00000000000E+00  0.00000000000E+00  0.45593999997E+02  0.45594000000E+02  0.51100000000E-03 0.  1.
         11   -1    0    0    0    0 -0.00000000000E+00 -0.00000000000E+00 -0.45593999997E+02  0.45594000000E+02  0.51100000000E-03 0. -1.
    9900012    2    1    2    0    0  0.14552528642E+01  0.37101043483E+02  0.16569876517E+02  0.50528855934E+02  0.29999988096E+02 0.  0.
         12    1    1    2    0    0 -0.14552528642E+01 -0.37101043483E+02 -0.16569876517E+02  0.40659144066E+02  0.00000000000E+00 0. -1.
         11    1    3    3    0    0  0.69334236941E+01  0.18237676533E+02  0.15880806279E+01  0.19575679037E+02  0.51100000000E-03 0. -1.
        -11    1    3    3    0    0 -0.11638539814E+02  0.78275146986E+01  0.51535088475E+01  0.14942698855E+02  0.51100000000E-03 0.  1.
        -12    1    3    3    0    0  0.61603689843E+01  0.11035852252E+02  0.98282870416E+01  0.16010478041E+02  0.00000000000E+00 0.  1.
</event>
<event>
 7    1  0.6136531E-013  0.5052886E+02  0.7816164E-02  0.1300439E+00
        -11   -1    0    0    0    0  0.00000000000E+00  0.00000000000E+00  0.45593999997E+02  0.45594000000E+02  0.51100000000E-03 0. -1.
         11   -1    0    0    0    0 -0.00000000000E+00 -0.00000000000E+00 -0.45593999997E+02  0.45594000000E+02  0.51100000000E-03 0.  1.
    9900012    2    1    2    0    0  0.25504079082E+02  0.86399981446E+01 -0.30464043352E+02  0.50528861358E+02  0.30000004584E+02 0.  0.
         12    1    1    2    0    0 -0.25504079082E+02 -0.86399981446E+01  0.30464043352E+02  0.40659138642E+02  0.00000000000E+00 0. -1.
         11    1    3    3    0    0  0.98808905530E+01  0.99942148584E+01 -0.17317684599E+01  0.14160344311E+02  0.51100000000E-03 0. -1.
        -11    1    3    3    0    0  0.22848166287E+01 -0.57594459409E+00 -0.20584885713E+02  0.20719305473E+02  0.51100000000E-03 0.  1.
        -12    1    3    3    0    0  0.13338371900E+02 -0.77827211965E+00 -0.81473891790E+01  0.15649211574E+02  0.00000000000E+00 0.  1.
</event>
<event>
 7    1  0.6136531E-013  0.5052886E+02  0.7816164E-02  0.1300439E+00
        -11   -1    0    0    0    0  0.00000000000E+00  0.00000000000E+00  0.45593999997E+02  0.45594000000E+02  0.51100000000E-03 0.  1.
         11   -1    0    0    0    0 -0.00000000000E+00 -0.00000000000E+00 -0.45593999997E+02  0.45594000000E+02  0.51100000000E-03 0. -1.
    9900012    2    1    2    0    0 -0.16470905587E+02  0.18571788310E+02  0.32201923465E+02  0.50528856788E+02  0.29999990694E+02 0.  0.
         12    1    1    2    0    0  0.16470905587E+02 -0.18571788310E+02 -0.32201923465E+02  0.40659143212E+02  0.00000000000E+00 0. -1.
         11    1    3    3    0    0 -0.75825254398E+01  0.23935395847E+02  0.30948090379E+02  0.39852003272E+02  0.51100000000E-03 0.  1.
        -11    1    3    3    0    0 -0.55664842826E+01 -0.37162444582E+01  0.17952813052E+01  0.69295927273E+01  0.51100000000E-03 0. -1.
        -12    1    3    3    0    0 -0.33218958641E+01 -0.16473630796E+01 -0.54144821917E+00  0.37472607892E+01  0.00000000000E+00 0.  1.
</event>
<event>
 7    1  0.6136531E-013  0.5052885E+02  0.7816164E-02  0.1300439E+00
        -11   -1    0    0    0    0  0.00000000000E+00  0.00000000000E+00  0.45593999997E+02  0.45594000000E+02  0.51100000000E-03 0.  1.
         11   -1    0    0    0    0 -0.00000000000E+00 -0.00000000000E+00 -0.45593999997E+02  0.45594000000E+02  0.51100000000E-03 0. -1.
    9900012    2    1    2    0    0 -0.15954511279E+02  0.96821910267E+01  0.36123054694E+02  0.50528851784E+02  0.29999975482E+02 0.  0.
         12    1    1    2    0    0  0.15954511279E+02 -0.96821910267E+01 -0.36123054694E+02  0.40659148216E+02  0.00000000000E+00 0. -1.
         11    1    3    3    0    0 -0.89255580539E+01  0.26014893116E+01 -0.18484645977E+01  0.94789321572E+01  0.51100000000E-03 0. -1.
        -11    1    3    3    0    0 -0.58940414514E+01  0.78553825468E+01  0.38379869878E+02  0.39616425529E+02  0.51100000000E-03 0.  1.
        -12    1    3    3    0    0 -0.11349117740E+01 -0.77468083167E+00 -0.40835058652E+00  0.14334940974E+01  0.00000000000E+00 0.  1.
</event>
<event>
 7    1  0.6136531E-013  0.5052887E+02  0.7816164E-02  0.1300439E+00
        -11   -1    0    0    0    0  0.00000000000E+00  0.00000000000E+00  0.45593999997E+02  0.45594000000E+02  0.51100000000E-03 0. -1.
         11   -1    0    0    0    0 -0.00000000000E+00 -0.00000000000E+00 -0.45593999997E+02  0.45594000000E+02  0.51100000000E-03 0.  1.
    9900012    2    1    2    0    0  0.37929308910E+02 -0.81050586180E+01 -0.12200020767E+02  0.50528868722E+02  0.30000026966E+02 0.  0.
         12    1    1    2    0    0 -0.37929308910E+02  0.81050586180E+01  0.12200020767E+02  0.40659131278E+02  0.00000000000E+00 0. -1.
         11    1    3    3    0    0  0.15569761163E+01 -0.91978905392E+01 -0.37101277535E+01  0.10039442873E+02  0.51100000000E-03 0. -1.
        -11    1    3    3    0    0  0.37083330068E+02 -0.79361391592E+00 -0.94198811753E+01  0.38269274276E+02  0.51100000000E-03 0.  1.
        -12    1    3    3    0    0 -0.71099727463E+00  0.18864458371E+01  0.92998816195E+00  0.22201515719E+01  0.00000000000E+00 0.  1.
</event>
<event>
 7    1  0.6136531E-013  0.5052885E+02  0.7816164E-02  0.1300439E+00
        -11   -1    0    0    0    0  0.00000000000E+00  0.00000000000E+00  0.45593999997E+02  0.45594000000E+02  0.51100000000E-03 0.  1.
         11   -1    0    0    0    0 -0.00000000000E+00 -0.00000000000E+00 -0.45593999997E+02  0.45594000000E+02  0.51100000000E-03 0. -1.
    9900012    2    1    2    0    0 -0.32756193266E+02  0.19246686944E+02  0.14483196924E+02  0.50528854058E+02  0.29999982395E+02 0.  0.
         12    1    1    2    0    0  0.32756193266E+02 -0.19246686944E+02 -0.14483196924E+02  0.40659145942E+02  0.00000000000E+00 0. -1.
         11    1    3    3    0    0 -0.65950830863E+01  0.11506753373E+02 -0.22833739251E+01  0.13457870962E+02  0.51100000000E-03 0. -1.
        -11    1    3    3    0    0 -0.15661449710E+02 -0.29784274920E+01  0.15128206567E+02  0.21977594763E+02  0.51100000000E-03 0.  1.
        -12    1    3    3    0    0 -0.10499660469E+02  0.10718361063E+02  0.16383642817E+01  0.15093388333E+02  0.00000000000E+00 0.  1.
</event>
<event>
 7    1  0.6136531E-013  0.5052886E+02  0.7816164E-02  0.1300439E+00
        -11   -1    0    0    0    0  0.00000000000E+00  0.00000000000E+00  0.45593999997E+02  0.45594000000E+02  0.51100000000E-03 0. -1.
         11   -1    0    0    0    0 -0.00000000000E+00 -0.00000000000E+00 -0.45593999997E+02  0.45594000000E+02  0.51100000000E-03 0.  1.
    9900012    2    1    2    0    0 -0.22123818963E+01  0.28244088529E+02 -0.29164063604E+02  0.50528858637E+02  0.29999996312E+02 0.  0.
         12    1    1    2    0    0  0.22123818963E+01 -0.28244088529E+02  0.29164063604E+02  0.40659141363E+02  0.00000000000E+00 0. -1.
         11    1    3    3    0    0 -0.38397947579E+00 -0.44397851974E+01 -0.12649450175E+02  0.13411477279E+02  0.51100000000E-03 0. -1.
        -11    1    3    3    0    0 -0.38291734917E+01  0.18299533664E+02 -0.99684727258E+01  0.21187400754E+02  0.51100000000E-03 0.  1.
         12    1    3    3    0    0  0.20007710712E+01  0.14384340062E+02 -0.65461407038E+01  0.15929980603E+02  0.00000000000E+00 0. -1.
</event>
<event>
 7    1  0.6136531E-013  0.5052886E+02  0.7816164E-02  0.1300439E+00
        -11   -1    0    0    0    0  0.00000000000E+00  0.00000000000E+00  0.45593999997E+02  0.45594000000E+02  0.51100000000E-03 0. -1.
         11   -1    0    0    0    0 -0.00000000000E+00 -0.00000000000E+00 -0.45593999997E+02  0.45594000000E+02  0.51100000000E-03 0.  1.
    9900012    2    1    2    0    0 -0.39112098783E+02  0.10778802191E+02  0.26883347750E+01  0.50528855989E+02  0.29999988263E+02 0.  0.
         12    1    1    2    0    0  0.39112098783E+02 -0.10778802191E+02 -0.26883347750E+01  0.40659144011E+02  0.00000000000E+00 0. -1.
         11    1    3    3    0    0  0.43130475743E+01  0.18792397368E+01  0.48962743984E+00  0.47300799843E+01  0.51100000000E-03 0. -1.
        -11    1    3    3    0    0 -0.34136340517E+02  0.20812338642E+01  0.10054489803E+01  0.34214502864E+02  0.51100000000E-03 0.  1.
         12    1    3    3    0    0 -0.92888058398E+01  0.68183285904E+01  0.11932583549E+01  0.11584273141E+02  0.00000000000E+00 0. -1.
</event>
<event>
 7    1  0.6136531E-013  0.5052886E+02  0.7816164E-02  0.1300439E+00
        -11   -1    0    0    0    0  0.00000000000E+00  0.00000000000E+00  0.45593999997E+02  0.45594000000E+02  0.51100000000E-03 0. -1.
         11   -1    0    0    0    0 -0.00000000000E+00 -0.00000000000E+00 -0.45593999997E+02  0.45594000000E+02  0.51100000000E-03 0.  1.
    9900012    2    1    2    0    0 -0.30455407805E+02  0.20304226447E+02 -0.17702322940E+02  0.50528859409E+02  0.29999998658E+02 0.  0.
         12    1    1    2    0    0  0.30455407805E+02 -0.20304226447E+02  0.17702322940E+02  0.40659140591E+02  0.00000000000E+00 0. -1.
         11    1    3    3    0    0 -0.21699944140E+02  0.19881917821E+01 -0.19091360466E+02  0.28971029097E+02  0.51100000000E-03 0. -1.
        -11    1    3    3    0    0 -0.25867227967E+01  0.21676554613E+01 -0.20272797038E+01  0.39369694289E+01  0.51100000000E-03 0.  1.
         12    1    3    3    0    0 -0.61687408676E+01  0.16148379204E+02  0.34163172304E+01  0.17620860882E+02  0.00000000000E+00 0. -1.
</event>
<event>
 7    1  0.6136531E-013  0.5052885E+02  0.7816164E-02  0.1300439E+00
        -11   -1    0    0    0    0  0.00000000000E+00  0.00000000000E+00  0.45593999997E+02  0.45594000000E+02  0.51100000000E-03 0.  1.
         11   -1    0    0    0    0 -0.00000000000E+00 -0.00000000000E+00 -0.45593999997E+02  0.45594000000E+02  0.51100000000E-03 0. -1.
    9900012    2    1    2    0    0  0.16237913477E+02  0.30587432562E+02  0.21305056603E+02  0.50528852177E+02  0.29999976676E+02 0.  0.
         12    1    1    2    0    0 -0.16237913477E+02 -0.30587432562E+02 -0.21305056603E+02  0.40659147823E+02  0.00000000000E+00 0. -1.
         11    1    3    3    0    0  0.39396493809E+01  0.11955854312E+02 -0.21697669792E+01  0.12773847446E+02  0.51100000000E-03 0. -1.
        -11    1    3    3    0    0  0.10083312335E+02  0.18705792122E+02  0.26523197622E+02  0.33986171584E+02  0.51100000000E-03 0.  1.
        -12    1    3    3    0    0  0.22149517613E+01 -0.74213871945E-01 -0.30483740394E+01  0.37688331467E+01  0.00000000000E+00 0.  1.
</event>
<event>
 7    1  0.6136531E-013  0.5052887E+02  0.7816164E-02  0.1300439E+00
        -11   -1    0    0    0    0  0.00000000000E+00  0.00000000000E+00  0.45593999997E+02  0.45594000000E+02  0.51100000000E-03 0.  1.
         11   -1    0    0    0    0 -0.00000000000E+00 -0.00000000000E+00 -0.45593999997E+02  0.45594000000E+02  0.51100000000E-03 0. -1.
    9900012    2    1    2    0    0  0.36297156832E+02  0.16955712181E+02 -0.69415376763E+01  0.50528871689E+02  0.30000035987E+02 0.  0.
         12    1    1    2    0    0 -0.36297156832E+02 -0.16955712181E+02  0.69415376763E+01  0.40659128311E+02  0.00000000000E+00 0. -1.
         11    1    3    3    0    0  0.56780165233E+01  0.69555918900E+01  0.86027071327E+01  0.12434898490E+02  0.51100000000E-03 0. -1.
        -11    1    3    3    0    0  0.27320600122E+02  0.12832154131E+02 -0.15020902931E+02  0.33715084099E+02  0.51100000000E-03 0.  1.
        -12    1    3    3    0    0  0.32985401865E+01 -0.28320338402E+01 -0.52334187832E+00  0.43788891006E+01  0.00000000000E+00 0.  1.
</event>
<event>
 7    1  0.6136531E-013  0.5052885E+02  0.7816164E-02  0.1300439E+00
        -11   -1    0    0    0    0  0.00000000000E+00  0.00000000000E+00  0.45593999997E+02  0.45594000000E+02  0.51100000000E-03 0.  1.
         11   -1    0    0    0    0 -0.00000000000E+00 -0.00000000000E+00 -0.45593999997E+02  0.45594000000E+02  0.51100000000E-03 0. -1.
    9900012    2    1    2    0    0  0.26666103879E+02  0.26150972494E+02  0.16068967787E+02  0.50528853622E+02  0.29999981070E+02 0.  0.
         12    1    1    2    0    0 -0.26666103879E+02 -0.26150972494E+02 -0.16068967787E+02  0.40659146378E+02  0.00000000000E+00 0. -1.
         11    1    3    3    0    0  0.23129513086E+02  0.21302192317E+02  0.34656549484E+00  0.31446428748E+02  0.51100000000E-03 0. -1.
        -11    1    3    3    0    0  0.18875072610E+00  0.51150115995E+01  0.14709479979E+02  0.15574587379E+02  0.51100000000E-03 0.  1.
        -12    1    3    3    0    0  0.33478400665E+01 -0.26623142267E+00  0.10129223135E+01  0.35078374955E+01  0.00000000000E+00 0.  1.
</event>
<event>
 7    1  0.6136531E-013  0.5052886E+02  0.7816164E-02  0.1300439E+00
        -11   -1    0    0    0    0  0.00000000000E+00  0.00000000000E+00  0.45593999997E+02  0.45594000000E+02  0.51100000000E-03 0. -1.
         11   -1    0    0    0    0 -0.00000000000E+00 -0.00000000000E+00 -0.45593999997E+02  0.45594000000E+02  0.51100000000E-03 0.  1.
    9900012    2    1    2    0    0 -0.27968391609E+02 -0.79625018038E+01 -0.28417131513E+02  0.50528859237E+02  0.29999998136E+02 0.  0.
         12    1    1    2    0    0  0.27968391609E+02  0.79625018038E+01  0.28417131513E+02  0.40659140763E+02  0.00000000000E+00 0. -1.
         11    1    3    3    0    0 -0.25242849999E+01 -0.78445006626E+01 -0.11619022416E+01  0.83221525152E+01  0.51100000000E-03 0. -1.
        -11    1    3    3    0    0 -0.20925680015E+02  0.77876722102E+01 -0.23324364378E+02  0.32288665139E+02  0.51100000000E-03 0.  1.
         12    1    3    3    0    0 -0.45184265943E+01 -0.79056733514E+01 -0.39308648935E+01  0.99180415828E+01  0.00000000000E+00 0. -1.
</event>
<event>
 7    1  0.6136531E-013  0.5052895E+02  0.7816164E-02  0.1300438E+00
        -11   -1    0    0    0    0  0.00000000000E+00  0.00000000000E+00  0.45593999997E+02  0.45594000000E+02  0.51100000000E-03 0.  1.
         11   -1    0    0    0    0 -0.00000000000E+00 -0.00000000000E+00 -0.45593999997E+02  0.45594000000E+02  0.51100000000E-03 0. -1.
    9900012    2    1    2    0    0  0.30413421565E+02 -0.23641383992E+02 -0.13010270411E+02  0.50528949537E+02  0.30000272612E+02 0.  0.
         12    1    1    2    0    0 -0.30413421565E+02  0.23641383992E+02  0.13010270411E+02  0.40659050463E+02  0.00000000000E+00 0. -1.
         11    1    3    3    0    0  0.52794166685E+01 -0.10791443036E+01 -0.81678851568E+01  0.97852511967E+01  0.51100000000E-03 0. -1.
        -11    1    3    3    0    0  0.25570536108E+02 -0.26283713213E+02 -0.38769708080E+01  0.36874337961E+02  0.51100000000E-03 0.  1.
        -12    1    3    3    0    0 -0.43653121093E+00  0.37214735251E+01 -0.96541444628E+00  0.38693603798E+01  0.00000000000E+00 0.  1.
</event>
<event>
 7    1  0.6136531E-013  0.5052887E+02  0.7816164E-02  0.1300439E+00
        -11   -1    0    0    0    0  0.00000000000E+00  0.00000000000E+00  0.45593999997E+02  0.45594000000E+02  0.51100000000E-03 0. -1.
         11   -1    0    0    0    0 -0.00000000000E+00 -0.00000000000E+00 -0.45593999997E+02  0.45594000000E+02  0.51100000000E-03 0.  1.
    9900012    2    1    2    0    0  0.38678021589E+02 -0.70877165979E+00 -0.12516928125E+02  0.50528865713E+02  0.30000017821E+02 0.  0.
         12    1    1    2    0    0 -0.38678021589E+02  0.70877165979E+00  0.12516928125E+02  0.40659134287E+02  0.00000000000E+00 0. -1.
         11    1    3    3    0    0  0.64449992423E+01 -0.83816299479E+01  0.27475596889E+00  0.10576635898E+02  0.51100000000E-03 0. -1.
        -11    1    3    3    0    0  0.27285158014E+02  0.70001312455E+01 -0.17439645088E+02  0.33130392487E+02  0.51100000000E-03 0.  1.
         12    1    3    3    0    0  0.49478643322E+01  0.67272704260E+00  0.46479609936E+01  0.68218373274E+01  0.00000000000E+00 0. -1.
</event>
<event>
 7    1  0.6136531E-013  0.5052887E+02  0.7816164E-02  0.1300439E+00
        -11   -1    0    0    0    0  0.00000000000E+00  0.00000000000E+00  0.45593999997E+02  0.45594000000E+02  0.51100000000E-03 0. -1.
         11   -1    0    0    0    0 -0.00000000000E+00 -0.00000000000E+00 -0.45593999997E+02  0.45594000000E+02  0.51100000000E-03 0.  1.
    9900012    2    1    2    0    0  0.22393691108E+02  0.14478667234E+02 -0.30692925221E+02  0.50528869845E+02  0.30000030382E+02 0.  0.
         12    1    1    2    0    0 -0.22393691108E+02 -0.14478667234E+02  0.30692925221E+02  0.40659130155E+02  0.00000000000E+00 0. -1.
         11    1    3    3    0    0  0.32299139968E+00 -0.70572668914E+00  0.41449898801E+01  0.42170267928E+01  0.51100000000E-03 0. -1.
        -11    1    3    3    0    0  0.17824036033E+02  0.16841576005E+02 -0.33584160216E+02  0.41584020495E+02  0.51100000000E-03 0.  1.
         12    1    3    3    0    0  0.42466636754E+01 -0.16571820817E+01 -0.12537548849E+01  0.47278225575E+01  0.00000000000E+00 0. -1.
</event>
<event>
 7    1  0.6136531E-013  0.5052887E+02  0.7816164E-02  0.1300439E+00
        -11   -1    0    0    0    0  0.00000000000E+00  0.00000000000E+00  0.45593999997E+02  0.45594000000E+02  0.51100000000E-03 0. -1.
         11   -1    0    0    0    0 -0.00000000000E+00 -0.00000000000E+00 -0.45593999997E+02  0.45594000000E+02  0.51100000000E-03 0.  1.
    9900012    2    1    2    0    0 -0.29274851603E+02  0.27217877499E+02 -0.74387404251E+01  0.50528872476E+02  0.30000038378E+02 0.  0.
         12    1    1    2    0    0  0.29274851603E+02 -0.27217877499E+02  0.74387404251E+01  0.40659127524E+02  0.00000000000E+00 0. -1.
         11    1    3    3    0    0  0.24239465588E+01  0.75908372538E+01  0.16633534233E+01  0.81402132654E+01  0.51100000000E-03 0. -1.
        -11    1    3    3    0    0 -0.21901606296E+02  0.21813656612E+02 -0.95126609003E+01  0.32342026696E+02  0.51100000000E-03 0.  1.
         12    1    3    3    0    0 -0.97971918649E+01 -0.21866163670E+01  0.41056705203E+00  0.10046632514E+02  0.00000000000E+00 0. -1.
</event>
<event>
 7    1  0.6136531E-013  0.5052885E+02  0.7816164E-02  0.1300439E+00
        -11   -1    0    0    0    0  0.00000000000E+00  0.00000000000E+00  0.45593999997E+02  0.45594000000E+02  0.51100000000E-03 0. -1.
         11   -1    0    0    0    0 -0.00000000000E+00 -0.00000000000E+00 -0.45593999997E+02  0.45594000000E+02  0.51100000000E-03 0.  1.
    9900012    2    1    2    0    0 -0.11822448477E+02 -0.34881005567E+02 -0.17225331126E+02  0.50528845191E+02  0.29999955442E+02 0.  0.
         12    1    1    2    0    0  0.11822448477E+02  0.34881005567E+02  0.17225331126E+02  0.40659154809E+02  0.00000000000E+00 0. -1.
         11    1    3    3    0    0 -0.11776916979E+02 -0.32721776173E+02 -0.22178127056E+02  0.41246572335E+02  0.51100000000E-03 0. -1.
        -11    1    3    3    0    0  0.23340155637E+01  0.19250058886E+00 -0.92584054616E+00  0.25183061979E+01  0.51100000000E-03 0.  1.
         12    1    3    3    0    0 -0.23795470611E+01 -0.23517299837E+01  0.58786364758E+01  0.67639666578E+01  0.00000000000E+00 0. -1.
</event>
<event>
 7    1  0.6136531E-013  0.5052886E+02  0.7816164E-02  0.1300439E+00
        -11   -1    0    0    0    0  0.00000000000E+00  0.00000000000E+00  0.45593999997E+02  0.45594000000E+02  0.51100000000E-03 0.  1.
         11   -1    0    0    0    0 -0.00000000000E+00 -0.00000000000E+00 -0.45593999997E+02  0.45594000000E+02  0.51100000000E-03 0. -1.
    9900012    2    1    2    0    0  0.29857446461E+02  0.27225170194E+02 -0.45264625745E+01  0.50528857551E+02  0.29999993013E+02 0.  0.
         12    1    1    2    0    0 -0.29857446461E+02 -0.27225170194E+02  0.45264625745E+01  0.40659142449E+02  0.00000000000E+00 0. -1.
         11    1    3    3    0    0 -0.38928784944E+01 -0.99215077324E+00  0.56058925737E+00  0.40562453951E+01  0.51100000000E-03 0. -1.
        -11    1    3    3    0    0  0.10859568480E+02  0.17778387414E+02 -0.44674652197E+01  0.21306326111E+02  0.51100000000E-03 0.  1.
         12    1    3    3    0    0  0.22890756475E+02  0.10438933553E+02 -0.61958661215E+00  0.25166286045E+02  0.00000000000E+00 0. -1.
</event>
<event>
 7    1  0.6136531E-013  0.5052886E+02  0.7816164E-02  0.1300439E+00
        -11   -1    0    0    0    0  0.00000000000E+00  0.00000000000E+00  0.45593999997E+02  0.45594000000E+02  0.51100000000E-03 0.  1.
         11   -1    0    0    0    0 -0.00000000000E+00 -0.00000000000E+00 -0.45593999997E+02  0.45594000000E+02  0.51100000000E-03 0. -1.
    9900012    2    1    2    0    0  0.31943431551E+00  0.32414446270E+02  0.24543173278E+02  0.50528859333E+02  0.29999998427E+02 0.  0.
         12    1    1    2    0    0 -0.31943431551E+00 -0.32414446270E+02 -0.24543173278E+02  0.40659140667E+02  0.00000000000E+00 0. -1.
         11    1    3    3    0    0 -0.97515827897E+01  0.20392572934E+02  0.19083802756E+02  0.29582797799E+02  0.51100000000E-03 0. -1.
        -11    1    3    3    0    0  0.89303259602E+01  0.10874701707E+02  0.92398143564E+01  0.16834014036E+02  0.51100000000E-03 0.  1.
         12    1    3    3    0    0  0.11406911450E+01  0.11471716291E+01 -0.37804438341E+01  0.41120474970E+01  0.00000000000E+00 0. -1.
</event>
<event>
 7    1  0.6136531E-013  0.5052886E+02  0.7816164E-02  0.1300439E+00
        -11   -1    0    0    0    0  0.00000000000E+00  0.00000000000E+00  0.45593999997E+02  0.45594000000E+02  0.51100000000E-03 0. -1.
         11   -1    0    0    0    0 -0.00000000000E+00 -0.00000000000E+00 -0.45593999997E+02  0.45594000000E+02  0.51100000000E-03 0.  1.
    9900012    2    1    2    0    0  0.16077810094E+02  0.32460271799E+02  0.18466203374E+02  0.50528857243E+02  0.29999992076E+02 0.  0.
         12    1    1    2    0    0 -0.16077810094E+02 -0.32460271799E+02 -0.18466203374E+02  0.40659142757E+02  0.00000000000E+00 0. -1.
         11    1    3    3    0    0 -0.41704597537E+01 -0.36962634138E+00  0.41293975724E+01  0.58805852398E+01  0.51100000000E-03 0. -1.
        -11    1    3    3    0    0  0.18893774394E+02  0.21761402369E+02  0.16616991985E+02  0.33266466101E+02  0.51100000000E-03 0.  1.
         12    1    3    3    0    0  0.13544954539E+01  0.11068495771E+02 -0.22801861839E+01  0.11381805903E+02  0.00000000000E+00 0. -1.
</event>
<event>
 7    1  0.6136531E-013  0.5052884E+02  0.7816164E-02  0.1300439E+00
        -11   -1    0    0    0    0  0.00000000000E+00  0.00000000000E+00  0.45593999997E+02  0.45594000000E+02  0.51100000000E-03 0. -1.
         11   -1    0    0    0    0 -0.00000000000E+00 -0.00000000000E+00 -0.45593999997E+02  0.45594000000E+02  0.51100000000E-03 0.  1.
    9900012    2    1    2    0    0 -0.19619530967E+02  0.34774314651E+02 -0.76803769074E+01  0.50528841816E+02  0.29999945184E+02 0.  0.
         12    1    1    2    0    0  0.19619530967E+02 -0.34774314651E+02  0.76803769074E+01  0.40659158184E+02  0.00000000000E+00 0. -1.
         11    1    3    3    0    0 -0.50235615993E+01  0.13007342157E+01  0.74871051356E+01  0.91096006617E+01  0.51100000000E-03 0. -1.
        -11    1    3    3    0    0 -0.10464143322E+02  0.26016452934E+02 -0.55840299607E+01  0.28592577876E+02  0.51100000000E-03 0.  1.
        -12    1    3    3    0    0 -0.41318260457E+01  0.74571275012E+01 -0.95834520824E+01  0.12826663278E+02  0.00000000000E+00 0.  1.
</event>
<event>
 7    1  0.6136531E-013  0.5052886E+02  0.7816164E-02  0.1300439E+00
        -11   -1    0    0    0    0  0.00000000000E+00  0.00000000000E+00  0.45593999997E+02  0.45594000000E+02  0.51100000000E-03 0.  1.
         11   -1    0    0    0    0 -0.00000000000E+00 -0.00000000000E+00 -0.45593999997E+02  0.45594000000E+02  0.51100000000E-03 0. -1.
    9900012    2    1    2    0    0  0.21921613005E+02 -0.15300864201E+02  0.30634820708E+02  0.50528858324E+02  0.29999995363E+02 0.  0.
         12    1    1    2    0    0 -0.21921613005E+02  0.15300864201E+02 -0.30634820708E+02  0.40659141676E+02  0.00000000000E+00 0. -1.
         11    1    3    3    0    0  0.20671208283E+01  0.48073495703E+00 -0.33352378353E+01  0.39532146788E+01  0.51100000000E-03 0. -1.
        -11    1    3    3    0    0  0.15481950740E+02 -0.17579369027E+02  0.16957864322E+02  0.28918751299E+02  0.51100000000E-03 0.  1.
        -12    1    3    3    0    0  0.43725414364E+01  0.17977698690E+01  0.17012194221E+02  0.17656892346E+02  0.00000000000E+00 0.  1.
</event>
<event>
 7    1  0.6136531E-013  0.5052886E+02  0.7816164E-02  0.1300439E+00
        -11   -1    0    0    0    0  0.00000000000E+00  0.00000000000E+00  0.45593999997E+02  0.45594000000E+02  0.51100000000E-03 0. -1.
         11   -1    0    0    0    0 -0.00000000000E+00 -0.00000000000E+00 -0.45593999997E+02  0.45594000000E+02  0.51100000000E-03 0.  1.
    9900012    2    1    2    0    0 -0.37635698030E+02 -0.13593359480E+02  0.72069855323E+01  0.50528857994E+02  0.29999994360E+02 0.  0.
         12    1    1    2    0    0  0.37635698030E+02  0.13593359480E+02 -0.72069855323E+01  0.40659142006E+02  0.00000000000E+00 0. -1.
         11    1    3    3    0    0 -0.29225056262E+01  0.23571302677E+01 -0.57140284263E+01  0.68371941140E+01  0.51100000000E-03 0. -1.
        -11    1    3    3    0    0 -0.14444480056E+02 -0.15654499198E+02  0.46726563622E+01  0.21806881184E+02  0.51100000000E-03 0.  1.
         12    1    3    3    0    0 -0.20268712348E+02 -0.29599055001E+00  0.82483575964E+01  0.21884782697E+02  0.00000000000E+00 0. -1.
</event>
<event>
 7    1  0.6136531E-013  0.5052886E+02  0.7816164E-02  0.1300439E+00
        -11   -1    0    0    0    0  0.00000000000E+00  0.00000000000E+00  0.45593999997E+02  0.45594000000E+02  0.51100000000E-03 0.  1.
         11   -1    0    0    0    0 -0.00000000000E+00 -0.00000000000E+00 -0.45593999997E+02  0.45594000000E+02  0.51100000000E-03 0. -1.
    9900012    2    1    2    0    0  0.19358607115E+01 -0.26078032944E+02  0.31134453567E+02  0.50528861324E+02  0.30000004481E+02 0.  0.
         12    1    1    2    0    0 -0.19358607115E+01  0.26078032944E+02 -0.31134453567E+02  0.40659138676E+02  0.00000000000E+00 0. -1.
         11    1    3    3    0    0  0.11488739506E+01 -0.12212781497E+02  0.26191773597E+02  0.28921980356E+02  0.51100000000E-03 0.  1.
        -11    1    3    3    0    0  0.18316638435E+01 -0.17129214376E+02  0.56062640523E+01  0.18116157828E+02  0.51100000000E-03 0. -1.
        -12    1    3    3    0    0 -0.10446770826E+01  0.32639629290E+01 -0.66358408213E+00  0.34907231404E+01  0.00000000000E+00 0.  1.
</event>
<event>
 7    1  0.6136531E-013  0.5052887E+02  0.7816164E-02  0.1300439E+00
        -11   -1    0    0    0    0  0.00000000000E+00  0.00000000000E+00  0.45593999997E+02  0.45594000000E+02  0.51100000000E-03 0.  1.
         11   -1    0    0    0    0 -0.00000000000E+00 -0.00000000000E+00 -0.45593999997E+02  0.45594000000E+02  0.51100000000E-03 0. -1.
    9900012    2    1    2    0    0 -0.37565951486E+02 -0.94875082801E+01 -0.12326850779E+02  0.50528870957E+02  0.30000033761E+02 0.  0.
         12    1    1    2    0    0  0.37565951486E+02  0.94875082801E+01  0.12326850779E+02  0.40659129043E+02  0.00000000000E+00 0. -1.
         11    1    3    3    0    0 -0.14388645029E+02 -0.75678528414E+01 -0.17676521951E+02  0.24015930774E+02  0.51100000000E-03 0. -1.
        -11    1    3    3    0    0 -0.15547105924E+02  0.13142852804E+01 -0.16174375249E+01  0.15686170750E+02  0.51100000000E-03 0.  1.
         12    1    3    3    0    0 -0.76302005329E+01 -0.32339407191E+01  0.69671086971E+01  0.10826769432E+02  0.00000000000E+00 0. -1.
</event>
<event>
 7    1  0.6136531E-013  0.5052883E+02  0.7816164E-02  0.1300439E+00
        -11   -1    0    0    0    0  0.00000000000E+00  0.00000000000E+00  0.45593999997E+02  0.45594000000E+02  0.51100000000E-03 0. -1.
         11   -1    0    0    0    0 -0.00000000000E+00 -0.00000000000E+00 -0.45593999997E+02  0.45594000000E+02  0.51100000000E-03 0.  1.
    9900012    2    1    2    0    0 -0.18644778084E+02  0.64470458478E+01 -0.35552438933E+02  0.50528830505E+02  0.29999910802E+02 0.  0.
         12    1    1    2    0    0  0.18644778084E+02 -0.64470458478E+01  0.35552438933E+02  0.40659169495E+02  0.00000000000E+00 0. -1.
         11    1    3    3    0    0 -0.15434151685E+02 -0.15835129211E+01 -0.88316401942E+01  0.17852686638E+02  0.51100000000E-03 0. -1.
        -11    1    3    3    0    0  0.33939664631E+01  0.13032133697E+01 -0.21685625181E+02  0.21988263079E+02  0.51100000000E-03 0.  1.
        -12    1    3    3    0    0 -0.66045928620E+01  0.67273453993E+01 -0.50351735571E+01  0.10687880788E+02  0.00000000000E+00 0.  1.
</event>
<event>
 7    1  0.6136531E-013  0.5052891E+02  0.7816164E-02  0.1300439E+00
        -11   -1    0    0    0    0  0.00000000000E+00  0.00000000000E+00  0.45593999997E+02  0.45594000000E+02  0.51100000000E-03 0.  1.
         11   -1    0    0    0    0 -0.00000000000E+00 -0.00000000000E+00 -0.45593999997E+02  0.45594000000E+02  0.51100000000E-03 0. -1.
    9900012    2    1    2    0    0 -0.34691590541E+02 -0.10658167073E+02  0.18331911058E+02  0.50528905782E+02  0.30000139615E+02 0.  0.
         12    1    1    2    0    0  0.34691590541E+02  0.10658167073E+02 -0.18331911058E+02  0.40659094218E+02  0.00000000000E+00 0. -1.
         11    1    3    3    0    0 -0.77507265208E+01  0.76039902309E+01 -0.15773945503E+01  0.10971900604E+02  0.51100000000E-03 0. -1.
        -11    1    3    3    0    0 -0.22628740222E+02 -0.16095868765E+02  0.20741034987E+02  0.34660170339E+02  0.51100000000E-03 0.  1.
        -12    1    3    3    0    0 -0.43121237978E+01 -0.21662885394E+01 -0.83172937878E+00  0.48968348392E+01  0.00000000000E+00 0.  1.
</event>
<event>
 7    1  0.6136531E-013  0.5052883E+02  0.7816164E-02  0.1300439E+00
        -11   -1    0    0    0    0  0.00000000000E+00  0.00000000000E+00  0.45593999997E+02  0.45594000000E+02  0.51100000000E-03 0.  1.
         11   -1    0    0    0    0 -0.00000000000E+00 -0.00000000000E+00 -0.45593999997E+02  0.45594000000E+02  0.51100000000E-03 0. -1.
    9900012    2    1    2    0    0 -0.13451385012E+02 -0.20573026407E+02  0.32387940126E+02  0.50528833261E+02  0.29999919181E+02 0.  0.
         12    1    1    2    0    0  0.13451385012E+02  0.20573026407E+02 -0.32387940126E+02  0.40659166739E+02  0.00000000000E+00 0. -1.
         11    1    3    3    0    0  0.26266042894E+01 -0.36957696124E+01 -0.33295160341E+01  0.56252502525E+01  0.51100000000E-03 0. -1.
        -11    1    3    3    0    0 -0.44150001669E+01 -0.77255762352E+01  0.25205393336E+02  0.26729919717E+02  0.51100000000E-03 0.  1.
         12    1    3    3    0    0 -0.11662989134E+02 -0.91516805595E+01  0.10512062824E+02  0.18173663291E+02  0.00000000000E+00 0. -1.
</event>
<event>
 7    1  0.6136531E-013  0.5052887E+02  0.7816164E-02  0.1300439E+00
        -11   -1    0    0    0    0  0.00000000000E+00  0.00000000000E+00  0.45593999997E+02  0.45594000000E+02  0.51100000000E-03 0.  1.
         11   -1    0    0    0    0 -0.00000000000E+00 -0.00000000000E+00 -0.45593999997E+02  0.45594000000E+02  0.51100000000E-03 0. -1.
    9900012    2    1    2    0    0 -0.97709395273E+01  0.15758132728E+00  0.39467315914E+02  0.50528866751E+02  0.30000020976E+02 0.  0.
         12    1    1    2    0    0  0.97709395273E+01 -0.15758132728E+00 -0.39467315914E+02  0.40659133249E+02  0.00000000000E+00 0. -1.
         11    1    3    3    0    0  0.17318563220E+01 -0.21205375644E+01  0.24723915250E+02  0.24875047566E+02  0.51100000000E-03 0.  1.
        -11    1    3    3    0    0 -0.62954773683E+01  0.96595316306E+01  0.10797065332E+02  0.15796082004E+02  0.51100000000E-03 0. -1.
         12    1    3    3    0    0 -0.52073184810E+01 -0.73814127389E+01  0.39463353321E+01  0.98577371814E+01  0.00000000000E+00 0. -1.
</event>
<event>
 7    1  0.6136531E-013  0.5052887E+02  0.7816164E-02  0.1300439E+00
        -11   -1    0    0    0    0  0.00000000000E+00  0.00000000000E+00  0.45593999997E+02  0.45594000000E+02  0.51100000000E-03 0.  1.
         11   -1    0    0    0    0 -0.00000000000E+00 -0.00000000000E+00 -0.45593999997E+02  0.45594000000E+02  0.51100000000E-03 0. -1.
    9900012    2    1    2    0    0 -0.36207869441E+02  0.15425724286E+02  0.10207954762E+02  0.50528866713E+02  0.30000020861E+02 0.  0.
         12    1    1    2    0    0  0.36207869441E+02 -0.15425724286E+02 -0.10207954762E+02  0.40659133287E+02  0.00000000000E+00 0. -1.
         11    1    3    3    0    0 -0.86862317363E+01  0.70931130640E+01 -0.72347543535E+01  0.13345581498E+02  0.51100000000E-03 0. -1.
        -11    1    3    3    0    0 -0.50050208908E+01  0.55828958004E+01  0.11509369654E+02  0.13736249478E+02  0.51100000000E-03 0.  1.
        -12    1    3    3    0    0 -0.22516616814E+02  0.27497154218E+01  0.59333394612E+01  0.23447035736E+02  0.00000000000E+00 0.  1.
</event>
<event>
 7    1  0.6136531E-013  0.5052896E+02  0.7816164E-02  0.1300438E+00
        -11   -1    0    0    0    0  0.00000000000E+00  0.00000000000E+00  0.45593999997E+02  0.45594000000E+02  0.51100000000E-03 0. -1.
         11   -1    0    0    0    0 -0.00000000000E+00 -0.00000000000E+00 -0.45593999997E+02  0.45594000000E+02  0.51100000000E-03 0.  1.
    9900012    2    1    2    0    0  0.30854576861E+02  0.26442444537E+02  0.13963972159E+01  0.50528957813E+02  0.30000297768E+02 0.  0.
         12    1    1    2    0    0 -0.30854576861E+02 -0.26442444537E+02 -0.13963972159E+01  0.40659042187E+02  0.00000000000E+00 0. -1.
         11    1    3    3    0    0  0.96279954974E+01  0.51905193322E+01  0.77624972617E+01  0.13412537129E+02  0.51100000000E-03 0. -1.
        -11    1    3    3    0    0  0.24192734688E+02  0.19129504465E+02 -0.95376865925E+01  0.32283026787E+02  0.51100000000E-03 0.  1.
        -12    1    3    3    0    0 -0.29661533244E+01  0.21224207405E+01  0.31715865467E+01  0.48333938974E+01  0.00000000000E+00 0.  1.
</event>
<event>
 7    1  0.6136531E-013  0.5052886E+02  0.7816164E-02  0.1300439E+00
        -11   -1    0    0    0    0  0.00000000000E+00  0.00000000000E+00  0.45593999997E+02  0.45594000000E+02  0.51100000000E-03 0.  1.
         11   -1    0    0    0    0 -0.00000000000E+00 -0.00000000000E+00 -0.45593999997E+02  0.45594000000E+02  0.51100000000E-03 0. -1.
    9900012    2    1    2    0    0  0.32132489900E+02 -0.14285879301E+02  0.20410353835E+02  0.50528858368E+02  0.29999995495E+02 0.  0.
         12    1    1    2    0    0 -0.32132489900E+02  0.14285879301E+02 -0.20410353835E+02  0.40659141632E+02  0.00000000000E+00 0. -1.
         11    1    3    3    0    0  0.18838754272E+02 -0.19750903074E+00 -0.51652064812E+00  0.18846868869E+02  0.51100000000E-03 0. -1.
        -11    1    3    3    0    0  0.69097233479E+01 -0.12053300384E+02  0.56463494976E+01  0.14996919344E+02  0.51100000000E-03 0.  1.
        -12    1    3    3    0    0  0.63840122800E+01 -0.20350698863E+01  0.15280524985E+02  0.16685070154E+02  0.00000000000E+00 0.  1.
</event>
<event>
 7    1  0.6136531E-013  0.5052886E+02  0.7816164E-02  0.1300439E+00
        -11   -1    0    0    0    0  0.00000000000E+00  0.00000000000E+00  0.45593999997E+02  0.45594000000E+02  0.51100000000E-03 0.  1.
         11   -1    0    0    0    0 -0.00000000000E+00 -0.00000000000E+00 -0.45593999997E+02  0.45594000000E+02  0.51100000000E-03 0. -1.
    9900012    2    1    2    0    0 -0.15702336366E+02  0.61216609928E+00  0.37499696674E+02  0.50528863692E+02  0.30000011677E+02 0.  0.
         12    1    1    2    0    0  0.15702336366E+02 -0.61216609928E+00 -0.37499696674E+02  0.40659136308E+02  0.00000000000E+00 0. -1.
         11    1    3    3    0    0 -0.68149622580E+01  0.47939229275E+01 -0.14455030452E+01  0.84566474993E+01  0.51100000000E-03 0. -1.
        -11    1    3    3    0    0 -0.26537326962E+01 -0.59487512288E+01  0.31657735926E+02  0.32320924842E+02  0.51100000000E-03 0.  1.
         12    1    3    3    0    0 -0.62336414120E+01  0.17669944006E+01  0.72874637927E+01  0.97512913501E+01  0.00000000000E+00 0. -1.
</event>
<event>
 7    1  0.6136531E-013  0.5052887E+02  0.7816164E-02  0.1300439E+00
        -11   -1    0    0    0    0  0.00000000000E+00  0.00000000000E+00  0.45593999997E+02  0.45594000000E+02  0.51100000000E-03 0.  1.
         11   -1    0    0    0    0 -0.00000000000E+00 -0.00000000000E+00 -0.45593999997E+02  0.45594000000E+02  0.51100000000E-03 0. -1.
    9900012    2    1    2    0    0 -0.51885309156E+01  0.28999948798E+02  0.28022261788E+02  0.50528867705E+02  0.30000023875E+02 0.  0.
         12    1    1    2    0    0  0.51885309156E+01 -0.28999948798E+02 -0.28022261788E+02  0.40659132295E+02  0.00000000000E+00 0. -1.
         11    1    3    3    0    0 -0.54470055462E+01  0.54189355340E+01 -0.20389496490E+01  0.79493425938E+01  0.51100000000E-03 0. -1.
        -11    1    3    3    0    0 -0.51241133299E+00  0.38447479265E+01  0.20076778666E+02  0.20448024204E+02  0.51100000000E-03 0.  1.
        -12    1    3    3    0    0  0.77088596355E+00  0.19736265337E+02  0.99844327708E+01  0.22131500907E+02  0.00000000000E+00 0.  1.
</event>
<event>
 7    1  0.6136531E-013  0.5052887E+02  0.7816164E-02  0.1300439E+00
        -11   -1    0    0    0    0  0.00000000000E+00  0.00000000000E+00  0.45593999997E+02  0.45594000000E+02  0.51100000000E-03 0. -1.
         11   -1    0    0    0    0 -0.00000000000E+00 -0.00000000000E+00 -0.45593999997E+02  0.45594000000E+02  0.51100000000E-03 0.  1.
    9900012    2    1    2    0    0  0.85290722818E+01  0.90899631447E+01 -0.38701325010E+02  0.50528867429E+02  0.30000023036E+02 0.  0.
         12    1    1    2    0    0 -0.85290722818E+01 -0.90899631447E+01  0.38701325010E+02  0.40659132571E+02  0.00000000000E+00 0. -1.
         11    1    3    3    0    0  0.68635853448E+01  0.28194840235E+01 -0.21139326699E+02  0.22403781544E+02  0.51100000000E-03 0.  1.
        -11    1    3    3    0    0 -0.94539550743E+01  0.57114309202E+00 -0.73885152912E+01  0.12012228330E+02  0.51100000000E-03 0. -1.
        -12    1    3    3    0    0  0.11119442011E+02  0.56993360291E+01 -0.10173483020E+02  0.16112857554E+02  0.00000000000E+00 0.  1.
</event>
<event>
 7    1  0.6136531E-013  0.5052887E+02  0.7816164E-02  0.1300439E+00
        -11   -1    0    0    0    0  0.00000000000E+00  0.00000000000E+00  0.45593999997E+02  0.45594000000E+02  0.51100000000E-03 0. -1.
         11   -1    0    0    0    0 -0.00000000000E+00 -0.00000000000E+00 -0.45593999997E+02  0.45594000000E+02  0.51100000000E-03 0.  1.
    9900012    2    1    2    0    0 -0.17854771924E+02 -0.36505203425E+02 -0.13197654437E+01  0.50528873861E+02  0.30000042589E+02 0.  0.
         12    1    1    2    0    0  0.17854771924E+02  0.36505203425E+02  0.13197654437E+01  0.40659126139E+02  0.00000000000E+00 0. -1.
         11    1    3    3    0    0 -0.30026273894E+00 -0.42334189830E+00  0.43077484660E+01  0.43389023016E+01  0.51100000000E-03 0. -1.
        -11    1    3    3    0    0 -0.89075688457E+01 -0.28379920565E+02 -0.13000826374E+02  0.32462072649E+02  0.51100000000E-03 0.  1.
        -12    1    3    3    0    0 -0.86469403392E+01 -0.77019409611E+01  0.73733124643E+01  0.13727898910E+02  0.00000000000E+00 0.  1.
</event>
<event>
 7    1  0.6136531E-013  0.5052886E+02  0.7816164E-02  0.1300439E+00
        -11   -1    0    0    0    0  0.00000000000E+00  0.00000000000E+00  0.45593999997E+02  0.45594000000E+02  0.51100000000E-03 0. -1.
         11   -1    0    0    0    0 -0.00000000000E+00 -0.00000000000E+00 -0.45593999997E+02  0.45594000000E+02  0.51100000000E-03 0.  1.
    9900012    2    1    2    0    0  0.55792244893E+01  0.14569731582E+02 -0.37546783383E+02  0.50528858756E+02  0.29999996676E+02 0.  0.
         12    1    1    2    0    0 -0.55792244893E+01 -0.14569731582E+02  0.37546783383E+02  0.40659141244E+02  0.00000000000E+00 0. -1.
         11    1    3    3    0    0  0.11421421694E+02  0.20855172305E+01 -0.18540439594E+02  0.21875697846E+02  0.51100000000E-03 0. -1.
        -11    1    3    3    0    0  0.91269613053E+00  0.12318562926E+02 -0.54398429726E+01  0.13497107046E+02  0.51100000000E-03 0.  1.
         12    1    3    3    0    0 -0.67548933349E+01  0.16565142583E+00 -0.13566500816E+02  0.15156053865E+02  0.00000000000E+00 0. -1.
</event>
<event>
 7    1  0.6136531E-013  0.5052886E+02  0.7816164E-02  0.1300439E+00
        -11   -1    0    0    0    0  0.00000000000E+00  0.00000000000E+00  0.45593999997E+02  0.45594000000E+02  0.51100000000E-03 0.  1.
         11   -1    0    0    0    0 -0.00000000000E+00 -0.00000000000E+00 -0.45593999997E+02  0.45594000000E+02  0.51100000000E-03 0. -1.
    9900012    2    1    2    0    0  0.66863607385E+01  0.26465356799E+02  0.30133755780E+02  0.50528858742E+02  0.29999996632E+02 0.  0.
         12    1    1    2    0    0 -0.66863607385E+01 -0.26465356799E+02 -0.30133755780E+02  0.40659141258E+02  0.00000000000E+00 0. -1.
         11    1    3    3    0    0  0.33813440416E+01  0.28459430935E+02  0.28677391865E+02  0.40543378018E+02  0.51100000000E-03 0. -1.
        -11    1    3    3    0    0  0.48774172730E+00  0.28297567251E+01  0.30373306839E+01  0.41798077779E+01  0.51100000000E-03 0.  1.
         12    1    3    3    0    0  0.28172749696E+01 -0.48238308608E+01 -0.15809667691E+01  0.58056729457E+01  0.00000000000E+00 0. -1.
</event>
<event>
 7    1  0.6136531E-013  0.5052886E+02  0.7816164E-02  0.1300439E+00
        -11   -1    0    0    0    0  0.00000000000E+00  0.00000000000E+00  0.45593999997E+02  0.45594000000E+02  0.51100000000E-03 0.  1.
         11   -1    0    0    0    0 -0.00000000000E+00 -0.00000000000E+00 -0.45593999997E+02  0.45594000000E+02  0.51100000000E-03 0. -1.
    9900012    2    1    2    0    0 -0.30879203825E+02  0.17916617500E+02  0.19458559616E+02  0.50528856454E+02  0.29999989679E+02 0.  0.
         12    1    1    2    0    0  0.30879203825E+02 -0.17916617500E+02 -0.19458559616E+02  0.40659143546E+02  0.00000000000E+00 0. -1.
         11    1    3    3    0    0 -0.13724605670E+01  0.82438933250E+01  0.33430312403E+01  0.90011823277E+01  0.51100000000E-03 0. -1.
        -11    1    3    3    0    0 -0.32057405914E+02  0.66744532594E+01  0.17772123025E+02  0.37256864567E+02  0.51100000000E-03 0.  1.
        -12    1    3    3    0    0  0.25506626559E+01  0.29982709157E+01 -0.16565946490E+01  0.42708095602E+01  0.00000000000E+00 0.  1.
</event>
<event>
 7    1  0.6136531E-013  0.5052886E+02  0.7816164E-02  0.1300439E+00
        -11   -1    0    0    0    0  0.00000000000E+00  0.00000000000E+00  0.45593999997E+02  0.45594000000E+02  0.51100000000E-03 0.  1.
         11   -1    0    0    0    0 -0.00000000000E+00 -0.00000000000E+00 -0.45593999997E+02  0.45594000000E+02  0.51100000000E-03 0. -1.
    9900012    2    1    2    0    0  0.32807766593E+02 -0.19550397296E+02  0.13949841167E+02  0.50528860168E+02  0.30000000968E+02 0.  0.
         12    1    1    2    0    0 -0.32807766593E+02  0.19550397296E+02 -0.13949841167E+02  0.40659139832E+02  0.00000000000E+00 0. -1.
         11    1    3    3    0    0  0.31062201323E+02 -0.52351709288E+01  0.17552848200E+01  0.31549142473E+02  0.51100000000E-03 0. -1.
        -11    1    3    3    0    0  0.17888650026E+01 -0.68936551102E+01  0.59299263648E+01  0.92674994323E+01  0.51100000000E-03 0.  1.
         12    1    3    3    0    0 -0.43299732536E-01 -0.74215712567E+01  0.62646299823E+01  0.97122182636E+01  0.00000000000E+00 0. -1.
</event>
<event>
 7    1  0.6136531E-013  0.5052887E+02  0.7816164E-02  0.1300439E+00
        -11   -1    0    0    0    0  0.00000000000E+00  0.00000000000E+00  0.45593999997E+02  0.45594000000E+02  0.51100000000E-03 0. -1.
         11   -1    0    0    0    0 -0.00000000000E+00 -0.00000000000E+00 -0.45593999997E+02  0.45594000000E+02  0.51100000000E-03 0.  1.
    9900012    2    1    2    0    0 -0.28807683481E+02  0.26701228734E+02 -0.10503636531E+02  0.50528872811E+02  0.30000039396E+02 0.  0.
         12    1    1    2    0    0  0.28807683481E+02 -0.26701228734E+02  0.10503636531E+02  0.40659127189E+02  0.00000000000E+00 0. -1.
         11    1    3    3    0    0 -0.31733078052E+02  0.17398324919E+02 -0.53363267041E+01  0.36580955914E+02  0.51100000000E-03 0.  1.
        -11    1    3    3    0    0  0.49672752833E+01  0.84872981000E+01 -0.19097356128E+01  0.10017741420E+02  0.51100000000E-03 0. -1.
         12    1    3    3    0    0 -0.20418807119E+01  0.81560571508E+00 -0.32575742137E+01  0.39301754772E+01  0.00000000000E+00 0. -1.
</event>
<event>
 7    1  0.6136531E-013  0.5052886E+02  0.7816164E-02  0.1300439E+00
        -11   -1    0    0    0    0  0.00000000000E+00  0.00000000000E+00  0.45593999997E+02  0.45594000000E+02  0.51100000000E-03 0.  1.
         11   -1    0    0    0    0 -0.00000000000E+00 -0.00000000000E+00 -0.45593999997E+02  0.45594000000E+02  0.51100000000E-03 0. -1.
    9900012    2    1    2    0    0  0.34561673329E+02 -0.10905509098E+02  0.18431672903E+02  0.50528856404E+02  0.29999989525E+02 0.  0.
         12    1    1    2    0    0 -0.34561673329E+02  0.10905509098E+02 -0.18431672903E+02  0.40659143596E+02  0.00000000000E+00 0. -1.
         11    1    3    3    0    0  0.16922247790E+02 -0.11597484506E+01 -0.25467844219E+01  0.17152072699E+02  0.51100000000E-03 0. -1.
        -11    1    3    3    0    0  0.20648571609E+02 -0.68440409859E+01  0.18135153865E+02  0.28321161920E+02  0.51100000000E-03 0.  1.
         12    1    3    3    0    0 -0.30091460701E+01 -0.29017196611E+01  0.28433034596E+01  0.50556217844E+01  0.00000000000E+00 0. -1.
</event>
<event>
 7    1  0.6136531E-013  0.5052887E+02  0.7816164E-02  0.1300439E+00
        -11   -1    0    0    0    0  0.00000000000E+00  0.00000000000E+00  0.45593999997E+02  0.45594000000E+02  0.51100000000E-03 0.  1.
         11   -1    0    0    0    0 -0.00000000000E+00 -0.00000000000E+00 -0.45593999997E+02  0.45594000000E+02  0.51100000000E-03 0. -1.
    9900012    2    1    2    0    0  0.38721662031E+02 -0.95334152180E+01  0.79316686958E+01  0.50528874524E+02  0.30000044604E+02 0.  0.
         12    1    1    2    0    0 -0.38721662031E+02  0.95334152180E+01 -0.79316686958E+01  0.40659125476E+02  0.00000000000E+00 0. -1.
         11    1    3    3    0    0  0.20576781981E+02  0.36585638485E+01  0.33861917579E+01  0.21172041493E+02  0.51100000000E-03 0. -1.
        -11    1    3    3    0    0  0.70137788854E+01 -0.90583940491E+01  0.10965571806E+02  0.15858479192E+02  0.51100000000E-03 0.  1.
         12    1    3    3    0    0  0.11131101165E+02 -0.41335850174E+01 -0.64200948679E+01  0.13498353839E+02  0.00000000000E+00 0. -1.
</event>
<event>
 7    1  0.6136531E-013  0.5052882E+02  0.7816164E-02  0.1300439E+00
        -11   -1    0    0    0    0  0.00000000000E+00  0.00000000000E+00  0.45593999997E+02  0.45594000000E+02  0.51100000000E-03 0. -1.
         11   -1    0    0    0    0 -0.00000000000E+00 -0.00000000000E+00 -0.45593999997E+02  0.45594000000E+02  0.51100000000E-03 0.  1.
    9900012    2    1    2    0    0  0.18516332485E+02  0.35331473340E+02 -0.78741033854E+01  0.50528817997E+02  0.29999872782E+02 0.  0.
         12    1    1    2    0    0 -0.18516332485E+02 -0.35331473340E+02  0.78741033854E+01  0.40659182003E+02  0.00000000000E+00 0. -1.
         11    1    3    3    0    0  0.32892305863E+01  0.90426977046E+00  0.34997090354E+01  0.48871980992E+01  0.51100000000E-03 0. -1.
        -11    1    3    3    0    0  0.18700858117E+02  0.35855833120E+02 -0.10616764830E+02  0.41810029404E+02  0.51100000000E-03 0.  1.
        -12    1    3    3    0    0 -0.34737562181E+01 -0.14286295507E+01 -0.75704759127E+00  0.38315904937E+01  0.00000000000E+00 0.  1.
</event>
<event>
 7    1  0.6136531E-013  0.5052886E+02  0.7816164E-02  0.1300439E+00
        -11   -1    0    0    0    0  0.00000000000E+00  0.00000000000E+00  0.45593999997E+02  0.45594000000E+02  0.51100000000E-03 0.  1.
         11   -1    0    0    0    0 -0.00000000000E+00 -0.00000000000E+00 -0.45593999997E+02  0.45594000000E+02  0.51100000000E-03 0. -1.
    9900012    2    1    2    0    0 -0.32193401261E+02 -0.17243294008E+02  0.17872318807E+02  0.50528855241E+02  0.29999985990E+02 0.  0.
         12    1    1    2    0    0  0.32193401261E+02  0.17243294008E+02 -0.17872318807E+02  0.40659144759E+02  0.00000000000E+00 0. -1.
         11    1    3    3    0    0 -0.16751886155E+02 -0.49853712710E+01  0.13632218203E+02  0.22165671428E+02  0.51100000000E-03 0.  1.
        -11    1    3    3    0    0 -0.10726641761E+02 -0.17278771449E+02  0.12115421025E+00  0.20337931676E+02  0.51100000000E-03 0. -1.
         12    1    3    3    0    0 -0.47148733456E+01  0.50208487126E+01  0.41189463943E+01  0.80252521368E+01  0.00000000000E+00 0. -1.
</event>
<event>
 7    1  0.6136531E-013  0.5052887E+02  0.7816164E-02  0.1300439E+00
        -11   -1    0    0    0    0  0.00000000000E+00  0.00000000000E+00  0.45593999997E+02  0.45594000000E+02  0.51100000000E-03 0.  1.
         11   -1    0    0    0    0 -0.00000000000E+00 -0.00000000000E+00 -0.45593999997E+02  0.45594000000E+02  0.51100000000E-03 0. -1.
    9900012    2    1    2    0    0 -0.10889686200E+02 -0.32265742346E+02  0.22214893442E+02  0.50528869595E+02  0.30000029620E+02 0.  0.
         12    1    1    2    0    0  0.10889686200E+02  0.32265742346E+02 -0.22214893442E+02  0.40659130405E+02  0.00000000000E+00 0. -1.
         11    1    3    3    0    0 -0.65181918777E+00  0.24300310596E+01  0.16266586219E+00  0.25211861590E+01  0.51100000000E-03 0. -1.
        -11    1    3    3    0    0 -0.33447464576E+01 -0.26483729234E+02  0.25326934438E+02  0.36797131020E+02  0.51100000000E-03 0.  1.
        -12    1    3    3    0    0 -0.68931205549E+01 -0.82120441719E+01 -0.32747068583E+01  0.11210552416E+02  0.00000000000E+00 0.  1.
</event>
<event>
 7    1  0.6136531E-013  0.5052886E+02  0.7816164E-02  0.1300439E+00
        -11   -1    0    0    0    0  0.00000000000E+00  0.00000000000E+00  0.45593999997E+02  0.45594000000E+02  0.51100000000E-03 0.  1.
         11   -1    0    0    0    0 -0.00000000000E+00 -0.00000000000E+00 -0.45593999997E+02  0.45594000000E+02  0.51100000000E-03 0. -1.
    9900012    2    1    2    0    0 -0.31625179695E+01  0.30628335235E+02  0.26553137759E+02  0.50528861248E+02  0.30000004250E+02 0.  0.
         12    1    1    2    0    0  0.31625179695E+01 -0.30628335235E+02 -0.26553137759E+02  0.40659138752E+02  0.00000000000E+00 0. -1.
         11    1    3    3    0    0  0.11039840166E+01  0.10466003074E+01  0.50960627735E+00  0.16043228264E+01  0.51100000000E-03 0.  1.
        -11    1    3    3    0    0  0.12781765269E+01  0.82697989822E+01 -0.58191774490E+01  0.10192454900E+02  0.51100000000E-03 0. -1.
        -12    1    3    3    0    0 -0.55446785130E+01  0.21311935945E+02  0.31862708931E+02  0.38732083522E+02  0.00000000000E+00 0.  1.
</event>
<event>
 7    1  0.6136531E-013  0.5052886E+02  0.7816164E-02  0.1300439E+00
        -11   -1    0    0    0    0  0.00000000000E+00  0.00000000000E+00  0.45593999997E+02  0.45594000000E+02  0.51100000000E-03 0. -1.
         11   -1    0    0    0    0 -0.00000000000E+00 -0.00000000000E+00 -0.45593999997E+02  0.45594000000E+02  0.51100000000E-03 0.  1.
    9900012    2    1    2    0    0  0.31155993614E+02  0.18343581574E+02 -0.18600617094E+02  0.50528857371E+02  0.29999992465E+02 0.  0.
         12    1    1    2    0    0 -0.31155993614E+02 -0.18343581574E+02  0.18600617094E+02  0.40659142629E+02  0.00000000000E+00 0. -1.
         11    1    3    3    0    0  0.30136518562E+01  0.20698405597E+01  0.54844809172E+01  0.65913480143E+01  0.51100000000E-03 0. -1.
        -11    1    3    3    0    0  0.30423590618E+02  0.14275165536E+02 -0.21094274683E+02  0.39677999469E+02  0.51100000000E-03 0.  1.
        -12    1    3    3    0    0 -0.22812488602E+01  0.19985754787E+01 -0.29908233282E+01  0.42595098881E+01  0.00000000000E+00 0.  1.
</event>
<event>
 7    1  0.6136531E-013  0.5052886E+02  0.7816164E-02  0.1300439E+00
        -11   -1    0    0    0    0  0.00000000000E+00  0.00000000000E+00  0.45593999997E+02  0.45594000000E+02  0.51100000000E-03 0.  1.
         11   -1    0    0    0    0 -0.00000000000E+00 -0.00000000000E+00 -0.45593999997E+02  0.45594000000E+02  0.51100000000E-03 0. -1.
    9900012    2    1    2    0    0  0.21459032406E+02  0.91710817816E+01  0.33295144858E+02  0.50528862233E+02  0.30000007242E+02 0.  0.
         12    1    1    2    0    0 -0.21459032406E+02 -0.91710817816E+01 -0.33295144858E+02  0.40659137767E+02  0.00000000000E+00 0. -1.
         11    1    3    3    0    0 -0.31669024369E+01 -0.43049813697E+01  0.55633863294E+01  0.77144930714E+01  0.51100000000E-03 0. -1.
        -11    1    3    3    0    0  0.15557263442E+02  0.16004792052E+02  0.23750767760E+02  0.32592649231E+02  0.51100000000E-03 0.  1.
         12    1    3    3    0    0  0.90686714014E+01 -0.25287289004E+01  0.39809907685E+01  0.10221719930E+02  0.00000000000E+00 0. -1.
</event>
<event>
 7    1  0.6136531E-013  0.5052885E+02  0.7816164E-02  0.1300439E+00
        -11   -1    0    0    0    0  0.00000000000E+00  0.00000000000E+00  0.45593999997E+02  0.45594000000E+02  0.51100000000E-03 0.  1.
         11   -1    0    0    0    0 -0.00000000000E+00 -0.00000000000E+00 -0.45593999997E+02  0.45594000000E+02  0.51100000000E-03 0. -1.
    9900012    2    1    2    0    0 -0.33986748043E+02 -0.11624641989E+02  0.19050853312E+02  0.50528851512E+02  0.29999974655E+02 0.  0.
         12    1    1    2    0    0  0.33986748043E+02  0.11624641989E+02 -0.19050853312E+02  0.40659148488E+02  0.00000000000E+00 0. -1.
         11    1    3    3    0    0 -0.29620779268E+00 -0.64990699679E+01  0.32312894863E+01  0.72640816012E+01  0.51100000000E-03 0. -1.
        -11    1    3    3    0    0 -0.21299410487E+02  0.74824058833E+01  0.82717939688E+01  0.24043166609E+02  0.51100000000E-03 0.  1.
        -12    1    3    3    0    0 -0.12391129763E+02 -0.12607977904E+02  0.75477698568E+01  0.19221603301E+02  0.00000000000E+00 0.  1.
</event>
<event>
 7    1  0.6136531E-013  0.5052886E+02  0.7816164E-02  0.1300439E+00
        -11   -1    0    0    0    0  0.00000000000E+00  0.00000000000E+00  0.45593999997E+02  0.45594000000E+02  0.51100000000E-03 0.  1.
         11   -1    0    0    0    0 -0.00000000000E+00 -0.00000000000E+00 -0.45593999997E+02  0.45594000000E+02  0.51100000000E-03 0. -1.
    9900012    2    1    2    0    0 -0.14446771998E+00 -0.35338010252E+02  0.20108950857E+02  0.50528859034E+02  0.29999997520E+02 0.  0.
         12    1    1    2    0    0  0.14446771998E+00  0.35338010252E+02 -0.20108950857E+02  0.40659140966E+02  0.00000000000E+00 0. -1.
         11    1    3    3    0    0  0.20203098903E+01 -0.81091053731E+01 -0.48275639957E+01  0.96511458594E+01  0.51100000000E-03 0. -1.
        -11    1    3    3    0    0 -0.39659831453E+01 -0.72022865617E+01  0.17684608533E+02  0.19502495565E+02  0.51100000000E-03 0.  1.
         12    1    3    3    0    0  0.18012055350E+01 -0.20026618317E+02  0.72519063196E+01  0.21375217610E+02  0.00000000000E+00 0. -1.
</event>
<event>
 7    1  0.6136531E-013  0.5052886E+02  0.7816164E-02  0.1300439E+00
        -11   -1    0    0    0    0  0.00000000000E+00  0.00000000000E+00  0.45593999997E+02  0.45594000000E+02  0.51100000000E-03 0.  1.
         11   -1    0    0    0    0 -0.00000000000E+00 -0.00000000000E+00 -0.45593999997E+02  0.45594000000E+02  0.51100000000E-03 0. -1.
    9900012    2    1    2    0    0  0.33046144469E+02 -0.64656398393E+01  0.22788454488E+02  0.50528858092E+02  0.29999994655E+02 0.  0.
         12    1    1    2    0    0 -0.33046144469E+02  0.64656398393E+01 -0.22788454488E+02  0.40659141908E+02  0.00000000000E+00 0. -1.
         11    1    3    3    0    0  0.32611808919E+01  0.88039024482E+01  0.85036671331E+01  0.12667136776E+02  0.51100000000E-03 0. -1.
        -11    1    3    3    0    0  0.95396134864E+01 -0.57236320700E+01 -0.33011241953E+00  0.11129832165E+02  0.51100000000E-03 0.  1.
         12    1    3    3    0    0  0.20245350090E+02 -0.95459102176E+01  0.14614899775E+02  0.26731889151E+02  0.00000000000E+00 0. -1.
</event>
<event>
 7    1  0.6136531E-013  0.5052885E+02  0.7816164E-02  0.1300439E+00
        -11   -1    0    0    0    0  0.00000000000E+00  0.00000000000E+00  0.45593999997E+02  0.45594000000E+02  0.51100000000E-03 0. -1.
         11   -1    0    0    0    0 -0.00000000000E+00 -0.00000000000E+00 -0.45593999997E+02  0.45594000000E+02  0.51100000000E-03 0.  1.
    9900012    2    1    2    0    0 -0.31721111153E+02  0.29668202760E+01 -0.25261338596E+02  0.50528854128E+02  0.29999982608E+02 0.  0.
         12    1    1    2    0    0  0.31721111153E+02 -0.29668202760E+01  0.25261338596E+02  0.40659145872E+02  0.00000000000E+00 0. -1.
         11    1    3    3    0    0 -0.47067965122E+01  0.94016376628E+01  0.20309665012E+01  0.10708386869E+02  0.51100000000E-03 0. -1.
        -11    1    3    3    0    0 -0.21998867052E+02 -0.51154902651E+01 -0.26068773037E+02  0.34492018209E+02  0.51100000000E-03 0.  1.
         12    1    3    3    0    0 -0.50154475895E+01 -0.13193271217E+01 -0.12235320610E+01  0.53284490503E+01  0.00000000000E+00 0. -1.
</event>
<event>
 7    1  0.6136531E-013  0.5052887E+02  0.7816164E-02  0.1300439E+00
        -11   -1    0    0    0    0  0.00000000000E+00  0.00000000000E+00  0.45593999997E+02  0.45594000000E+02  0.51100000000E-03 0. -1.
         11   -1    0    0    0    0 -0.00000000000E+00 -0.00000000000E+00 -0.45593999997E+02  0.45594000000E+02  0.51100000000E-03 0.  1.
    9900012    2    1    2    0    0 -0.31053137398E+02  0.28370856907E+01 -0.26092504870E+02  0.50528865628E+02  0.30000017562E+02 0.  0.
         12    1    1    2    0    0  0.31053137398E+02 -0.28370856907E+01  0.26092504870E+02  0.40659134372E+02  0.00000000000E+00 0. -1.
         11    1    3    3    0    0 -0.73307810390E+01 -0.16600342414E+01  0.36377073866E+01  0.83503879920E+01  0.51100000000E-03 0. -1.
        -11    1    3    3    0    0 -0.16634938586E+02  0.88537855858E+01 -0.11338215535E+02  0.21992403978E+02  0.51100000000E-03 0.  1.
        -12    1    3    3    0    0 -0.70874177736E+01 -0.43566656537E+01 -0.18391996721E+02  0.20186073658E+02  0.00000000000E+00 0.  1.
</event>
<event>
 7    1  0.6136531E-013  0.5052886E+02  0.7816164E-02  0.1300439E+00
        -11   -1    0    0    0    0  0.00000000000E+00  0.00000000000E+00  0.45593999997E+02  0.45594000000E+02  0.51100000000E-03 0.  1.
         11   -1    0    0    0    0 -0.00000000000E+00 -0.00000000000E+00 -0.45593999997E+02  0.45594000000E+02  0.51100000000E-03 0. -1.
    9900012    2    1    2    0    0  0.39616682537E+02  0.88588290547E+00  0.91049079473E+01  0.50528859915E+02  0.30000000196E+02 0.  0.
         12    1    1    2    0    0 -0.39616682537E+02 -0.88588290547E+00 -0.91049079473E+01  0.40659140085E+02  0.00000000000E+00 0. -1.
         11    1    3    3    0    0 -0.14121019936E+01 -0.49603771431E+01  0.53552308397E+01  0.74349089470E+01  0.51100000000E-03 0. -1.
        -11    1    3    3    0    0  0.41710047638E+02  0.52766523424E+01  0.36715331041E+01  0.42202503355E+02  0.51100000000E-03 0.  1.
        -12    1    3    3    0    0 -0.68126310708E+00  0.56960770612E+00  0.78144003552E-01  0.89144761216E+00  0.00000000000E+00 0.  1.
</event>
<event>
 7    1  0.6136531E-013  0.5052886E+02  0.7816164E-02  0.1300439E+00
        -11   -1    0    0    0    0  0.00000000000E+00  0.00000000000E+00  0.45593999997E+02  0.45594000000E+02  0.51100000000E-03 0.  1.
         11   -1    0    0    0    0 -0.00000000000E+00 -0.00000000000E+00 -0.45593999997E+02  0.45594000000E+02  0.51100000000E-03 0. -1.
    9900012    2    1    2    0    0  0.34128346444E+02  0.11560300814E+02 -0.18835642967E+02  0.50528855495E+02  0.29999986762E+02 0.  0.
         12    1    1    2    0    0 -0.34128346444E+02 -0.11560300814E+02  0.18835642967E+02  0.40659144505E+02  0.00000000000E+00 0. -1.
         11    1    3    3    0    0  0.13017379339E+02 -0.68406883869E+01 -0.12147946369E+02  0.19074060493E+02  0.51100000000E-03 0. -1.
        -11    1    3    3    0    0  0.13756192581E+02  0.43717291295E+01 -0.48157144418E+00  0.14442186857E+02  0.51100000000E-03 0.  1.
         12    1    3    3    0    0  0.73547745241E+01  0.14029260071E+02 -0.62061251545E+01  0.17012608144E+02  0.00000000000E+00 0. -1.
</event>
<event>
 7    1  0.6136531E-013  0.5052886E+02  0.7816164E-02  0.1300439E+00
        -11   -1    0    0    0    0  0.00000000000E+00  0.00000000000E+00  0.45593999997E+02  0.45594000000E+02  0.51100000000E-03 0.  1.
         11   -1    0    0    0    0 -0.00000000000E+00 -0.00000000000E+00 -0.45593999997E+02  0.45594000000E+02  0.51100000000E-03 0. -1.
    9900012    2    1    2    0    0  0.10022047789E+02  0.58336167590E+01  0.38970416100E+02  0.50528857641E+02  0.29999993284E+02 0.  0.
         12    1    1    2    0    0 -0.10022047789E+02 -0.58336167590E+01 -0.38970416100E+02  0.40659142359E+02  0.00000000000E+00 0. -1.
         11    1    3    3    0    0  0.35217914039E+01 -0.42052762382E+01  0.35407084942E+01  0.65287042998E+01  0.51100000000E-03 0. -1.
        -11    1    3    3    0    0  0.33442354444E+01  0.72546294430E+01  0.38157574123E+02  0.38984792192E+02  0.51100000000E-03 0.  1.
        -12    1    3    3    0    0  0.31560209408E+01  0.27842635543E+01 -0.27278665167E+01  0.50153611487E+01  0.00000000000E+00 0.  1.
</event>
<event>
 7    1  0.6136531E-013  0.5052878E+02  0.7816164E-02  0.1300439E+00
        -11   -1    0    0    0    0  0.00000000000E+00  0.00000000000E+00  0.45593999997E+02  0.45594000000E+02  0.51100000000E-03 0.  1.
         11   -1    0    0    0    0 -0.00000000000E+00 -0.00000000000E+00 -0.45593999997E+02  0.45594000000E+02  0.51100000000E-03 0. -1.
    9900012    2    1    2    0    0 -0.12753449210E+02 -0.13018162507E+02  0.36346240190E+02  0.50528779671E+02  0.29999756286E+02 0.  0.
         12    1    1    2    0    0  0.12753449210E+02  0.13018162507E+02 -0.36346240190E+02  0.40659220329E+02  0.00000000000E+00 0. -1.
         11    1    3    3    0    0  0.21821731666E+01  0.11897913000E+01  0.41134908308E+01  0.48060680543E+01  0.51100000000E-03 0.  1.
        -11    1    3    3    0    0 -0.16532891971E+02  0.33170034871E+00  0.10715434325E+02  0.19704493779E+02  0.51100000000E-03 0. -1.
        -12    1    3    3    0    0  0.15972695951E+01 -0.14539654156E+02  0.21517315034E+02  0.26018217837E+02  0.00000000000E+00 0.  1.
</event>
<event>
 7    1  0.6136531E-013  0.5052886E+02  0.7816164E-02  0.1300439E+00
        -11   -1    0    0    0    0  0.00000000000E+00  0.00000000000E+00  0.45593999997E+02  0.45594000000E+02  0.51100000000E-03 0. -1.
         11   -1    0    0    0    0 -0.00000000000E+00 -0.00000000000E+00 -0.45593999997E+02  0.45594000000E+02  0.51100000000E-03 0.  1.
    9900012    2    1    2    0    0  0.43446369329E+01 -0.26923922764E+02 -0.30156133596E+02  0.50528857356E+02  0.29999992419E+02 0.  0.
         12    1    1    2    0    0 -0.43446369329E+01  0.26923922764E+02  0.30156133596E+02  0.40659142644E+02  0.00000000000E+00 0. -1.
         11    1    3    3    0    0  0.39756929398E+01 -0.15197591025E+02 -0.24994330406E+01  0.15906604700E+02  0.51100000000E-03 0.  1.
        -11    1    3    3    0    0 -0.53587795742E+01  0.21816968717E+01 -0.75403541974E+01  0.95043811712E+01  0.51100000000E-03 0. -1.
        -12    1    3    3    0    0  0.57277235673E+01 -0.13908028611E+02 -0.20116346358E+02  0.25117871485E+02  0.00000000000E+00 0.  1.
</event>
<event>
 7    1  0.6136531E-013  0.5052886E+02  0.7816164E-02  0.1300439E+00
        -11   -1    0    0    0    0  0.00000000000E+00  0.00000000000E+00  0.45593999997E+02  0.45594000000E+02  0.51100000000E-03 0. -1.
         11   -1    0    0    0    0 -0.00000000000E+00 -0.00000000000E+00 -0.45593999997E+02  0.45594000000E+02  0.51100000000E-03 0.  1.
    9900012    2    1    2    0    0  0.34164286744E+01  0.28412226959E+02 -0.28883198801E+02  0.50528858363E+02  0.29999995481E+02 0.  0.
         12    1    1    2    0    0 -0.34164286744E+01 -0.28412226959E+02  0.28883198801E+02  0.40659141637E+02  0.00000000000E+00 0. -1.
         11    1    3    3    0    0 -0.60150870591E+01  0.18678731949E+02 -0.96036805954E+01  0.21847356380E+02  0.51100000000E-03 0.  1.
        -11    1    3    3    0    0  0.69642714842E+01  0.32218187384E+01 -0.20245965743E+02  0.21651335350E+02  0.51100000000E-03 0. -1.
         12    1    3    3    0    0  0.24672442493E+01  0.65116762721E+01  0.96644753766E+00  0.70301666339E+01  0.00000000000E+00 0. -1.
</event>
<event>
 7    1  0.6136531E-013  0.5052886E+02  0.7816164E-02  0.1300439E+00
        -11   -1    0    0    0    0  0.00000000000E+00  0.00000000000E+00  0.45593999997E+02  0.45594000000E+02  0.51100000000E-03 0.  1.
         11   -1    0    0    0    0 -0.00000000000E+00 -0.00000000000E+00 -0.45593999997E+02  0.45594000000E+02  0.51100000000E-03 0. -1.
    9900012    2    1    2    0    0 -0.24928448933E+02 -0.25380658824E+02  0.19686550176E+02  0.50528859990E+02  0.30000000425E+02 0.  0.
         12    1    1    2    0    0  0.24928448933E+02  0.25380658824E+02 -0.19686550176E+02  0.40659140010E+02  0.00000000000E+00 0. -1.
         11    1    3    3    0    0 -0.15465754881E+01 -0.74810103848E+01  0.87163998354E+01  0.11590213047E+02  0.51100000000E-03 0. -1.
        -11    1    3    3    0    0 -0.15852969160E+02 -0.18001308681E+02 -0.18637153108E+01  0.24059035319E+02  0.51100000000E-03 0.  1.
        -12    1    3    3    0    0 -0.75289042845E+01  0.10166024283E+00  0.12833865652E+02  0.14879611624E+02  0.00000000000E+00 0.  1.
</event>
<event>
 7    1  0.6136531E-013  0.5052886E+02  0.7816164E-02  0.1300439E+00
        -11   -1    0    0    0    0  0.00000000000E+00  0.00000000000E+00  0.45593999997E+02  0.45594000000E+02  0.51100000000E-03 0.  1.
         11   -1    0    0    0    0 -0.00000000000E+00 -0.00000000000E+00 -0.45593999997E+02  0.45594000000E+02  0.51100000000E-03 0. -1.
    9900012    2    1    2    0    0 -0.58310540246E+01 -0.13977305912E+02  0.37733265630E+02  0.50528860724E+02  0.30000002656E+02 0.  0.
         12    1    1    2    0    0  0.58310540246E+01  0.13977305912E+02 -0.37733265630E+02  0.40659139276E+02  0.00000000000E+00 0. -1.
         11    1    3    3    0    0 -0.25139325993E+01  0.16286917588E+01 -0.22754114827E+01  0.37616474630E+01  0.51100000000E-03 0. -1.
        -11    1    3    3    0    0 -0.72424771228E+01 -0.17984971592E+02  0.34701134633E+02  0.39750238026E+02  0.51100000000E-03 0.  1.
        -12    1    3    3    0    0  0.39253556975E+01  0.23789739219E+01  0.53075424797E+01  0.70169752349E+01  0.00000000000E+00 0.  1.
</event>
<event>
 7    1  0.6136531E-013  0.5052887E+02  0.7816164E-02  0.1300439E+00
        -11   -1    0    0    0    0  0.00000000000E+00  0.00000000000E+00  0.45593999997E+02  0.45594000000E+02  0.51100000000E-03 0.  1.
         11   -1    0    0    0    0 -0.00000000000E+00 -0.00000000000E+00 -0.45593999997E+02  0.45594000000E+02  0.51100000000E-03 0. -1.
    9900012    2    1    2    0    0  0.12917252024E+02  0.34201797464E+02  0.17791751063E+02  0.50528871191E+02  0.30000034472E+02 0.  0.
         12    1    1    2    0    0 -0.12917252024E+02 -0.34201797464E+02 -0.17791751063E+02  0.40659128809E+02  0.00000000000E+00 0. -1.
         11    1    3    3    0    0 -0.49671791446E+01  0.78827796288E+01  0.97082059377E+00  0.93676878801E+01  0.51100000000E-03 0. -1.
        -11    1    3    3    0    0  0.13825880640E+02  0.26114264364E+02  0.67618149475E+01  0.30312240438E+02  0.51100000000E-03 0.  1.
        -12    1    3    3    0    0  0.40585505284E+01  0.20475347146E+00  0.10059115521E+02  0.10848942872E+02  0.00000000000E+00 0.  1.
</event>
<event>
 7    1  0.6136531E-013  0.5052885E+02  0.7816164E-02  0.1300439E+00
        -11   -1    0    0    0    0  0.00000000000E+00  0.00000000000E+00  0.45593999997E+02  0.45594000000E+02  0.51100000000E-03 0. -1.
         11   -1    0    0    0    0 -0.00000000000E+00 -0.00000000000E+00 -0.45593999997E+02  0.45594000000E+02  0.51100000000E-03 0.  1.
    9900012    2    1    2    0    0 -0.29137997496E+02  0.65226618366E+01 -0.27597076020E+02  0.50528848258E+02  0.29999964764E+02 0.  0.
         12    1    1    2    0    0  0.29137997496E+02 -0.65226618366E+01  0.27597076020E+02  0.40659151742E+02  0.00000000000E+00 0. -1.
         11    1    3    3    0    0 -0.31436319994E+01  0.86984531073E+01 -0.50808294352E+00  0.92630263492E+01  0.51100000000E-03 0. -1.
        -11    1    3    3    0    0 -0.27145820107E+02  0.36100898082E+00 -0.20212057984E+02  0.33846021406E+02  0.51100000000E-03 0.  1.
        -12    1    3    3    0    0  0.11514546104E+01 -0.25368002515E+01 -0.68769350923E+01  0.74198005027E+01  0.00000000000E+00 0.  1.
</event>
<event>
 7    1  0.6136531E-013  0.5052887E+02  0.7816164E-02  0.1300439E+00
        -11   -1    0    0    0    0  0.00000000000E+00  0.00000000000E+00  0.45593999997E+02  0.45594000000E+02  0.51100000000E-03 0.  1.
         11   -1    0    0    0    0 -0.00000000000E+00 -0.00000000000E+00 -0.45593999997E+02  0.45594000000E+02  0.51100000000E-03 0. -1.
    9900012    2    1    2    0    0 -0.86771024641E+01  0.27852266938E+02  0.28321798562E+02  0.50528866283E+02  0.30000019555E+02 0.  0.
         12    1    1    2    0    0  0.86771024641E+01 -0.27852266938E+02 -0.28321798562E+02  0.40659133717E+02  0.00000000000E+00 0. -1.
         11    1    3    3    0    0 -0.56161336817E+01  0.37289251585E+01 -0.39701952003E+01  0.78235727489E+01  0.51100000000E-03 0. -1.
        -11    1    3    3    0    0 -0.62921428588E+01  0.21562181641E+02  0.21257786715E+02  0.30925915268E+02  0.51100000000E-03 0.  1.
         12    1    3    3    0    0  0.32311740764E+01  0.25611601388E+01  0.11034207048E+02  0.11779378267E+02  0.00000000000E+00 0. -1.
</event>
<event>
 7    1  0.6136531E-013  0.5052885E+02  0.7816164E-02  0.1300439E+00
        -11   -1    0    0    0    0  0.00000000000E+00  0.00000000000E+00  0.45593999997E+02  0.45594000000E+02  0.51100000000E-03 0. -1.
         11   -1    0    0    0    0 -0.00000000000E+00 -0.00000000000E+00 -0.45593999997E+02  0.45594000000E+02  0.51100000000E-03 0.  1.
    9900012    2    1    2    0    0 -0.16147870321E+02 -0.34372697734E+02 -0.14523448114E+02  0.50528848379E+02  0.29999965133E+02 0.  0.
         12    1    1    2    0    0  0.16147870321E+02  0.34372697734E+02  0.14523448114E+02  0.40659151621E+02  0.00000000000E+00 0. -1.
         11    1    3    3    0    0 -0.17035982648E+01 -0.88866475105E+01  0.28878002383E+01  0.94981125231E+01  0.51100000000E-03 0. -1.
        -11    1    3    3    0    0  0.42369091583E+01 -0.27586251616E+01 -0.91816644168E+01  0.10481620758E+02  0.51100000000E-03 0.  1.
        -12    1    3    3    0    0 -0.18681181214E+02 -0.22727425062E+02 -0.82295839354E+01  0.30549115098E+02  0.00000000000E+00 0.  1.
</event>
<event>
 7    1  0.6136531E-013  0.5052888E+02  0.7816164E-02  0.1300439E+00
        -11   -1    0    0    0    0  0.00000000000E+00  0.00000000000E+00  0.45593999997E+02  0.45594000000E+02  0.51100000000E-03 0.  1.
         11   -1    0    0    0    0 -0.00000000000E+00 -0.00000000000E+00 -0.45593999997E+02  0.45594000000E+02  0.51100000000E-03 0. -1.
    9900012    2    1    2    0    0 -0.36619354408E+02 -0.16055332438E+02  0.73765472135E+01  0.50528877214E+02  0.30000052778E+02 0.  0.
         12    1    1    2    0    0  0.36619354408E+02  0.16055332438E+02 -0.73765472135E+01  0.40659122786E+02  0.00000000000E+00 0. -1.
         11    1    3    3    0    0 -0.78970979061E+01  0.39787869325E+01 -0.13391649660E+00  0.88438020490E+01  0.51100000000E-03 0. -1.
        -11    1    3    3    0    0 -0.22175948117E+02 -0.24482344134E+02  0.51946774796E+01  0.33438638183E+02  0.51100000000E-03 0.  1.
        -12    1    3    3    0    0 -0.65463083852E+01  0.44482247636E+01  0.23157862304E+01  0.82464369813E+01  0.00000000000E+00 0.  1.
</event>
<event>
 7    1  0.6136531E-013  0.5052883E+02  0.7816164E-02  0.1300439E+00
        -11   -1    0    0    0    0  0.00000000000E+00  0.00000000000E+00  0.45593999997E+02  0.45594000000E+02  0.51100000000E-03 0. -1.
         11   -1    0    0    0    0 -0.00000000000E+00 -0.00000000000E+00 -0.45593999997E+02  0.45594000000E+02  0.51100000000E-03 0.  1.
    9900012    2    1    2    0    0  0.28436025958E+02  0.50752172401E+00 -0.29056891206E+02  0.50528830344E+02  0.29999910312E+02 0.  0.
         12    1    1    2    0    0 -0.28436025958E+02 -0.50752172401E+00  0.29056891206E+02  0.40659169656E+02  0.00000000000E+00 0. -1.
         11    1    3    3    0    0  0.17717703615E+02  0.92390215400E+01 -0.30361791840E+02  0.36347144928E+02  0.51100000000E-03 0. -1.
        -11    1    3    3    0    0  0.15147453498E+01 -0.27638032494E+01  0.35552358890E+00  0.31716650453E+01  0.51100000000E-03 0.  1.
         12    1    3    3    0    0  0.92035769937E+01 -0.59676965667E+01  0.94937704516E+00  0.11010020371E+02  0.00000000000E+00 0. -1.
</event>
<event>
 7    1  0.6136531E-013  0.5052886E+02  0.7816164E-02  0.1300439E+00
        -11   -1    0    0    0    0  0.00000000000E+00  0.00000000000E+00  0.45593999997E+02  0.45594000000E+02  0.51100000000E-03 0.  1.
         11   -1    0    0    0    0 -0.00000000000E+00 -0.00000000000E+00 -0.45593999997E+02  0.45594000000E+02  0.51100000000E-03 0. -1.
    9900012    2    1    2    0    0  0.11796530345E+02 -0.11880603239E+02  0.37052113198E+02  0.50528856454E+02  0.29999989677E+02 0.  0.
         12    1    1    2    0    0 -0.11796530345E+02  0.11880603239E+02 -0.37052113198E+02  0.40659143546E+02  0.00000000000E+00 0. -1.
         11    1    3    3    0    0  0.14875312261E+02  0.17965704809E+01  0.20990975656E+02  0.25789991074E+02  0.51100000000E-03 0. -1.
        -11    1    3    3    0    0  0.17938588914E+01 -0.13088901527E+02  0.14436111670E+02  0.19568816860E+02  0.51100000000E-03 0.  1.
         12    1    3    3    0    0 -0.48726408072E+01 -0.58827219296E+00  0.16250258718E+01  0.51700485194E+01  0.00000000000E+00 0. -1.
</event>
<event>
 7    1  0.6136531E-013  0.5052886E+02  0.7816164E-02  0.1300439E+00
        -11   -1    0    0    0    0  0.00000000000E+00  0.00000000000E+00  0.45593999997E+02  0.45594000000E+02  0.51100000000E-03 0.  1.
         11   -1    0    0    0    0 -0.00000000000E+00 -0.00000000000E+00 -0.45593999997E+02  0.45594000000E+02  0.51100000000E-03 0. -1.
    9900012    2    1    2    0    0  0.33827505849E+02  0.67875654997E+01  0.21512662271E+02  0.50528857912E+02  0.29999994109E+02 0.  0.
         12    1    1    2    0    0 -0.33827505849E+02 -0.67875654997E+01 -0.21512662271E+02  0.40659142088E+02  0.00000000000E+00 0. -1.
         11    1    3    3    0    0  0.19799312832E+01 -0.19754563277E+01 -0.57330060203E+01  0.63788646230E+01  0.51100000000E-03 0. -1.
        -11    1    3    3    0    0  0.24118170576E+02  0.65408360775E+01  0.13972572073E+02  0.28630428902E+02  0.51100000000E-03 0.  1.
         12    1    3    3    0    0  0.77294039897E+01  0.22221857498E+01  0.13273096218E+02  0.15519564387E+02  0.00000000000E+00 0. -1.
</event>
<event>
 7    1  0.6136531E-013  0.5052885E+02  0.7816164E-02  0.1300439E+00
        -11   -1    0    0    0    0  0.00000000000E+00  0.00000000000E+00  0.45593999997E+02  0.45594000000E+02  0.51100000000E-03 0.  1.
         11   -1    0    0    0    0 -0.00000000000E+00 -0.00000000000E+00 -0.45593999997E+02  0.45594000000E+02  0.51100000000E-03 0. -1.
    9900012    2    1    2    0    0 -0.42046435444E+00  0.38690440670E+02 -0.12491578616E+02  0.50528849421E+02  0.29999968299E+02 0.  0.
         12    1    1    2    0    0  0.42046435444E+00 -0.38690440670E+02  0.12491578616E+02  0.40659150579E+02  0.00000000000E+00 0. -1.
         11    1    3    3    0    0  0.46378994549E+01  0.53958937272E+01 -0.91612464023E+01  0.11599750703E+02  0.51100000000E-03 0. -1.
        -11    1    3    3    0    0 -0.93756895313E+01  0.32555991973E+02 -0.49910176774E+01  0.34244801434E+02  0.51100000000E-03 0.  1.
        -12    1    3    3    0    0  0.43173257220E+01  0.73855496975E+00  0.16606854634E+01  0.46842972837E+01  0.00000000000E+00 0.  1.
</event>
<event>
 7    1  0.6136531E-013  0.5052882E+02  0.7816164E-02  0.1300439E+00
        -11   -1    0    0    0    0  0.00000000000E+00  0.00000000000E+00  0.45593999997E+02  0.45594000000E+02  0.51100000000E-03 0. -1.
         11   -1    0    0    0    0 -0.00000000000E+00 -0.00000000000E+00 -0.45593999997E+02  0.45594000000E+02  0.51100000000E-03 0.  1.
    9900012    2    1    2    0    0  0.35877266337E+02 -0.17046303572E+02 -0.86841174683E+01  0.50528823896E+02  0.29999890713E+02 0.  0.
         12    1    1    2    0    0 -0.35877266337E+02  0.17046303572E+02  0.86841174683E+01  0.40659176104E+02  0.00000000000E+00 0. -1.
         11    1    3    3    0    0  0.15939214026E+02  0.41433094899E+01  0.57097566611E+00  0.16478821887E+02  0.51100000000E-03 0. -1.
        -11    1    3    3    0    0  0.89013112508E+01 -0.17108371530E+02 -0.10924967251E+02  0.22164941419E+02  0.51100000000E-03 0.  1.
        -12    1    3    3    0    0  0.11036741060E+02 -0.40812415318E+01  0.16698741168E+01  0.11885060590E+02  0.00000000000E+00 0.  1.
</event>
<event>
 7    1  0.6136531E-013  0.5052886E+02  0.7816164E-02  0.1300439E+00
        -11   -1    0    0    0    0  0.00000000000E+00  0.00000000000E+00  0.45593999997E+02  0.45594000000E+02  0.51100000000E-03 0.  1.
         11   -1    0    0    0    0 -0.00000000000E+00 -0.00000000000E+00 -0.45593999997E+02  0.45594000000E+02  0.51100000000E-03 0. -1.
    9900012    2    1    2    0    0  0.27474768351E+02  0.16942480656E+02  0.24723578602E+02  0.50528857294E+02  0.29999992230E+02 0.  0.
         12    1    1    2    0    0 -0.27474768351E+02 -0.16942480656E+02 -0.24723578602E+02  0.40659142706E+02  0.00000000000E+00 0. -1.
         11    1    3    3    0    0  0.16934946424E+02  0.14513786999E+02  0.14557143898E+01  0.22350873094E+02  0.51100000000E-03 0. -1.
        -11    1    3    3    0    0  0.71085310701E+01  0.67938370423E+01  0.11263224059E+02  0.14951510031E+02  0.51100000000E-03 0.  1.
         12    1    3    3    0    0  0.34312908574E+01 -0.43651433854E+01  0.12004640153E+02  0.13226474169E+02  0.00000000000E+00 0. -1.
</event>
<event>
 7    1  0.6136531E-013  0.5052886E+02  0.7816164E-02  0.1300439E+00
        -11   -1    0    0    0    0  0.00000000000E+00  0.00000000000E+00  0.45593999997E+02  0.45594000000E+02  0.51100000000E-03 0. -1.
         11   -1    0    0    0    0 -0.00000000000E+00 -0.00000000000E+00 -0.45593999997E+02  0.45594000000E+02  0.51100000000E-03 0.  1.
    9900012    2    1    2    0    0 -0.30329300042E+02 -0.27018201905E+02  0.18209157720E+01  0.50528863149E+02  0.30000010027E+02 0.  0.
         12    1    1    2    0    0  0.30329300042E+02  0.27018201905E+02 -0.18209157720E+01  0.40659136851E+02  0.00000000000E+00 0. -1.
         11    1    3    3    0    0 -0.48712137747E+01 -0.20879020728E+02  0.64101761216E+01  0.22377501835E+02  0.51100000000E-03 0. -1.
        -11    1    3    3    0    0 -0.24421538033E+02 -0.66321259783E+01 -0.20792136176E+01  0.25391332072E+02  0.51100000000E-03 0.  1.
         12    1    3    3    0    0 -0.10365482348E+01  0.49294480058E+00 -0.25100467321E+01  0.27600292420E+01  0.00000000000E+00 0. -1.
</event>
<event>
 7    1  0.6136531E-013  0.5052882E+02  0.7816164E-02  0.1300439E+00
        -11   -1    0    0    0    0  0.00000000000E+00  0.00000000000E+00  0.45593999997E+02  0.45594000000E+02  0.51100000000E-03 0.  1.
         11   -1    0    0    0    0 -0.00000000000E+00 -0.00000000000E+00 -0.45593999997E+02  0.45594000000E+02  0.51100000000E-03 0. -1.
    9900012    2    1    2    0    0 -0.33456973257E+02 -0.14903038980E+02  0.17655017204E+02  0.50528815763E+02  0.29999865992E+02 0.  0.
         12    1    1    2    0    0  0.33456973257E+02  0.14903038980E+02 -0.17655017204E+02  0.40659184237E+02  0.00000000000E+00 0. -1.
         11    1    3    3    0    0 -0.15419167410E+02 -0.20104304238E+02  0.82618131955E+01  0.26649415192E+02  0.51100000000E-03 0. -1.
        -11    1    3    3    0    0 -0.73012460355E+01 -0.10788219118E+01  0.87181700723E+01  0.11422720344E+02  0.51100000000E-03 0.  1.
         12    1    3    3    0    0 -0.10736559812E+02  0.62800871703E+01  0.67503393591E+00  0.12456680227E+02  0.00000000000E+00 0. -1.
</event>
<event>
 7    1  0.6136531E-013  0.5052887E+02  0.7816164E-02  0.1300439E+00
        -11   -1    0    0    0    0  0.00000000000E+00  0.00000000000E+00  0.45593999997E+02  0.45594000000E+02  0.51100000000E-03 0. -1.
         11   -1    0    0    0    0 -0.00000000000E+00 -0.00000000000E+00 -0.45593999997E+02  0.45594000000E+02  0.51100000000E-03 0.  1.
    9900012    2    1    2    0    0 -0.20301975295E+02 -0.33452372111E+02  0.11042363668E+02  0.50528865773E+02  0.30000018003E+02 0.  0.
         12    1    1    2    0    0  0.20301975295E+02  0.33452372111E+02 -0.11042363668E+02  0.40659134227E+02  0.00000000000E+00 0. -1.
         11    1    3    3    0    0  0.26576344817E+01 -0.14828566229E+02  0.11493975016E+02  0.18948901271E+02  0.51100000000E-03 0. -1.
        -11    1    3    3    0    0 -0.67516697081E+01 -0.23966421171E+01 -0.42534422073E+01  0.83319090343E+01  0.51100000000E-03 0.  1.
         12    1    3    3    0    0 -0.16207940068E+02 -0.16227163765E+02  0.38018308586E+01  0.23248055467E+02  0.00000000000E+00 0. -1.
</event>
<event>
 7    1  0.6136531E-013  0.5052886E+02  0.7816164E-02  0.1300439E+00
        -11   -1    0    0    0    0  0.00000000000E+00  0.00000000000E+00  0.45593999997E+02  0.45594000000E+02  0.51100000000E-03 0. -1.
         11   -1    0    0    0    0 -0.00000000000E+00 -0.00000000000E+00 -0.45593999997E+02  0.45594000000E+02  0.51100000000E-03 0.  1.
    9900012    2    1    2    0    0 -0.30132811860E+02  0.25274571324E+02 -0.10313859230E+02  0.50528855906E+02  0.29999988013E+02 0.  0.
         12    1    1    2    0    0  0.30132811860E+02 -0.25274571324E+02  0.10313859230E+02  0.40659144094E+02  0.00000000000E+00 0. -1.
         11    1    3    3    0    0 -0.10061259657E+02  0.24906633168E+02 -0.20558485642E+01  0.26940598271E+02  0.51100000000E-03 0. -1.
        -11    1    3    3    0    0 -0.11700444162E+02 -0.17012704566E+00 -0.95460819121E+01  0.15101556771E+02  0.51100000000E-03 0.  1.
         12    1    3    3    0    0 -0.83711080418E+01  0.53806520171E+00  0.12880712465E+01  0.84867008634E+01  0.00000000000E+00 0. -1.
</event>
<event>
 7    1  0.6136531E-013  0.5052886E+02  0.7816164E-02  0.1300439E+00
        -11   -1    0    0    0    0  0.00000000000E+00  0.00000000000E+00  0.45593999997E+02  0.45594000000E+02  0.51100000000E-03 0.  1.
         11   -1    0    0    0    0 -0.00000000000E+00 -0.00000000000E+00 -0.45593999997E+02  0.45594000000E+02  0.51100000000E-03 0. -1.
    9900012    2    1    2    0    0  0.38136230621E+02 -0.12575580762E+02  0.63755892708E+01  0.50528862577E+02  0.30000008288E+02 0.  0.
         12    1    1    2    0    0 -0.38136230621E+02  0.12575580762E+02 -0.63755892708E+01  0.40659137423E+02  0.00000000000E+00 0. -1.
         11    1    3    3    0    0  0.28285407237E+02 -0.54924446552E+01 -0.55951079209E+01  0.29351941057E+02  0.51100000000E-03 0. -1.
        -11    1    3    3    0    0  0.82996440676E+01 -0.29599934078E+00  0.11518294454E+02  0.14200099107E+02  0.51100000000E-03 0.  1.
        -12    1    3    3    0    0  0.15511793158E+01 -0.67871367657E+01  0.45240273777E+00  0.69768224131E+01  0.00000000000E+00 0.  1.
</event>
<event>
 7    1  0.6136531E-013  0.5052886E+02  0.7816164E-02  0.1300439E+00
        -11   -1    0    0    0    0  0.00000000000E+00  0.00000000000E+00  0.45593999997E+02  0.45594000000E+02  0.51100000000E-03 0.  1.
         11   -1    0    0    0    0 -0.00000000000E+00 -0.00000000000E+00 -0.45593999997E+02  0.45594000000E+02  0.51100000000E-03 0. -1.
    9900012    2    1    2    0    0 -0.29181167097E+02  0.24428951898E+02  0.14312640862E+02  0.50528857210E+02  0.29999991976E+02 0.  0.
         12    1    1    2    0    0  0.29181167097E+02 -0.24428951898E+02 -0.14312640862E+02  0.40659142790E+02  0.00000000000E+00 0. -1.
         11    1    3    3    0    0 -0.21950759073E+02  0.21731049659E+02  0.25581358092E+01  0.30993844586E+02  0.51100000000E-03 0.  1.
        -11    1    3    3    0    0  0.40207147372E+01  0.10341829749E+01  0.23070562865E+01  0.47495463356E+01  0.51100000000E-03 0. -1.
         12    1    3    3    0    0 -0.11251122761E+02  0.16637192643E+01  0.94474487668E+01  0.14785466288E+02  0.00000000000E+00 0. -1.
</event>
<event>
 7    1  0.6136531E-013  0.5052889E+02  0.7816164E-02  0.1300439E+00
        -11   -1    0    0    0    0  0.00000000000E+00  0.00000000000E+00  0.45593999997E+02  0.45594000000E+02  0.51100000000E-03 0.  1.
         11   -1    0    0    0    0 -0.00000000000E+00 -0.00000000000E+00 -0.45593999997E+02  0.45594000000E+02  0.51100000000E-03 0. -1.
    9900012    2    1    2    0    0 -0.15650294098E+02 -0.22072273042E+01  0.37461438688E+02  0.50528893440E+02  0.30000102099E+02 0.  0.
         12    1    1    2    0    0  0.15650294098E+02  0.22072273042E+01 -0.37461438688E+02  0.40659106560E+02  0.00000000000E+00 0. -1.
         11    1    3    3    0    0  0.11776970127E+01 -0.10471867002E+02  0.18799054542E+02  0.21551135021E+02  0.51100000000E-03 0. -1.
        -11    1    3    3    0    0 -0.54825334989E+01  0.24645500094E+01 -0.42727019856E+00  0.60261712886E+01  0.51100000000E-03 0.  1.
         12    1    3    3    0    0 -0.11345457612E+02  0.58000896881E+01  0.19089654344E+02  0.22951587130E+02  0.00000000000E+00 0. -1.
</event>
<event>
 7    1  0.6136531E-013  0.5052887E+02  0.7816164E-02  0.1300439E+00
        -11   -1    0    0    0    0  0.00000000000E+00  0.00000000000E+00  0.45593999997E+02  0.45594000000E+02  0.51100000000E-03 0.  1.
         11   -1    0    0    0    0 -0.00000000000E+00 -0.00000000000E+00 -0.45593999997E+02  0.45594000000E+02  0.51100000000E-03 0. -1.
    9900012    2    1    2    0    0 -0.19926845671E+02  0.22109714726E+02  0.27699204118E+02  0.50528873443E+02  0.30000041316E+02 0.  0.
         12    1    1    2    0    0  0.19926845671E+02 -0.22109714726E+02 -0.27699204118E+02  0.40659126557E+02  0.00000000000E+00 0. -1.
         11    1    3    3    0    0 -0.13160940946E+02  0.75418549974E+01 -0.17803885175E+01  0.15272842791E+02  0.51100000000E-03 0. -1.
        -11    1    3    3    0    0 -0.62342063230E+01  0.94190882739E+01  0.27473294651E+02  0.29704654040E+02  0.51100000000E-03 0.  1.
         12    1    3    3    0    0 -0.53169840185E+00  0.51487714544E+01  0.20062979846E+01  0.55513766115E+01  0.00000000000E+00 0. -1.
</event>
<event>
 7    1  0.6136531E-013  0.5052886E+02  0.7816164E-02  0.1300439E+00
        -11   -1    0    0    0    0  0.00000000000E+00  0.00000000000E+00  0.45593999997E+02  0.45594000000E+02  0.51100000000E-03 0.  1.
         11   -1    0    0    0    0 -0.00000000000E+00 -0.00000000000E+00 -0.45593999997E+02  0.45594000000E+02  0.51100000000E-03 0. -1.
    9900012    2    1    2    0    0  0.24492683678E+02 -0.83286889336E+01  0.31367291075E+02  0.50528861268E+02  0.30000004310E+02 0.  0.
         12    1    1    2    0    0 -0.24492683678E+02  0.83286889336E+01 -0.31367291075E+02  0.40659138732E+02  0.00000000000E+00 0. -1.
         11    1    3    3    0    0 -0.94772908927E+00  0.48859774279E+01 -0.27823736762E+01  0.57019794272E+01  0.51100000000E-03 0. -1.
        -11    1    3    3    0    0  0.65401349277E+01 -0.57115727790E+01  0.94552309955E+01  0.12837321447E+02  0.51100000000E-03 0.  1.
         12    1    3    3    0    0  0.18900277839E+02 -0.75030935826E+01  0.24694433755E+02  0.31989560394E+02  0.00000000000E+00 0. -1.
</event>
<event>
 7    1  0.6136531E-013  0.5052885E+02  0.7816164E-02  0.1300439E+00
        -11   -1    0    0    0    0  0.00000000000E+00  0.00000000000E+00  0.45593999997E+02  0.45594000000E+02  0.51100000000E-03 0.  1.
         11   -1    0    0    0    0 -0.00000000000E+00 -0.00000000000E+00 -0.45593999997E+02  0.45594000000E+02  0.51100000000E-03 0. -1.
    9900012    2    1    2    0    0 -0.31170668418E+02 -0.25492540303E+02  0.56290317362E+01  0.50528853686E+02  0.29999981263E+02 0.  0.
         12    1    1    2    0    0  0.31170668418E+02  0.25492540303E+02 -0.56290317362E+01  0.40659146314E+02  0.00000000000E+00 0. -1.
         11    1    3    3    0    0  0.13157375781E+01 -0.88835950633E+01  0.13526727612E+01  0.90818032616E+01  0.51100000000E-03 0. -1.
        -11    1    3    3    0    0 -0.25232361258E+02 -0.20263942964E+02  0.65367688437E+01  0.33015583992E+02  0.51100000000E-03 0.  1.
        -12    1    3    3    0    0 -0.72540447379E+01  0.36549977250E+01 -0.22604098687E+01  0.84314664325E+01  0.00000000000E+00 0.  1.
</event>
<event>
 7    1  0.6136531E-013  0.5052888E+02  0.7816164E-02  0.1300439E+00
        -11   -1    0    0    0    0  0.00000000000E+00  0.00000000000E+00  0.45593999997E+02  0.45594000000E+02  0.51100000000E-03 0. -1.
         11   -1    0    0    0    0 -0.00000000000E+00 -0.00000000000E+00 -0.45593999997E+02  0.45594000000E+02  0.51100000000E-03 0.  1.
    9900012    2    1    2    0    0 -0.72932097051E+00  0.11515018753E+02 -0.38987645614E+02  0.50528879541E+02  0.30000059854E+02 0.  0.
         12    1    1    2    0    0  0.72932097051E+00 -0.11515018753E+02  0.38987645614E+02  0.40659120459E+02  0.00000000000E+00 0. -1.
         11    1    3    3    0    0 -0.13552136784E+00 -0.56172103189E+01 -0.25424012417E+01  0.61672702343E+01  0.51100000000E-03 0. -1.
        -11    1    3    3    0    0  0.50800751099E+00  0.18551504341E+02 -0.37800863657E+02  0.42110826143E+02  0.51100000000E-03 0.  1.
        -12    1    3    3    0    0 -0.11018071137E+01 -0.14192752693E+01  0.13556192849E+01  0.22507831641E+01  0.00000000000E+00 0.  1.
</event>
<event>
 7    1  0.6136531E-013  0.5052886E+02  0.7816164E-02  0.1300439E+00
        -11   -1    0    0    0    0  0.00000000000E+00  0.00000000000E+00  0.45593999997E+02  0.45594000000E+02  0.51100000000E-03 0.  1.
         11   -1    0    0    0    0 -0.00000000000E+00 -0.00000000000E+00 -0.45593999997E+02  0.45594000000E+02  0.51100000000E-03 0. -1.
    9900012    2    1    2    0    0 -0.70473601107E+01  0.48310894911E+01  0.39751239169E+02  0.50528859261E+02  0.29999998210E+02 0.  0.
         12    1    1    2    0    0  0.70473601107E+01 -0.48310894911E+01 -0.39751239169E+02  0.40659140739E+02  0.00000000000E+00 0. -1.
         11    1    3    3    0    0 -0.18151942849E+01 -0.12444692758E+01 -0.42935321097E+01  0.48247333925E+01  0.51100000000E-03 0. -1.
        -11    1    3    3    0    0 -0.37659697061E+01  0.97200263571E-01  0.31563219383E+02  0.31787242627E+02  0.51100000000E-03 0.  1.
         12    1    3    3    0    0 -0.14661961196E+01  0.59783585033E+01  0.12481551895E+02  0.13916883242E+02  0.00000000000E+00 0. -1.
</event>
<event>
 7    1  0.6136531E-013  0.5052886E+02  0.7816164E-02  0.1300439E+00
        -11   -1    0    0    0    0  0.00000000000E+00  0.00000000000E+00  0.45593999997E+02  0.45594000000E+02  0.51100000000E-03 0.  1.
         11   -1    0    0    0    0 -0.00000000000E+00 -0.00000000000E+00 -0.45593999997E+02  0.45594000000E+02  0.51100000000E-03 0. -1.
    9900012    2    1    2    0    0 -0.12909481767E+02 -0.30597576747E+02  0.23458461867E+02  0.50528857665E+02  0.29999993359E+02 0.  0.
         12    1    1    2    0    0  0.12909481767E+02  0.30597576747E+02 -0.23458461867E+02  0.40659142335E+02  0.00000000000E+00 0. -1.
         11    1    3    3    0    0 -0.43086494126E+01 -0.12438550972E+02  0.21411633924E+02  0.25134440069E+02  0.51100000000E-03 0.  1.
        -11    1    3    3    0    0 -0.43447975667E+01 -0.66519936345E+01 -0.66457867828E+01  0.10358222214E+02  0.51100000000E-03 0. -1.
         12    1    3    3    0    0 -0.42560347873E+01 -0.11507032141E+02  0.86926147255E+01  0.15036195382E+02  0.00000000000E+00 0. -1.
</event>
<event>
 7    1  0.6136531E-013  0.5052886E+02  0.7816164E-02  0.1300439E+00
        -11   -1    0    0    0    0  0.00000000000E+00  0.00000000000E+00  0.45593999997E+02  0.45594000000E+02  0.51100000000E-03 0. -1.
         11   -1    0    0    0    0 -0.00000000000E+00 -0.00000000000E+00 -0.45593999997E+02  0.45594000000E+02  0.51100000000E-03 0.  1.
    9900012    2    1    2    0    0 -0.21729262544E+01 -0.40560197257E+02 -0.18205801554E+01  0.50528859304E+02  0.29999998342E+02 0.  0.
         12    1    1    2    0    0  0.21729262544E+01  0.40560197257E+02  0.18205801554E+01  0.40659140696E+02  0.00000000000E+00 0. -1.
         11    1    3    3    0    0  0.16752093422E+00 -0.41591341966E+00  0.46418617006E+01  0.46634673307E+01  0.51100000000E-03 0. -1.
        -11    1    3    3    0    0 -0.51504982421E+01 -0.41167469774E+02 -0.34675655492E+01  0.41633066315E+02  0.51100000000E-03 0.  1.
        -12    1    3    3    0    0  0.28100510534E+01  0.10231859369E+01 -0.29948763068E+01  0.42323256583E+01  0.00000000000E+00 0.  1.
</event>
<event>
 7    1  0.6136531E-013  0.5052886E+02  0.7816164E-02  0.1300439E+00
        -11   -1    0    0    0    0  0.00000000000E+00  0.00000000000E+00  0.45593999997E+02  0.45594000000E+02  0.51100000000E-03 0.  1.
         11   -1    0    0    0    0 -0.00000000000E+00 -0.00000000000E+00 -0.45593999997E+02  0.45594000000E+02  0.51100000000E-03 0. -1.
    9900012    2    1    2    0    0 -0.15985330464E+01 -0.27793829685E+02  0.29632981960E+02  0.50528857163E+02  0.29999991831E+02 0.  0.
         12    1    1    2    0    0  0.15985330464E+01  0.27793829685E+02 -0.29632981960E+02  0.40659142837E+02  0.00000000000E+00 0. -1.
         11    1    3    3    0    0 -0.17185869541E+01  0.38747807556E+00 -0.66285570714E+00  0.18823013381E+01  0.51100000000E-03 0. -1.
        -11    1    3    3    0    0  0.24021816412E+01 -0.10679904259E+02  0.28944474142E+02  0.30945329457E+02  0.51100000000E-03 0.  1.
        -12    1    3    3    0    0 -0.22821277336E+01 -0.17501403502E+02  0.13513635250E+01  0.17701226367E+02  0.00000000000E+00 0.  1.
</event>
<event>
 7    1  0.6136531E-013  0.5052886E+02  0.7816164E-02  0.1300439E+00
        -11   -1    0    0    0    0  0.00000000000E+00  0.00000000000E+00  0.45593999997E+02  0.45594000000E+02  0.51100000000E-03 0.  1.
         11   -1    0    0    0    0 -0.00000000000E+00 -0.00000000000E+00 -0.45593999997E+02  0.45594000000E+02  0.51100000000E-03 0. -1.
    9900012    2    1    2    0    0  0.85385754901E+01  0.73234904503E+00  0.39745713663E+02  0.50528863743E+02  0.30000011834E+02 0.  0.
         12    1    1    2    0    0 -0.85385754901E+01 -0.73234904503E+00 -0.39745713663E+02  0.40659136257E+02  0.00000000000E+00 0. -1.
         11    1    3    3    0    0 -0.83840556069E+01 -0.70807258216E+01  0.12509783156E+02  0.16641025853E+02  0.51100000000E-03 0. -1.
        -11    1    3    3    0    0  0.73386103519E+01  0.62648945714E+01  0.18324423431E+02  0.20709625787E+02  0.51100000000E-03 0.  1.
         12    1    3    3    0    0  0.95840207450E+01  0.15481802952E+01  0.89115070768E+01  0.13178212104E+02  0.00000000000E+00 0. -1.
</event>
<event>
 7    1  0.6136531E-013  0.5052886E+02  0.7816164E-02  0.1300439E+00
        -11   -1    0    0    0    0  0.00000000000E+00  0.00000000000E+00  0.45593999997E+02  0.45594000000E+02  0.51100000000E-03 0.  1.
         11   -1    0    0    0    0 -0.00000000000E+00 -0.00000000000E+00 -0.45593999997E+02  0.45594000000E+02  0.51100000000E-03 0. -1.
    9900012    2    1    2    0    0  0.26441637295E+02  0.29819943723E+02 -0.80483777718E+01  0.50528860668E+02  0.30000002486E+02 0.  0.
         12    1    1    2    0    0 -0.26441637295E+02 -0.29819943723E+02  0.80483777718E+01  0.40659139332E+02  0.00000000000E+00 0. -1.
         11    1    3    3    0    0  0.13731832311E+02  0.17635508996E+02 -0.16691600008E+02  0.27895947865E+02  0.51100000000E-03 0.  1.
        -11    1    3    3    0    0  0.26740718974E+01  0.10334427904E+02  0.37375393532E+01  0.11310183964E+02  0.51100000000E-03 0. -1.
         12    1    3    3    0    0  0.10035733086E+02  0.18500068229E+01  0.49056828829E+01  0.11322728840E+02  0.00000000000E+00 0. -1.
</event>
<event>
 7    1  0.6136531E-013  0.5052886E+02  0.7816164E-02  0.1300439E+00
        -11   -1    0    0    0    0  0.00000000000E+00  0.00000000000E+00  0.45593999997E+02  0.45594000000E+02  0.51100000000E-03 0. -1.
         11   -1    0    0    0    0 -0.00000000000E+00 -0.00000000000E+00 -0.45593999997E+02  0.45594000000E+02  0.51100000000E-03 0.  1.
    9900012    2    1    2    0    0  0.87615516367E+00 -0.57486504736E+01 -0.40241160608E+02  0.50528860348E+02  0.30000001514E+02 0.  0.
         12    1    1    2    0    0 -0.87615516367E+00  0.57486504736E+01  0.40241160608E+02  0.40659139652E+02  0.00000000000E+00 0. -1.
         11    1    3    3    0    0  0.61492666023E+01  0.88272525186E+01 -0.16946800056E+02  0.20073064020E+02  0.51100000000E-03 0. -1.
        -11    1    3    3    0    0  0.24675540910E+01 -0.83125273906E+01 -0.61533545550E+01  0.10632530618E+02  0.51100000000E-03 0.  1.
         12    1    3    3    0    0 -0.77406655296E+01 -0.62633756016E+01 -0.17141005998E+02  0.19823265709E+02  0.00000000000E+00 0. -1.
</event>
<event>
 7    1  0.6136531E-013  0.5052884E+02  0.7816164E-02  0.1300439E+00
        -11   -1    0    0    0    0  0.00000000000E+00  0.00000000000E+00  0.45593999997E+02  0.45594000000E+02  0.51100000000E-03 0.  1.
         11   -1    0    0    0    0 -0.00000000000E+00 -0.00000000000E+00 -0.45593999997E+02  0.45594000000E+02  0.51100000000E-03 0. -1.
    9900012    2    1    2    0    0  0.19144127228E+02  0.81515458433E+01  0.34931672290E+02  0.50528843148E+02  0.29999949232E+02 0.  0.
         12    1    1    2    0    0 -0.19144127228E+02 -0.81515458433E+01 -0.34931672290E+02  0.40659156852E+02  0.00000000000E+00 0. -1.
         11    1    3    3    0    0  0.12013413369E+02 -0.58076023107E+01  0.22062951267E+02  0.25784184382E+02  0.51100000000E-03 0. -1.
        -11    1    3    3    0    0  0.96580581465E+01  0.15428639502E+02  0.11338813219E+02  0.21445038809E+02  0.51100000000E-03 0.  1.
        -12    1    3    3    0    0 -0.25273442877E+01 -0.14694913481E+01  0.15299078033E+01  0.32996199565E+01  0.00000000000E+00 0.  1.
</event>
<event>
 7    1  0.6136531E-013  0.5052886E+02  0.7816164E-02  0.1300439E+00
        -11   -1    0    0    0    0  0.00000000000E+00  0.00000000000E+00  0.45593999997E+02  0.45594000000E+02  0.51100000000E-03 0. -1.
         11   -1    0    0    0    0 -0.00000000000E+00 -0.00000000000E+00 -0.45593999997E+02  0.45594000000E+02  0.51100000000E-03 0.  1.
    9900012    2    1    2    0    0 -0.12408569790E+02  0.20114435955E+02 -0.33084778706E+02  0.50528859330E+02  0.29999998419E+02 0.  0.
         12    1    1    2    0    0  0.12408569790E+02 -0.20114435955E+02  0.33084778706E+02  0.40659140670E+02  0.00000000000E+00 0. -1.
         11    1    3    3    0    0 -0.20578575826E+02  0.82658058730E+01 -0.19811052493E+02  0.29736831218E+02  0.51100000000E-03 0. -1.
        -11    1    3    3    0    0  0.18197161946E+01  0.65379017684E+01 -0.95477230675E+01  0.11713861131E+02  0.51100000000E-03 0.  1.
         12    1    3    3    0    0  0.63502898415E+01  0.53107283133E+01 -0.37260031457E+01  0.90781669807E+01  0.00000000000E+00 0. -1.
</event>
<event>
 7    1  0.6136531E-013  0.5052886E+02  0.7816164E-02  0.1300439E+00
        -11   -1    0    0    0    0  0.00000000000E+00  0.00000000000E+00  0.45593999997E+02  0.45594000000E+02  0.51100000000E-03 0. -1.
         11   -1    0    0    0    0 -0.00000000000E+00 -0.00000000000E+00 -0.45593999997E+02  0.45594000000E+02  0.51100000000E-03 0.  1.
    9900012    2    1    2    0    0 -0.26093013575E+02  0.14086606733E+02 -0.27818838123E+02  0.50528860791E+02  0.30000002861E+02 0.  0.
         12    1    1    2    0    0  0.26093013575E+02 -0.14086606733E+02  0.27818838123E+02  0.40659139209E+02  0.00000000000E+00 0. -1.
         11    1    3    3    0    0 -0.90141139842E+00 -0.17169125298E+01  0.53469302385E+01  0.56877055463E+01  0.51100000000E-03 0. -1.
        -11    1    3    3    0    0 -0.15279272601E+02  0.79507863116E+01 -0.22234623407E+02  0.28125604927E+02  0.51100000000E-03 0.  1.
         12    1    3    3    0    0 -0.99123295759E+01  0.78527329516E+01 -0.10931144954E+02  0.16715550318E+02  0.00000000000E+00 0. -1.
</event>
<event>
 7    1  0.6136531E-013  0.5052890E+02  0.7816164E-02  0.1300439E+00
        -11   -1    0    0    0    0  0.00000000000E+00  0.00000000000E+00  0.45593999997E+02  0.45594000000E+02  0.51100000000E-03 0.  1.
         11   -1    0    0    0    0 -0.00000000000E+00 -0.00000000000E+00 -0.45593999997E+02  0.45594000000E+02  0.51100000000E-03 0. -1.
    9900012    2    1    2    0    0  0.72008185201E+00  0.28596650096E+02  0.28894216246E+02  0.50528897119E+02  0.30000113282E+02 0.  0.
         12    1    1    2    0    0 -0.72008185201E+00 -0.28596650096E+02 -0.28894216246E+02  0.40659102881E+02  0.00000000000E+00 0. -1.
         11    1    3    3    0    0 -0.11258584046E+00 -0.15623138988E+01 -0.48482249794E+01  0.50949765457E+01  0.51100000000E-03 0. -1.
        -11    1    3    3    0    0 -0.71274742090E+00  0.13440818981E+02  0.12610190454E+02  0.18443983499E+02  0.51100000000E-03 0.  1.
         12    1    3    3    0    0  0.15454151134E+01  0.16718145014E+02  0.21132250772E+02  0.26989937074E+02  0.00000000000E+00 0. -1.
</event>
<event>
 7    1  0.6136531E-013  0.5052887E+02  0.7816164E-02  0.1300439E+00
        -11   -1    0    0    0    0  0.00000000000E+00  0.00000000000E+00  0.45593999997E+02  0.45594000000E+02  0.51100000000E-03 0. -1.
         11   -1    0    0    0    0 -0.00000000000E+00 -0.00000000000E+00 -0.45593999997E+02  0.45594000000E+02  0.51100000000E-03 0.  1.
    9900012    2    1    2    0    0  0.27686766667E+02  0.27714641275E+02  0.10886084760E+02  0.50528865345E+02  0.30000016703E+02 0.  0.
         12    1    1    2    0    0 -0.27686766667E+02 -0.27714641275E+02 -0.10886084760E+02  0.40659134655E+02  0.00000000000E+00 0. -1.
         11    1    3    3    0    0  0.18567951800E+01  0.36373717946E+00  0.33080923838E+01  0.38109668795E+01  0.51100000000E-03 0. -1.
        -11    1    3    3    0    0  0.74379783668E+01  0.13814232455E+02 -0.93746242615E+01  0.18276764506E+02  0.51100000000E-03 0.  1.
        -12    1    3    3    0    0  0.18391993120E+02  0.13536671640E+02  0.16952616638E+02  0.28441133959E+02  0.00000000000E+00 0.  1.
</event>
<event>
 7    1  0.6136531E-013  0.5052884E+02  0.7816164E-02  0.1300439E+00
        -11   -1    0    0    0    0  0.00000000000E+00  0.00000000000E+00  0.45593999997E+02  0.45594000000E+02  0.51100000000E-03 0.  1.
         11   -1    0    0    0    0 -0.00000000000E+00 -0.00000000000E+00 -0.45593999997E+02  0.45594000000E+02  0.51100000000E-03 0. -1.
    9900012    2    1    2    0    0 -0.25738754480E+02  0.11874980729E+02  0.29149078782E+02  0.50528838138E+02  0.29999934004E+02 0.  0.
         12    1    1    2    0    0  0.25738754480E+02 -0.11874980729E+02 -0.29149078782E+02  0.40659161862E+02  0.00000000000E+00 0. -1.
         11    1    3    3    0    0 -0.64291776349E+01  0.10242999367E+02 -0.20663577854E+01  0.12268789503E+02  0.51100000000E-03 0. -1.
        -11    1    3    3    0    0  0.36418422034E+00  0.40615811256E+00  0.70661787701E+01  0.70872051777E+01  0.51100000000E-03 0.  1.
         12    1    3    3    0    0 -0.19673761065E+02  0.12258232493E+01  0.24149257797E+02  0.31172843458E+02  0.00000000000E+00 0. -1.
</event>
<event>
 7    1  0.6136531E-013  0.5052886E+02  0.7816164E-02  0.1300439E+00
        -11   -1    0    0    0    0  0.00000000000E+00  0.00000000000E+00  0.45593999997E+02  0.45594000000E+02  0.51100000000E-03 0.  1.
         11   -1    0    0    0    0 -0.00000000000E+00 -0.00000000000E+00 -0.45593999997E+02  0.45594000000E+02  0.51100000000E-03 0. -1.
    9900012    2    1    2    0    0  0.36541760410E+02 -0.36137560186E+01 -0.17458707434E+02  0.50528856481E+02  0.29999989760E+02 0.  0.
         12    1    1    2    0    0 -0.36541760410E+02  0.36137560186E+01  0.17458707434E+02  0.40659143519E+02  0.00000000000E+00 0. -1.
         11    1    3    3    0    0  0.88467104043E+01  0.72499979225E+01 -0.17076341484E+02  0.20553058010E+02  0.51100000000E-03 0. -1.
        -11    1    3    3    0    0  0.11988158794E+02 -0.30488558369E+01 -0.10914635271E+01  0.12417840636E+02  0.51100000000E-03 0.  1.
         12    1    3    3    0    0  0.15706891212E+02 -0.78148981042E+01  0.70909757706E+00  0.17557957834E+02  0.00000000000E+00 0. -1.
</event>
<event>
 7    1  0.6136531E-013  0.5052886E+02  0.7816164E-02  0.1300439E+00
        -11   -1    0    0    0    0  0.00000000000E+00  0.00000000000E+00  0.45593999997E+02  0.45594000000E+02  0.51100000000E-03 0. -1.
         11   -1    0    0    0    0 -0.00000000000E+00 -0.00000000000E+00 -0.45593999997E+02  0.45594000000E+02  0.51100000000E-03 0.  1.
    9900012    2    1    2    0    0  0.32207022123E+02 -0.13709462176E+02 -0.20686323783E+02  0.50528860574E+02  0.30000002202E+02 0.  0.
         12    1    1    2    0    0 -0.32207022123E+02  0.13709462176E+02  0.20686323783E+02  0.40659139426E+02  0.00000000000E+00 0. -1.
         11    1    3    3    0    0 -0.16004544517E+01  0.57109867987E+01 -0.24382483861E+01  0.64126344135E+01  0.51100000000E-03 0. -1.
        -11    1    3    3    0    0  0.32073688870E+02 -0.15163037544E+02 -0.15173754513E+02  0.38586034411E+02  0.51100000000E-03 0.  1.
        -12    1    3    3    0    0  0.17337877045E+01 -0.42574114306E+01 -0.30743208840E+01  0.55301917499E+01  0.00000000000E+00 0.  1.
</event>
<event>
 7    1  0.6136531E-013  0.5052885E+02  0.7816164E-02  0.1300439E+00
        -11   -1    0    0    0    0  0.00000000000E+00  0.00000000000E+00  0.45593999997E+02  0.45594000000E+02  0.51100000000E-03 0.  1.
         11   -1    0    0    0    0 -0.00000000000E+00 -0.00000000000E+00 -0.45593999997E+02  0.45594000000E+02  0.51100000000E-03 0. -1.
    9900012    2    1    2    0    0 -0.25919631554E+02  0.19951507709E+02  0.24151118618E+02  0.50528849858E+02  0.29999969630E+02 0.  0.
         12    1    1    2    0    0  0.25919631554E+02 -0.19951507709E+02 -0.24151118618E+02  0.40659150142E+02  0.00000000000E+00 0. -1.
         11    1    3    3    0    0 -0.65841144826E+00 -0.36171253873E+01 -0.16696163147E+01  0.40379104252E+01  0.51100000000E-03 0. -1.
        -11    1    3    3    0    0 -0.21776503446E+02  0.25804157531E+02  0.19669941772E+02  0.39076556371E+02  0.51100000000E-03 0.  1.
        -12    1    3    3    0    0 -0.34847166597E+01 -0.22355244351E+01  0.61507931598E+01  0.74143830621E+01  0.00000000000E+00 0.  1.
</event>
<event>
 7    1  0.6136531E-013  0.5052887E+02  0.7816164E-02  0.1300439E+00
        -11   -1    0    0    0    0  0.00000000000E+00  0.00000000000E+00  0.45593999997E+02  0.45594000000E+02  0.51100000000E-03 0.  1.
         11   -1    0    0    0    0 -0.00000000000E+00 -0.00000000000E+00 -0.45593999997E+02  0.45594000000E+02  0.51100000000E-03 0. -1.
    9900012    2    1    2    0    0 -0.16873152946E+02 -0.23995865872E+02  0.28154224327E+02  0.50528865519E+02  0.30000017231E+02 0.  0.
         12    1    1    2    0    0  0.16873152946E+02  0.23995865872E+02 -0.28154224327E+02  0.40659134481E+02  0.00000000000E+00 0. -1.
         11    1    3    3    0    0  0.41456883506E+01 -0.11380847396E+01  0.44531749046E+01  0.61897282466E+01  0.51100000000E-03 0. -1.
        -11    1    3    3    0    0 -0.94246025139E+01 -0.16809331866E+02  0.25044484103E+01  0.19433194087E+02  0.51100000000E-03 0.  1.
        -12    1    3    3    0    0 -0.11594238783E+02 -0.60484492671E+01  0.21196601012E+02  0.24905943185E+02  0.00000000000E+00 0.  1.
</event>
<event>
 7    1  0.6136531E-013  0.5052883E+02  0.7816164E-02  0.1300439E+00
        -11   -1    0    0    0    0  0.00000000000E+00  0.00000000000E+00  0.45593999997E+02  0.45594000000E+02  0.51100000000E-03 0.  1.
         11   -1    0    0    0    0 -0.00000000000E+00 -0.00000000000E+00 -0.45593999997E+02  0.45594000000E+02  0.51100000000E-03 0. -1.
    9900012    2    1    2    0    0 -0.32463203817E+02 -0.18858537132E+02  0.15609733915E+02  0.50528833534E+02  0.29999920009E+02 0.  0.
         12    1    1    2    0    0  0.32463203817E+02  0.18858537132E+02 -0.15609733915E+02  0.40659166466E+02  0.00000000000E+00 0. -1.
         11    1    3    3    0    0 -0.83470137548E+01  0.21193297059E+01 -0.59542869691E+01  0.10469848642E+02  0.51100000000E-03 0. -1.
        -11    1    3    3    0    0 -0.24291736813E+02 -0.20669845286E+02  0.18293538664E+02  0.36769342375E+02  0.51100000000E-03 0.  1.
        -12    1    3    3    0    0  0.17554675054E+00 -0.30802155093E+00  0.32704822195E+01  0.32896425164E+01  0.00000000000E+00 0.  1.
</event>
<event>
 7    1  0.6136531E-013  0.5052886E+02  0.7816164E-02  0.1300439E+00
        -11   -1    0    0    0    0  0.00000000000E+00  0.00000000000E+00  0.45593999997E+02  0.45594000000E+02  0.51100000000E-03 0.  1.
         11   -1    0    0    0    0 -0.00000000000E+00 -0.00000000000E+00 -0.45593999997E+02  0.45594000000E+02  0.51100000000E-03 0. -1.
    9900012    2    1    2    0    0 -0.36086011218E+02  0.12368777233E+02  0.14070480317E+02  0.50528864837E+02  0.30000015159E+02 0.  0.
         12    1    1    2    0    0  0.36086011218E+02 -0.12368777233E+02 -0.14070480317E+02  0.40659135163E+02  0.00000000000E+00 0. -1.
         11    1    3    3    0    0 -0.33043562882E+01  0.74609680221E+01 -0.56843067332E-01  0.81601498578E+01  0.51100000000E-03 0. -1.
        -11    1    3    3    0    0 -0.32300475724E+02  0.22302561242E+01  0.48967217834E+01  0.32745574646E+02  0.51100000000E-03 0.  1.
        -12    1    3    3    0    0 -0.48117920505E+00  0.26775530864E+01  0.92306016013E+01  0.96231403336E+01  0.00000000000E+00 0.  1.
</event>
<event>
 7    1  0.6136531E-013  0.5052886E+02  0.7816164E-02  0.1300439E+00
        -11   -1    0    0    0    0  0.00000000000E+00  0.00000000000E+00  0.45593999997E+02  0.45594000000E+02  0.51100000000E-03 0.  1.
         11   -1    0    0    0    0 -0.00000000000E+00 -0.00000000000E+00 -0.45593999997E+02  0.45594000000E+02  0.51100000000E-03 0. -1.
    9900012    2    1    2    0    0  0.40367340513E+02 -0.46148730544E+01  0.15319169425E+01  0.50528855851E+02  0.29999987845E+02 0.  0.
         12    1    1    2    0    0 -0.40367340513E+02  0.46148730544E+01 -0.15319169425E+01  0.40659144149E+02  0.00000000000E+00 0. -1.
         11    1    3    3    0    0  0.30120457838E+02 -0.36861168043E+01  0.67130646980E+01  0.31078846107E+02  0.51100000000E-03 0. -1.
        -11    1    3    3    0    0  0.31262071483E+01 -0.79950569222E+01 -0.12480954942E+01  0.86747823573E+01  0.51100000000E-03 0.  1.
         12    1    3    3    0    0  0.71206755272E+01  0.70663006721E+01 -0.39330522612E+01  0.10775227387E+02  0.00000000000E+00 0. -1.
</event>
<event>
 7    1  0.6136531E-013  0.5052886E+02  0.7816164E-02  0.1300439E+00
        -11   -1    0    0    0    0  0.00000000000E+00  0.00000000000E+00  0.45593999997E+02  0.45594000000E+02  0.51100000000E-03 0.  1.
         11   -1    0    0    0    0 -0.00000000000E+00 -0.00000000000E+00 -0.45593999997E+02  0.45594000000E+02  0.51100000000E-03 0. -1.
    9900012    2    1    2    0    0 -0.28478084888E+02 -0.34276989243E+01  0.28816927248E+02  0.50528859148E+02  0.29999997866E+02 0.  0.
         12    1    1    2    0    0  0.28478084888E+02  0.34276989243E+01 -0.28816927248E+02  0.40659140852E+02  0.00000000000E+00 0. -1.
         11    1    3    3    0    0 -0.15210119073E+00  0.62949873288E+01 -0.21228173180E+01  0.66450247455E+01  0.51100000000E-03 0. -1.
        -11    1    3    3    0    0 -0.63248391712E+01 -0.52874886348E+01  0.52620793975E+01  0.97801128036E+01  0.51100000000E-03 0.  1.
         12    1    3    3    0    0 -0.22001144527E+02 -0.44351976183E+01  0.25677665168E+02  0.34103721599E+02  0.00000000000E+00 0. -1.
</event>
<event>
 7    1  0.6136531E-013  0.5052886E+02  0.7816164E-02  0.1300439E+00
        -11   -1    0    0    0    0  0.00000000000E+00  0.00000000000E+00  0.45593999997E+02  0.45594000000E+02  0.51100000000E-03 0. -1.
         11   -1    0    0    0    0 -0.00000000000E+00 -0.00000000000E+00 -0.45593999997E+02  0.45594000000E+02  0.51100000000E-03 0.  1.
    9900012    2    1    2    0    0  0.18394634084E+02 -0.14306850035E+02 -0.33318420759E+02  0.50528859787E+02  0.29999999807E+02 0.  0.
         12    1    1    2    0    0 -0.18394634084E+02  0.14306850035E+02  0.33318420759E+02  0.40659140213E+02  0.00000000000E+00 0. -1.
         11    1    3    3    0    0  0.13064803429E+02 -0.39261759069E+01  0.11910896379E+01  0.13693890633E+02  0.51100000000E-03 0. -1.
        -11    1    3    3    0    0  0.46037175193E+00 -0.44681442770E+01 -0.73302960196E+01  0.85970631861E+01  0.51100000000E-03 0.  1.
         12    1    3    3    0    0  0.48694589036E+01 -0.59125298514E+01 -0.27179214377E+02  0.28237905967E+02  0.00000000000E+00 0. -1.
</event>
<event>
 7    1  0.6136531E-013  0.5052886E+02  0.7816164E-02  0.1300439E+00
        -11   -1    0    0    0    0  0.00000000000E+00  0.00000000000E+00  0.45593999997E+02  0.45594000000E+02  0.51100000000E-03 0. -1.
         11   -1    0    0    0    0 -0.00000000000E+00 -0.00000000000E+00 -0.45593999997E+02  0.45594000000E+02  0.51100000000E-03 0.  1.
    9900012    2    1    2    0    0  0.18147975521E+02 -0.16059510610E+02 -0.32648261952E+02  0.50528857055E+02  0.29999991504E+02 0.  0.
         12    1    1    2    0    0 -0.18147975521E+02  0.16059510610E+02  0.32648261952E+02  0.40659142945E+02  0.00000000000E+00 0. -1.
         11    1    3    3    0    0  0.61935035163E+01 -0.72480373087E+01  0.16472023418E+01  0.96750610566E+01  0.51100000000E-03 0. -1.
        -11    1    3    3    0    0 -0.13771221487E+01 -0.57938385133E+01 -0.20837005449E+02  0.21671313446E+02  0.51100000000E-03 0.  1.
        -12    1    3    3    0    0  0.13331594154E+02 -0.30176347884E+01 -0.13458458844E+02  0.19182482552E+02  0.00000000000E+00 0.  1.
</event>
<event>
 7    1  0.6136531E-013  0.5052881E+02  0.7816164E-02  0.1300439E+00
        -11   -1    0    0    0    0  0.00000000000E+00  0.00000000000E+00  0.45593999997E+02  0.45594000000E+02  0.51100000000E-03 0. -1.
         11   -1    0    0    0    0 -0.00000000000E+00 -0.00000000000E+00 -0.45593999997E+02  0.45594000000E+02  0.51100000000E-03 0.  1.
    9900012    2    1    2    0    0  0.34520024617E+02 -0.52891492636E+01 -0.20822159766E+02  0.50528812394E+02  0.29999855751E+02 0.  0.
         12    1    1    2    0    0 -0.34520024617E+02  0.52891492636E+01  0.20822159766E+02  0.40659187606E+02  0.00000000000E+00 0. -1.
         11    1    3    3    0    0  0.40622020702E+01 -0.36245180913E+01  0.52851937670E+01  0.75876142805E+01  0.51100000000E-03 0. -1.
        -11    1    3    3    0    0  0.23030091793E+02  0.53093075998E+01 -0.20641612154E+02  0.31379133636E+02  0.51100000000E-03 0.  1.
        -12    1    3    3    0    0  0.74277307537E+01 -0.69739387721E+01 -0.54657413796E+01  0.11562064477E+02  0.00000000000E+00 0.  1.
</event>
<event>
 7    1  0.6136531E-013  0.5052886E+02  0.7816164E-02  0.1300439E+00
        -11   -1    0    0    0    0  0.00000000000E+00  0.00000000000E+00  0.45593999997E+02  0.45594000000E+02  0.51100000000E-03 0.  1.
         11   -1    0    0    0    0 -0.00000000000E+00 -0.00000000000E+00 -0.45593999997E+02  0.45594000000E+02  0.51100000000E-03 0. -1.
    9900012    2    1    2    0    0 -0.12265086608E+02 -0.30164096632E+02  0.24348730745E+02  0.50528858788E+02  0.29999996773E+02 0.  0.
         12    1    1    2    0    0  0.12265086608E+02  0.30164096632E+02 -0.24348730745E+02  0.40659141212E+02  0.00000000000E+00 0. -1.
         11    1    3    3    0    0  0.19936558823E+01 -0.13943188455E+02  0.15116972238E+01  0.14165888494E+02  0.51100000000E-03 0. -1.
        -11    1    3    3    0    0 -0.18403948011E+02 -0.15056109622E+02  0.20834330907E+02  0.31614254442E+02  0.51100000000E-03 0.  1.
        -12    1    3    3    0    0  0.41452055207E+01 -0.11647985559E+01  0.20027026146E+01  0.47487158524E+01  0.00000000000E+00 0.  1.
</event>
<event>
 7    1  0.6136531E-013  0.5052884E+02  0.7816164E-02  0.1300439E+00
        -11   -1    0    0    0    0  0.00000000000E+00  0.00000000000E+00  0.45593999997E+02  0.45594000000E+02  0.51100000000E-03 0.  1.
         11   -1    0    0    0    0 -0.00000000000E+00 -0.00000000000E+00 -0.45593999997E+02  0.45594000000E+02  0.51100000000E-03 0. -1.
    9900012    2    1    2    0    0  0.20719099361E+02 -0.28995921620E+02  0.19573528075E+02  0.50528836823E+02  0.29999930007E+02 0.  0.
         12    1    1    2    0    0 -0.20719099361E+02  0.28995921620E+02 -0.19573528075E+02  0.40659163177E+02  0.00000000000E+00 0. -1.
         11    1    3    3    0    0  0.95382418461E+01 -0.17452227053E+02 -0.45702201936E+00  0.19893897457E+02  0.51100000000E-03 0. -1.
        -11    1    3    3    0    0  0.11067291586E+02 -0.10865300192E+01  0.15873391182E+02  0.19381177425E+02  0.51100000000E-03 0.  1.
         12    1    3    3    0    0  0.11356592971E+00 -0.10457164548E+02  0.41571589132E+01  0.11253761941E+02  0.00000000000E+00 0. -1.
</event>
<event>
 7    1  0.6136531E-013  0.5052894E+02  0.7816164E-02  0.1300439E+00
        -11   -1    0    0    0    0  0.00000000000E+00  0.00000000000E+00  0.45593999997E+02  0.45594000000E+02  0.51100000000E-03 0.  1.
         11   -1    0    0    0    0 -0.00000000000E+00 -0.00000000000E+00 -0.45593999997E+02  0.45594000000E+02  0.51100000000E-03 0. -1.
    9900012    2    1    2    0    0  0.12184803838E+02  0.63906855953E+01  0.38260282539E+02  0.50528935489E+02  0.30000229912E+02 0.  0.
         12    1    1    2    0    0 -0.12184803838E+02 -0.63906855953E+01 -0.38260282539E+02  0.40659064511E+02  0.00000000000E+00 0. -1.
         11    1    3    3    0    0  0.16109824394E+00  0.10512677672E+02  0.69244693500E+01  0.12589305800E+02  0.51100000000E-03 0. -1.
        -11    1    3    3    0    0  0.16202995729E+01 -0.76527895079E+01  0.22562861982E+02  0.23880395705E+02  0.51100000000E-03 0.  1.
        -12    1    3    3    0    0  0.10403406021E+02  0.35307974309E+01  0.87729512066E+01  0.14059233984E+02  0.00000000000E+00 0.  1.
</event>
<event>
 7    1  0.6136531E-013  0.5052886E+02  0.7816164E-02  0.1300439E+00
        -11   -1    0    0    0    0  0.00000000000E+00  0.00000000000E+00  0.45593999997E+02  0.45594000000E+02  0.51100000000E-03 0.  1.
         11   -1    0    0    0    0 -0.00000000000E+00 -0.00000000000E+00 -0.45593999997E+02  0.45594000000E+02  0.51100000000E-03 0. -1.
    9900012    2    1    2    0    0 -0.28529342196E+02  0.21750783814E+02 -0.19134941491E+02  0.50528856520E+02  0.29999989877E+02 0.  0.
         12    1    1    2    0    0  0.28529342196E+02 -0.21750783814E+02  0.19134941491E+02  0.40659143480E+02  0.00000000000E+00 0. -1.
         11    1    3    3    0    0 -0.13550300108E+02  0.13388557406E+02  0.43179374266E+01  0.19532247344E+02  0.51100000000E-03 0.  1.
        -11    1    3    3    0    0 -0.11505296558E+02  0.94251622154E+01 -0.22923263268E+02  0.27325474027E+02  0.51100000000E-03 0. -1.
        -12    1    3    3    0    0 -0.34737455309E+01 -0.10629358072E+01 -0.52961564945E+00  0.36711351487E+01  0.00000000000E+00 0.  1.
</event>
<event>
 7    1  0.6136531E-013  0.5052883E+02  0.7816164E-02  0.1300439E+00
        -11   -1    0    0    0    0  0.00000000000E+00  0.00000000000E+00  0.45593999997E+02  0.45594000000E+02  0.51100000000E-03 0.  1.
         11   -1    0    0    0    0 -0.00000000000E+00 -0.00000000000E+00 -0.45593999997E+02  0.45594000000E+02  0.51100000000E-03 0. -1.
    9900012    2    1    2    0    0 -0.12747529079E+02 -0.33223147167E+02  0.19669549720E+02  0.50528828937E+02  0.29999906038E+02 0.  0.
         12    1    1    2    0    0  0.12747529079E+02  0.33223147167E+02 -0.19669549720E+02  0.40659171063E+02  0.00000000000E+00 0. -1.
         11    1    3    3    0    0 -0.14839990575E+02 -0.40138932221E+01  0.58533905021E+01  0.16449888745E+02  0.51100000000E-03 0. -1.
        -11    1    3    3    0    0 -0.30295765597E+01 -0.22356771962E+02  0.10745072840E+02  0.24989201213E+02  0.51100000000E-03 0.  1.
         12    1    3    3    0    0  0.51220380558E+01 -0.68524819828E+01  0.30710863780E+01  0.90897389793E+01  0.00000000000E+00 0. -1.
</event>
<event>
 7    1  0.6136531E-013  0.5052886E+02  0.7816164E-02  0.1300439E+00
        -11   -1    0    0    0    0  0.00000000000E+00  0.00000000000E+00  0.45593999997E+02  0.45594000000E+02  0.51100000000E-03 0. -1.
         11   -1    0    0    0    0 -0.00000000000E+00 -0.00000000000E+00 -0.45593999997E+02  0.45594000000E+02  0.51100000000E-03 0.  1.
    9900012    2    1    2    0    0  0.24408489084E+02 -0.24369571610E+02 -0.21529403833E+02  0.50528860939E+02  0.30000003309E+02 0.  0.
         12    1    1    2    0    0 -0.24408489084E+02  0.24369571610E+02  0.21529403833E+02  0.40659139061E+02  0.00000000000E+00 0. -1.
         11    1    3    3    0    0  0.18428767623E+01 -0.27281661635E+01 -0.39214673896E+00  0.33155489294E+01  0.51100000000E-03 0. -1.
        -11    1    3    3    0    0  0.25317662103E+02 -0.22384909760E+02 -0.93186311990E+01  0.35055742569E+02  0.51100000000E-03 0.  1.
        -12    1    3    3    0    0 -0.27520497821E+01  0.74350431318E+00 -0.11818625895E+02  0.12157569441E+02  0.00000000000E+00 0.  1.
</event>
<event>
 7    1  0.6136531E-013  0.5052886E+02  0.7816164E-02  0.1300439E+00
        -11   -1    0    0    0    0  0.00000000000E+00  0.00000000000E+00  0.45593999997E+02  0.45594000000E+02  0.51100000000E-03 0.  1.
         11   -1    0    0    0    0 -0.00000000000E+00 -0.00000000000E+00 -0.45593999997E+02  0.45594000000E+02  0.51100000000E-03 0. -1.
    9900012    2    1    2    0    0  0.14079448153E+02 -0.30950749475E+02  0.22293183223E+02  0.50528858696E+02  0.29999996493E+02 0.  0.
         12    1    1    2    0    0 -0.14079448153E+02  0.30950749475E+02 -0.22293183223E+02  0.40659141304E+02  0.00000000000E+00 0. -1.
         11    1    3    3    0    0  0.50317357807E+01  0.52655064068E+01  0.24868305339E+01  0.76959891536E+01  0.51100000000E-03 0. -1.
        -11    1    3    3    0    0  0.10218371249E+02 -0.33352383988E+02  0.18073285297E+02  0.39286642391E+02  0.51100000000E-03 0.  1.
        -12    1    3    3    0    0 -0.11706588762E+01 -0.28638718937E+01  0.17330673917E+01  0.35462271518E+01  0.00000000000E+00 0.  1.
</event>
<event>
 7    1  0.6136531E-013  0.5052886E+02  0.7816164E-02  0.1300439E+00
        -11   -1    0    0    0    0  0.00000000000E+00  0.00000000000E+00  0.45593999997E+02  0.45594000000E+02  0.51100000000E-03 0. -1.
         11   -1    0    0    0    0 -0.00000000000E+00 -0.00000000000E+00 -0.45593999997E+02  0.45594000000E+02  0.51100000000E-03 0.  1.
    9900012    2    1    2    0    0 -0.21653870541E+02  0.16515382753E+02  0.30191345378E+02  0.50528864340E+02  0.30000013647E+02 0.  0.
         12    1    1    2    0    0  0.21653870541E+02 -0.16515382753E+02 -0.30191345378E+02  0.40659135660E+02  0.00000000000E+00 0. -1.
         11    1    3    3    0    0 -0.11920502650E+02  0.19202664590E+01  0.22650112509E+01  0.12284790716E+02  0.51100000000E-03 0. -1.
        -11    1    3    3    0    0  0.51138589377E+01  0.79725227914E+01  0.71732488941E+01  0.11881421331E+02  0.51100000000E-03 0.  1.
        -12    1    3    3    0    0 -0.14847226829E+02  0.66225935029E+01  0.20753085233E+02  0.26362652292E+02  0.00000000000E+00 0.  1.
</event>
<event>
 7    1  0.6136531E-013  0.5052886E+02  0.7816164E-02  0.1300439E+00
        -11   -1    0    0    0    0  0.00000000000E+00  0.00000000000E+00  0.45593999997E+02  0.45594000000E+02  0.51100000000E-03 0. -1.
         11   -1    0    0    0    0 -0.00000000000E+00 -0.00000000000E+00 -0.45593999997E+02  0.45594000000E+02  0.51100000000E-03 0.  1.
    9900012    2    1    2    0    0 -0.39391679008E+02  0.45389256370E+01 -0.89922054607E+01  0.50528856133E+02  0.29999988701E+02 0.  0.
         12    1    1    2    0    0  0.39391679008E+02 -0.45389256370E+01  0.89922054607E+01  0.40659143867E+02  0.00000000000E+00 0. -1.
         11    1    3    3    0    0 -0.17514271445E+01 -0.14692432402E+01 -0.72706068369E+00  0.23989143878E+01  0.51100000000E-03 0. -1.
        -11    1    3    3    0    0 -0.34775784977E+02 -0.35281743425E+01 -0.12752933515E+02  0.37208071012E+02  0.51100000000E-03 0.  1.
        -12    1    3    3    0    0 -0.28644668865E+01  0.95363432197E+01  0.44877887380E+01  0.10921870733E+02  0.00000000000E+00 0.  1.
</event>
<event>
 7    1  0.6136531E-013  0.5052886E+02  0.7816164E-02  0.1300439E+00
        -11   -1    0    0    0    0  0.00000000000E+00  0.00000000000E+00  0.45593999997E+02  0.45594000000E+02  0.51100000000E-03 0.  1.
         11   -1    0    0    0    0 -0.00000000000E+00 -0.00000000000E+00 -0.45593999997E+02  0.45594000000E+02  0.51100000000E-03 0. -1.
    9900012    2    1    2    0    0  0.82641493884E+01 -0.69032694682E+00  0.39804437880E+02  0.50528855993E+02  0.29999988277E+02 0.  0.
         12    1    1    2    0    0 -0.82641493884E+01  0.69032694682E+00 -0.39804437880E+02  0.40659144007E+02  0.00000000000E+00 0. -1.
         11    1    3    3    0    0 -0.67518832265E+01  0.54070094641E+01  0.13657159544E+02  0.16166065864E+02  0.51100000000E-03 0.  1.
        -11    1    3    3    0    0  0.38537485898E+01 -0.97154824100E+01  0.14029565057E+02  0.17494875610E+02  0.51100000000E-03 0. -1.
        -12    1    3    3    0    0  0.11162284025E+02  0.36181459991E+01  0.12117713280E+02  0.16867914520E+02  0.00000000000E+00 0.  1.
</event>
<event>
 7    1  0.6136531E-013  0.5052886E+02  0.7816164E-02  0.1300439E+00
        -11   -1    0    0    0    0  0.00000000000E+00  0.00000000000E+00  0.45593999997E+02  0.45594000000E+02  0.51100000000E-03 0.  1.
         11   -1    0    0    0    0 -0.00000000000E+00 -0.00000000000E+00 -0.45593999997E+02  0.45594000000E+02  0.51100000000E-03 0. -1.
    9900012    2    1    2    0    0  0.28764818554E+02 -0.16256746129E+02  0.23695340721E+02  0.50528858924E+02  0.29999997185E+02 0.  0.
         12    1    1    2    0    0 -0.28764818554E+02  0.16256746129E+02 -0.23695340721E+02  0.40659141076E+02  0.00000000000E+00 0. -1.
         11    1    3    3    0    0  0.24573213298E+01  0.38910002698E+01  0.13958885647E+02  0.14697918219E+02  0.51100000000E-03 0. -1.
        -11    1    3    3    0    0  0.24223594797E+02 -0.15092663588E+02  0.58802814149E+01  0.29140156981E+02  0.51100000000E-03 0.  1.
         12    1    3    3    0    0  0.20839024270E+01 -0.50550828107E+01  0.38561736588E+01  0.66907837236E+01  0.00000000000E+00 0. -1.
</event>
<event>
 7    1  0.6136531E-013  0.5052886E+02  0.7816164E-02  0.1300439E+00
        -11   -1    0    0    0    0  0.00000000000E+00  0.00000000000E+00  0.45593999997E+02  0.45594000000E+02  0.51100000000E-03 0.  1.
         11   -1    0    0    0    0 -0.00000000000E+00 -0.00000000000E+00 -0.45593999997E+02  0.45594000000E+02  0.51100000000E-03 0. -1.
    9900012    2    1    2    0    0 -0.38129238871E+02  0.76704724806E+01 -0.11852880931E+02  0.50528858453E+02  0.29999995754E+02 0.  0.
         12    1    1    2    0    0  0.38129238871E+02 -0.76704724806E+01  0.11852880931E+02  0.40659141547E+02  0.00000000000E+00 0. -1.
         11    1    3    3    0    0 -0.54664523954E+01  0.49002298645E+01 -0.32772398791E+01  0.80395681478E+01  0.51100000000E-03 0. -1.
        -11    1    3    3    0    0 -0.25430412623E+02 -0.44601797955E+01  0.41645072096E+01  0.26152288821E+02  0.51100000000E-03 0.  1.
        -12    1    3    3    0    0 -0.72323738523E+01  0.72304224116E+01 -0.12740148261E+02  0.16337001485E+02  0.00000000000E+00 0.  1.
</event>
<event>
 7    1  0.6136531E-013  0.5052886E+02  0.7816164E-02  0.1300439E+00
        -11   -1    0    0    0    0  0.00000000000E+00  0.00000000000E+00  0.45593999997E+02  0.45594000000E+02  0.51100000000E-03 0.  1.
         11   -1    0    0    0    0 -0.00000000000E+00 -0.00000000000E+00 -0.45593999997E+02  0.45594000000E+02  0.51100000000E-03 0. -1.
    9900012    2    1    2    0    0 -0.18129498166E+02  0.78814821478E+01  0.35529833172E+02  0.50528861915E+02  0.30000006277E+02 0.  0.
         12    1    1    2    0    0  0.18129498166E+02 -0.78814821478E+01 -0.35529833172E+02  0.40659138085E+02  0.00000000000E+00 0. -1.
         11    1    3    3    0    0  0.50386142002E+01  0.65827572007E+01  0.23898829130E+01  0.86273904525E+01  0.51100000000E-03 0. -1.
        -11    1    3    3    0    0 -0.12698599695E+02  0.24265905191E+01  0.26409625095E+02  0.29404269650E+02  0.51100000000E-03 0.  1.
        -12    1    3    3    0    0 -0.10469512671E+02 -0.11278655720E+01  0.67303251637E+01  0.12497201812E+02  0.00000000000E+00 0.  1.
</event>
<event>
 7    1  0.6136531E-013  0.5052884E+02  0.7816164E-02  0.1300439E+00
        -11   -1    0    0    0    0  0.00000000000E+00  0.00000000000E+00  0.45593999997E+02  0.45594000000E+02  0.51100000000E-03 0.  1.
         11   -1    0    0    0    0 -0.00000000000E+00 -0.00000000000E+00 -0.45593999997E+02  0.45594000000E+02  0.51100000000E-03 0. -1.
    9900012    2    1    2    0    0 -0.19782773888E+02 -0.34486491353E+02 -0.85141635251E+01  0.50528841018E+02  0.29999942758E+02 0.  0.
         12    1    1    2    0    0  0.19782773888E+02  0.34486491353E+02  0.85141635251E+01  0.40659158982E+02  0.00000000000E+00 0. -1.
         11    1    3    3    0    0 -0.10586843607E+02  0.62064823991E+00 -0.64135902069E+01  0.12393570971E+02  0.51100000000E-03 0. -1.
        -11    1    3    3    0    0 -0.73113826870E+01 -0.27101472875E+02  0.33485682575E+01  0.28269401451E+02  0.51100000000E-03 0.  1.
        -12    1    3    3    0    0 -0.18845475943E+01 -0.80056667187E+01 -0.54491415756E+01  0.98658685962E+01  0.00000000000E+00 0.  1.
</event>
<event>
 7    1  0.6136531E-013  0.5052886E+02  0.7816164E-02  0.1300439E+00
        -11   -1    0    0    0    0  0.00000000000E+00  0.00000000000E+00  0.45593999997E+02  0.45594000000E+02  0.51100000000E-03 0.  1.
         11   -1    0    0    0    0 -0.00000000000E+00 -0.00000000000E+00 -0.45593999997E+02  0.45594000000E+02  0.51100000000E-03 0. -1.
    9900012    2    1    2    0    0 -0.15390282876E+01 -0.66243824842E+01  0.40086342551E+02  0.50528856988E+02  0.29999991300E+02 0.  0.
         12    1    1    2    0    0  0.15390282876E+01  0.66243824842E+01 -0.40086342551E+02  0.40659143012E+02  0.00000000000E+00 0. -1.
         11    1    3    3    0    0  0.65640852993E+01  0.62736313816E+01  0.61983575093E+01  0.10993875686E+02  0.51100000000E-03 0. -1.
        -11    1    3    3    0    0 -0.20485570464E+01 -0.70046269282E+01  0.28715086999E+02  0.29627986870E+02  0.51100000000E-03 0.  1.
         12    1    3    3    0    0 -0.60545565405E+01 -0.58933869375E+01  0.51728980434E+01  0.99069944314E+01  0.00000000000E+00 0. -1.
</event>
<event>
 7    1  0.6136531E-013  0.5052886E+02  0.7816164E-02  0.1300439E+00
        -11   -1    0    0    0    0  0.00000000000E+00  0.00000000000E+00  0.45593999997E+02  0.45594000000E+02  0.51100000000E-03 0.  1.
         11   -1    0    0    0    0 -0.00000000000E+00 -0.00000000000E+00 -0.45593999997E+02  0.45594000000E+02  0.51100000000E-03 0. -1.
    9900012    2    1    2    0    0 -0.19565630772E+02  0.25271819165E+02  0.25133384606E+02  0.50528858676E+02  0.29999996433E+02 0.  0.
         12    1    1    2    0    0  0.19565630772E+02 -0.25271819165E+02 -0.25133384606E+02  0.40659141324E+02  0.00000000000E+00 0. -1.
         11    1    3    3    0    0 -0.12344044972E+02 -0.35188922469E+01  0.96568026122E+01  0.16062748391E+02  0.51100000000E-03 0. -1.
        -11    1    3    3    0    0 -0.18532611512E+01  0.52819370133E+00  0.16996847875E+01  0.25695318871E+01  0.51100000000E-03 0.  1.
         12    1    3    3    0    0 -0.53683246486E+01  0.28262517711E+02  0.13776897206E+02  0.31896578398E+02  0.00000000000E+00 0. -1.
</event>
<event>
 7    1  0.6136531E-013  0.5052886E+02  0.7816164E-02  0.1300439E+00
        -11   -1    0    0    0    0  0.00000000000E+00  0.00000000000E+00  0.45593999997E+02  0.45594000000E+02  0.51100000000E-03 0.  1.
         11   -1    0    0    0    0 -0.00000000000E+00 -0.00000000000E+00 -0.45593999997E+02  0.45594000000E+02  0.51100000000E-03 0. -1.
    9900012    2    1    2    0    0  0.35551351384E+02  0.16462839461E+02  0.10873928598E+02  0.50528855991E+02  0.29999988271E+02 0.  0.
         12    1    1    2    0    0 -0.35551351384E+02 -0.16462839461E+02 -0.10873928598E+02  0.40659144009E+02  0.00000000000E+00 0. -1.
         11    1    3    3    0    0  0.51633571404E+01 -0.77285100472E+01 -0.25255965521E+00  0.92980595368E+01  0.51100000000E-03 0. -1.
        -11    1    3    3    0    0  0.21586673014E+02  0.12151780532E+02  0.63843738865E+01  0.25581447420E+02  0.51100000000E-03 0.  1.
         12    1    3    3    0    0  0.88013212297E+01  0.12039568976E+02  0.47421143669E+01  0.15649349034E+02  0.00000000000E+00 0. -1.
</event>
<event>
 7    1  0.6136531E-013  0.5052885E+02  0.7816164E-02  0.1300439E+00
        -11   -1    0    0    0    0  0.00000000000E+00  0.00000000000E+00  0.45593999997E+02  0.45594000000E+02  0.51100000000E-03 0.  1.
         11   -1    0    0    0    0 -0.00000000000E+00 -0.00000000000E+00 -0.45593999997E+02  0.45594000000E+02  0.51100000000E-03 0. -1.
    9900012    2    1    2    0    0 -0.89888640411E+01 -0.28511068203E+02  0.27558764674E+02  0.50528853462E+02  0.29999980584E+02 0.  0.
         12    1    1    2    0    0  0.89888640411E+01  0.28511068203E+02 -0.27558764674E+02  0.40659146538E+02  0.00000000000E+00 0. -1.
         11    1    3    3    0    0  0.71804826938E+01 -0.22877714813E+01  0.67723346135E+01  0.10132015912E+02  0.51100000000E-03 0. -1.
        -11    1    3    3    0    0 -0.11322985535E+02 -0.99256233776E+01  0.22184487593E+01  0.15220036663E+02  0.51100000000E-03 0.  1.
        -12    1    3    3    0    0 -0.48463612001E+01 -0.16297673344E+02  0.18567981301E+02  0.25176800887E+02  0.00000000000E+00 0.  1.
</event>
<event>
 7    1  0.6136531E-013  0.5052886E+02  0.7816164E-02  0.1300439E+00
        -11   -1    0    0    0    0  0.00000000000E+00  0.00000000000E+00  0.45593999997E+02  0.45594000000E+02  0.51100000000E-03 0. -1.
         11   -1    0    0    0    0 -0.00000000000E+00 -0.00000000000E+00 -0.45593999997E+02  0.45594000000E+02  0.51100000000E-03 0.  1.
    9900012    2    1    2    0    0  0.16668655481E+02 -0.15240815376E+02 -0.33808856591E+02  0.50528864337E+02  0.30000013639E+02 0.  0.
         12    1    1    2    0    0 -0.16668655481E+02  0.15240815376E+02  0.33808856591E+02  0.40659135663E+02  0.00000000000E+00 0. -1.
         11    1    3    3    0    0  0.18757802068E+02 -0.11229029015E+02 -0.38062325210E+02  0.43894040959E+02  0.51100000000E-03 0.  1.
        -11    1    3    3    0    0 -0.11101316323E+01 -0.33234355348E+01  0.18793773250E+01  0.39761382504E+01  0.51100000000E-03 0. -1.
        -12    1    3    3    0    0 -0.97901495482E+00 -0.68835082563E+00  0.23740912934E+01  0.26586851281E+01  0.00000000000E+00 0.  1.
</event>
<event>
 7    1  0.6136531E-013  0.5052889E+02  0.7816164E-02  0.1300439E+00
        -11   -1    0    0    0    0  0.00000000000E+00  0.00000000000E+00  0.45593999997E+02  0.45594000000E+02  0.51100000000E-03 0. -1.
         11   -1    0    0    0    0 -0.00000000000E+00 -0.00000000000E+00 -0.45593999997E+02  0.45594000000E+02  0.51100000000E-03 0.  1.
    9900012    2    1    2    0    0  0.33129551006E+02 -0.16116426490E+02 -0.17200480769E+02  0.50528894115E+02  0.30000104153E+02 0.  0.
         12    1    1    2    0    0 -0.33129551006E+02  0.16116426490E+02  0.17200480769E+02  0.40659105885E+02  0.00000000000E+00 0. -1.
         11    1    3    3    0    0 -0.18718393188E+01 -0.94811233911E+01 -0.44745151995E+01  0.10649730970E+02  0.51100000000E-03 0. -1.
        -11    1    3    3    0    0  0.32100840726E+02 -0.19316105924E+01 -0.97595562990E+01  0.33607202119E+02  0.51100000000E-03 0.  1.
        -12    1    3    3    0    0  0.29005495980E+01 -0.47036925069E+01 -0.29664092701E+01  0.62719610273E+01  0.00000000000E+00 0.  1.
</event>
<event>
 7    1  0.6136531E-013  0.5052886E+02  0.7816164E-02  0.1300439E+00
        -11   -1    0    0    0    0  0.00000000000E+00  0.00000000000E+00  0.45593999997E+02  0.45594000000E+02  0.51100000000E-03 0. -1.
         11   -1    0    0    0    0 -0.00000000000E+00 -0.00000000000E+00 -0.45593999997E+02  0.45594000000E+02  0.51100000000E-03 0.  1.
    9900012    2    1    2    0    0 -0.20349166785E+02 -0.34999415130E+02  0.37574073904E+01  0.50528858856E+02  0.29999996979E+02 0.  0.
         12    1    1    2    0    0  0.20349166785E+02  0.34999415130E+02 -0.37574073904E+01  0.40659141144E+02  0.00000000000E+00 0. -1.
         11    1    3    3    0    0 -0.50066295439E+01 -0.27508282338E+02  0.10824086201E+02  0.29982207706E+02  0.51100000000E-03 0. -1.
        -11    1    3    3    0    0 -0.12490375545E+02 -0.74777176387E+01 -0.19486156670E+01  0.14687506447E+02  0.51100000000E-03 0.  1.
         12    1    3    3    0    0 -0.28521616960E+01 -0.13415153030E-01 -0.51180631440E+01  0.58591447032E+01  0.00000000000E+00 0. -1.
</event>
<event>
 7    1  0.6136531E-013  0.5052886E+02  0.7816164E-02  0.1300439E+00
        -11   -1    0    0    0    0  0.00000000000E+00  0.00000000000E+00  0.45593999997E+02  0.45594000000E+02  0.51100000000E-03 0.  1.
         11   -1    0    0    0    0 -0.00000000000E+00 -0.00000000000E+00 -0.45593999997E+02  0.45594000000E+02  0.51100000000E-03 0. -1.
    9900012    2    1    2    0    0 -0.20525002887E+02  0.33411441147E+02  0.10750152886E+02  0.50528856746E+02  0.29999990566E+02 0.  0.
         12    1    1    2    0    0  0.20525002887E+02 -0.33411441147E+02 -0.10750152886E+02  0.40659143254E+02  0.00000000000E+00 0. -1.
         11    1    3    3    0    0 -0.45598488611E+01  0.28460982660E+02  0.55339028913E+01  0.29350363491E+02  0.51100000000E-03 0. -1.
        -11    1    3    3    0    0 -0.57417361402E+01  0.49111562139E+01  0.75615543955E+01  0.10689438451E+02  0.51100000000E-03 0.  1.
         12    1    3    3    0    0 -0.10223417886E+02  0.39302273344E-01 -0.23453044009E+01  0.10489054804E+02  0.00000000000E+00 0. -1.
</event>
