<event>
 7    1  0.2740409E-010  0.4778727E+02  0.7816164E-02  0.1312668E+00
        -11   -1    0    0    0    0  0.00000000000E+00  0.00000000000E+00  0.45593999997E+02  0.45594000000E+02  0.51100000000E-03 0. -1.
         11   -1    0    0    0    0 -0.00000000000E+00 -0.00000000000E+00 -0.45593999997E+02  0.45594000000E+02  0.51100000000E-03 0.  1.
    9900012    2    1    2    0    0  0.23658246067E+02  0.33642636208E+02 -0.13859423531E+02  0.47787271912E+02  0.20000003955E+02 0.  0.
        -12    1    1    2    0    0 -0.23658246067E+02 -0.33642636208E+02  0.13859423531E+02  0.43400728088E+02  0.00000000000E+00 0.  1.
         11    1    3    3    0    0  0.15951370428E+02  0.10177422872E+02 -0.90478169518E+01  0.20973534435E+02  0.51100000000E-03 0. -1.
        -11    1    3    3    0    0  0.24054562209E+01  0.17102226144E+00 -0.10473870291E+01  0.26291611009E+01  0.51100000000E-03 0.  1.
         12    1    3    3    0    0  0.53014194179E+01  0.23294191074E+02 -0.37642195505E+01  0.24184576376E+02  0.00000000000E+00 0. -1.
</event>
<event>
 7    1  0.2740409E-010  0.4778727E+02  0.7816164E-02  0.1312668E+00
        -11   -1    0    0    0    0  0.00000000000E+00  0.00000000000E+00  0.45593999997E+02  0.45594000000E+02  0.51100000000E-03 0.  1.
         11   -1    0    0    0    0 -0.00000000000E+00 -0.00000000000E+00 -0.45593999997E+02  0.45594000000E+02  0.51100000000E-03 0. -1.
    9900012    2    1    2    0    0  0.20668155810E+02 -0.36133600169E+02 -0.12280620987E+02  0.47787269850E+02  0.19999994553E+02 0.  0.
        -12    1    1    2    0    0 -0.20668155810E+02  0.36133600169E+02  0.12280620987E+02  0.43400730150E+02  0.00000000000E+00 0.  1.
         11    1    3    3    0    0  0.12237640295E+02 -0.57625879666E+01  0.65574088605E+00  0.13542424319E+02  0.51100000000E-03 0. -1.
        -11    1    3    3    0    0  0.33619727451E+00 -0.62657859378E+01 -0.27959706111E+01  0.68695381173E+01  0.51100000000E-03 0.  1.
         12    1    3    3    0    0  0.80943182402E+01 -0.24105226264E+02 -0.10140391262E+02  0.27375307413E+02  0.00000000000E+00 0. -1.
</event>
<event>
 7    1  0.2740409E-010  0.4778727E+02  0.7816164E-02  0.1312668E+00
        -11   -1    0    0    0    0  0.00000000000E+00  0.00000000000E+00  0.45593999997E+02  0.45594000000E+02  0.51100000000E-03 0.  1.
         11   -1    0    0    0    0 -0.00000000000E+00 -0.00000000000E+00 -0.45593999997E+02  0.45594000000E+02  0.51100000000E-03 0. -1.
    9900012    2    1    2    0    0  0.24307526998E+02 -0.27436276541E+02 -0.23238291774E+02  0.47787270239E+02  0.19999996328E+02 0.  0.
        -12    1    1    2    0    0 -0.24307526998E+02  0.27436276541E+02  0.23238291774E+02  0.43400729761E+02  0.00000000000E+00 0.  1.
         11    1    3    3    0    0  0.23602243675E+01 -0.12976210471E+02 -0.12112477838E+02  0.17907116375E+02  0.51100000000E-03 0. -1.
        -11    1    3    3    0    0  0.20326002477E+02 -0.15192927944E+02 -0.11789071906E+02  0.27981308991E+02  0.51100000000E-03 0.  1.
        -12    1    3    3    0    0  0.16213001540E+01  0.73286187346E+00  0.66325797002E+00  0.18988448725E+01  0.00000000000E+00 0.  1.
</event>
<event>
 7    1  0.2740409E-010  0.4778727E+02  0.7816164E-02  0.1312668E+00
        -11   -1    0    0    0    0  0.00000000000E+00  0.00000000000E+00  0.45593999997E+02  0.45594000000E+02  0.51100000000E-03 0.  1.
         11   -1    0    0    0    0 -0.00000000000E+00 -0.00000000000E+00 -0.45593999997E+02  0.45594000000E+02  0.51100000000E-03 0. -1.
    9900012    2    1    2    0    0 -0.18507813225E+02 -0.10185518021E+02 -0.37912259294E+02  0.47787270369E+02  0.19999996919E+02 0.  0.
        -12    1    1    2    0    0  0.18507813225E+02  0.10185518021E+02  0.37912259294E+02  0.43400729631E+02  0.00000000000E+00 0.  1.
         11    1    3    3    0    0 -0.19409339487E+01 -0.10129654251E+02 -0.22611059280E+02  0.24852306168E+02  0.51100000000E-03 0. -1.
        -11    1    3    3    0    0 -0.52070240309E+01  0.14427299804E+00 -0.23738667817E+01  0.57244351437E+01  0.51100000000E-03 0.  1.
         12    1    3    3    0    0 -0.11359855245E+02 -0.20013676787E+00 -0.12927333233E+02  0.17210529057E+02  0.00000000000E+00 0. -1.
</event>
<event>
 7    1  0.2740409E-010  0.4778727E+02  0.7816164E-02  0.1312668E+00
        -11   -1    0    0    0    0  0.00000000000E+00  0.00000000000E+00  0.45593999997E+02  0.45594000000E+02  0.51100000000E-03 0. -1.
         11   -1    0    0    0    0 -0.00000000000E+00 -0.00000000000E+00 -0.45593999997E+02  0.45594000000E+02  0.51100000000E-03 0.  1.
    9900012    2    1    2    0    0 -0.28922076379E+02  0.20061157764E+02  0.25390683083E+02  0.47787270279E+02  0.19999996511E+02 0.  0.
        -12    1    1    2    0    0  0.28922076379E+02 -0.20061157764E+02 -0.25390683083E+02  0.43400729721E+02  0.00000000000E+00 0.  1.
         11    1    3    3    0    0 -0.65050643954E+01 -0.21821333387E+01  0.28559415969E+01  0.74319560925E+01  0.51100000000E-03 0. -1.
        -11    1    3    3    0    0 -0.23225338772E+01 -0.11777926907E+01  0.20670580387E+01  0.33247689287E+01  0.51100000000E-03 0.  1.
         12    1    3    3    0    0 -0.20094478106E+02  0.23421083794E+02  0.20467683447E+02  0.37030545258E+02  0.00000000000E+00 0. -1.
</event>
<event>
 7    1  0.2740409E-010  0.4778727E+02  0.7816164E-02  0.1312668E+00
        -11   -1    0    0    0    0  0.00000000000E+00  0.00000000000E+00  0.45593999997E+02  0.45594000000E+02  0.51100000000E-03 0.  1.
         11   -1    0    0    0    0 -0.00000000000E+00 -0.00000000000E+00 -0.45593999997E+02  0.45594000000E+02  0.51100000000E-03 0. -1.
    9900012    2    1    2    0    0  0.13106532531E+02  0.40030135472E+02 -0.10460881668E+02  0.47787274359E+02  0.20000015111E+02 0.  0.
        -12    1    1    2    0    0 -0.13106532531E+02 -0.40030135472E+02  0.10460881668E+02  0.43400725641E+02  0.00000000000E+00 0.  1.
         11    1    3    3    0    0  0.11820131162E+01  0.29844047162E+02 -0.94939338294E+01  0.31340055613E+02  0.51100000000E-03 0. -1.
        -11    1    3    3    0    0  0.81216356957E+01  0.89499475235E+01  0.72031028419E+00  0.12107079508E+02  0.51100000000E-03 0.  1.
        -12    1    3    3    0    0  0.38028837190E+01  0.12361407866E+01 -0.16872581228E+01  0.43401392372E+01  0.00000000000E+00 0.  1.
</event>
<event>
 7    1  0.2740409E-010  0.4778727E+02  0.7816164E-02  0.1312668E+00
        -11   -1    0    0    0    0  0.00000000000E+00  0.00000000000E+00  0.45593999997E+02  0.45594000000E+02  0.51100000000E-03 0.  1.
         11   -1    0    0    0    0 -0.00000000000E+00 -0.00000000000E+00 -0.45593999997E+02  0.45594000000E+02  0.51100000000E-03 0. -1.
    9900012    2    1    2    0    0  0.73023150413E+01 -0.85624825564E+00 -0.42773431894E+02  0.47787269107E+02  0.19999991167E+02 0.  0.
        -12    1    1    2    0    0 -0.73023150413E+01  0.85624825564E+00  0.42773431894E+02  0.43400730893E+02  0.00000000000E+00 0.  1.
         11    1    3    3    0    0 -0.13159759005E+01 -0.72344929842E+00 -0.39702295925E+01  0.42447490782E+01  0.51100000000E-03 0. -1.
        -11    1    3    3    0    0  0.12732858880E+02 -0.18414470599E+01 -0.36117351963E+02  0.38340314756E+02  0.51100000000E-03 0.  1.
        -12    1    3    3    0    0 -0.41145679383E+01  0.17086481027E+01 -0.26858503388E+01  0.52022052728E+01  0.00000000000E+00 0.  1.
</event>
<event>
 7    1  0.2740409E-010  0.4778727E+02  0.7816164E-02  0.1312668E+00
        -11   -1    0    0    0    0  0.00000000000E+00  0.00000000000E+00  0.45593999997E+02  0.45594000000E+02  0.51100000000E-03 0.  1.
         11   -1    0    0    0    0 -0.00000000000E+00 -0.00000000000E+00 -0.45593999997E+02  0.45594000000E+02  0.51100000000E-03 0. -1.
    9900012    2    1    2    0    0  0.26247548913E+02 -0.26786734725E+01 -0.34460332529E+02  0.47787266902E+02  0.19999981112E+02 0.  0.
        -12    1    1    2    0    0 -0.26247548913E+02  0.26786734725E+01  0.34460332529E+02  0.43400733098E+02  0.00000000000E+00 0.  1.
         11    1    3    3    0    0  0.16688991194E+02  0.41844315557E+01 -0.25078263308E+02  0.30413010133E+02  0.51100000000E-03 0. -1.
        -11    1    3    3    0    0 -0.12189505721E+00  0.12761152492E+01  0.44580467652E+00  0.13572290171E+01  0.51100000000E-03 0.  1.
         12    1    3    3    0    0  0.96804527761E+01 -0.81392202774E+01 -0.98278738966E+01  0.16017027752E+02  0.00000000000E+00 0. -1.
</event>
<event>
 7    1  0.2740409E-010  0.4778727E+02  0.7816164E-02  0.1312668E+00
        -11   -1    0    0    0    0  0.00000000000E+00  0.00000000000E+00  0.45593999997E+02  0.45594000000E+02  0.51100000000E-03 0.  1.
         11   -1    0    0    0    0 -0.00000000000E+00 -0.00000000000E+00 -0.45593999997E+02  0.45594000000E+02  0.51100000000E-03 0. -1.
    9900012    2    1    2    0    0 -0.31475262505E+02 -0.26536717012E+01 -0.29763898023E+02  0.47787265573E+02  0.19999975054E+02 0.  0.
        -12    1    1    2    0    0  0.31475262505E+02  0.26536717012E+01  0.29763898023E+02  0.43400734427E+02  0.00000000000E+00 0.  1.
         11    1    3    3    0    0 -0.27976545710E+02 -0.13761393077E+01 -0.29651829478E+02  0.40789849974E+02  0.51100000000E-03 0. -1.
        -11    1    3    3    0    0 -0.10670469224E+01  0.37250518302E+00 -0.27971170322E+01  0.30168217048E+01  0.51100000000E-03 0.  1.
         12    1    3    3    0    0 -0.24316698731E+01 -0.16500375765E+01  0.26850484869E+01  0.39805938944E+01  0.00000000000E+00 0. -1.
</event>
<event>
 7    1  0.2740409E-010  0.4778727E+02  0.7816164E-02  0.1312668E+00
        -11   -1    0    0    0    0  0.00000000000E+00  0.00000000000E+00  0.45593999997E+02  0.45594000000E+02  0.51100000000E-03 0.  1.
         11   -1    0    0    0    0 -0.00000000000E+00 -0.00000000000E+00 -0.45593999997E+02  0.45594000000E+02  0.51100000000E-03 0. -1.
    9900012    2    1    2    0    0 -0.43128478142E+01 -0.42123201984E+02 -0.95214786423E+01  0.47787270085E+02  0.19999995624E+02 0.  0.
        -12    1    1    2    0    0  0.43128478142E+01  0.42123201984E+02  0.95214786423E+01  0.43400729915E+02  0.00000000000E+00 0.  1.
         11    1    3    3    0    0 -0.54852130700E+01 -0.88062283017E+01  0.33414422305E+01  0.10899653929E+02  0.51100000000E-03 0. -1.
        -11    1    3    3    0    0 -0.70904349349E+00 -0.31182177728E+02 -0.97694465670E+01  0.32684446408E+02  0.51100000000E-03 0.  1.
        -12    1    3    3    0    0  0.18814087494E+01 -0.21347959546E+01 -0.30934743058E+01  0.42031697480E+01  0.00000000000E+00 0.  1.
</event>
<event>
 7    1  0.2740409E-010  0.4778727E+02  0.7816164E-02  0.1312668E+00
        -11   -1    0    0    0    0  0.00000000000E+00  0.00000000000E+00  0.45593999997E+02  0.45594000000E+02  0.51100000000E-03 0.  1.
         11   -1    0    0    0    0 -0.00000000000E+00 -0.00000000000E+00 -0.45593999997E+02  0.45594000000E+02  0.51100000000E-03 0. -1.
    9900012    2    1    2    0    0 -0.38098012838E+02  0.46516345006E+01 -0.20261465016E+02  0.47787271316E+02  0.20000001239E+02 0.  0.
        -12    1    1    2    0    0  0.38098012838E+02 -0.46516345006E+01  0.20261465016E+02  0.43400728684E+02  0.00000000000E+00 0.  1.
         11    1    3    3    0    0 -0.18165364859E+02 -0.10393966821E+01 -0.14255335239E+02  0.23114398304E+02  0.51100000000E-03 0. -1.
        -11    1    3    3    0    0 -0.14404765607E+00 -0.17967629014E+01 -0.27174595245E+01  0.32609344029E+01  0.51100000000E-03 0.  1.
         12    1    3    3    0    0 -0.19788600323E+02  0.74877940841E+01 -0.32886702518E+01  0.21411938609E+02  0.00000000000E+00 0. -1.
</event>
<event>
 7    1  0.2740409E-010  0.4778727E+02  0.7816164E-02  0.1312668E+00
        -11   -1    0    0    0    0  0.00000000000E+00  0.00000000000E+00  0.45593999997E+02  0.45594000000E+02  0.51100000000E-03 0.  1.
         11   -1    0    0    0    0 -0.00000000000E+00 -0.00000000000E+00 -0.45593999997E+02  0.45594000000E+02  0.51100000000E-03 0. -1.
    9900012    2    1    2    0    0  0.21044332514E+02  0.22278731185E+02 -0.30731373757E+02  0.47787272735E+02  0.20000007706E+02 0.  0.
        -12    1    1    2    0    0 -0.21044332514E+02 -0.22278731185E+02  0.30731373757E+02  0.43400727265E+02  0.00000000000E+00 0.  1.
         11    1    3    3    0    0  0.14505550382E+02  0.67022825439E+01 -0.11288846841E+02  0.19564499647E+02  0.51100000000E-03 0. -1.
        -11    1    3    3    0    0 -0.31377326935E+01  0.61299367768E+01 -0.56586424349E+01  0.89130087967E+01  0.51100000000E-03 0.  1.
         12    1    3    3    0    0  0.96765148255E+01  0.94465118643E+01 -0.13783884482E+02  0.19309764291E+02  0.00000000000E+00 0. -1.
</event>
<event>
 7    1  0.2740409E-010  0.4778727E+02  0.7816164E-02  0.1312668E+00
        -11   -1    0    0    0    0  0.00000000000E+00  0.00000000000E+00  0.45593999997E+02  0.45594000000E+02  0.51100000000E-03 0.  1.
         11   -1    0    0    0    0 -0.00000000000E+00 -0.00000000000E+00 -0.45593999997E+02  0.45594000000E+02  0.51100000000E-03 0. -1.
    9900012    2    1    2    0    0  0.16842093517E+02 -0.25848482241E+02 -0.30525776119E+02  0.47787272404E+02  0.20000006199E+02 0.  0.
        -12    1    1    2    0    0 -0.16842093517E+02  0.25848482241E+02  0.30525776119E+02  0.43400727596E+02  0.00000000000E+00 0.  1.
         11    1    3    3    0    0  0.10831395085E+02 -0.83882965753E+01 -0.11721156931E+02  0.18029646668E+02  0.51100000000E-03 0. -1.
        -11    1    3    3    0    0  0.39732364808E+01 -0.19506555442E+02 -0.14733182984E+02  0.24766085570E+02  0.51100000000E-03 0.  1.
        -12    1    3    3    0    0  0.20374619507E+01  0.20463697765E+01 -0.40714362047E+01  0.49915401663E+01  0.00000000000E+00 0.  1.
</event>
<event>
 7    1  0.2740409E-010  0.4778727E+02  0.7816164E-02  0.1312668E+00
        -11   -1    0    0    0    0  0.00000000000E+00  0.00000000000E+00  0.45593999997E+02  0.45594000000E+02  0.51100000000E-03 0. -1.
         11   -1    0    0    0    0 -0.00000000000E+00 -0.00000000000E+00 -0.45593999997E+02  0.45594000000E+02  0.51100000000E-03 0.  1.
    9900012    2    1    2    0    0 -0.24367927847E+02  0.21827974736E+02  0.28519587261E+02  0.47787271364E+02  0.20000001457E+02 0.  0.
        -12    1    1    2    0    0  0.24367927847E+02 -0.21827974736E+02 -0.28519587261E+02  0.43400728636E+02  0.00000000000E+00 0.  1.
         11    1    3    3    0    0 -0.20525550117E+02  0.16683762188E+02  0.17903543348E+02  0.31940303584E+02  0.51100000000E-03 0.  1.
        -11    1    3    3    0    0  0.68057540052E+00 -0.11971740498E+01  0.72192312672E+01  0.73494019438E+01  0.51100000000E-03 0. -1.
         12    1    3    3    0    0 -0.45229531300E+01  0.63413865972E+01  0.33968126462E+01  0.84975658364E+01  0.00000000000E+00 0. -1.
</event>
<event>
 7    1  0.2740409E-010  0.4778727E+02  0.7816164E-02  0.1312668E+00
        -11   -1    0    0    0    0  0.00000000000E+00  0.00000000000E+00  0.45593999997E+02  0.45594000000E+02  0.51100000000E-03 0.  1.
         11   -1    0    0    0    0 -0.00000000000E+00 -0.00000000000E+00 -0.45593999997E+02  0.45594000000E+02  0.51100000000E-03 0. -1.
    9900012    2    1    2    0    0 -0.33753563281E+02 -0.11551014343E+02 -0.24716273607E+02  0.47787272500E+02  0.20000006638E+02 0.  0.
        -12    1    1    2    0    0  0.33753563281E+02  0.11551014343E+02  0.24716273607E+02  0.43400727500E+02  0.00000000000E+00 0.  1.
         11    1    3    3    0    0 -0.73976221488E+01 -0.31504090719E+01 -0.16718254698E+02  0.18551278425E+02  0.51100000000E-03 0. -1.
        -11    1    3    3    0    0 -0.15974744409E+02 -0.68709726124E+01 -0.31327063211E+01  0.17669651177E+02  0.51100000000E-03 0.  1.
         12    1    3    3    0    0 -0.10381196723E+02 -0.15296326588E+01 -0.48653125874E+01  0.11566342898E+02  0.00000000000E+00 0. -1.
</event>
<event>
 7    1  0.2740409E-010  0.4778727E+02  0.7816164E-02  0.1312668E+00
        -11   -1    0    0    0    0  0.00000000000E+00  0.00000000000E+00  0.45593999997E+02  0.45594000000E+02  0.51100000000E-03 0. -1.
         11   -1    0    0    0    0 -0.00000000000E+00 -0.00000000000E+00 -0.45593999997E+02  0.45594000000E+02  0.51100000000E-03 0.  1.
    9900012    2    1    2    0    0 -0.16797982473E+02 -0.20476489037E+02  0.34382618944E+02  0.47787270698E+02  0.19999998421E+02 0.  0.
        -12    1    1    2    0    0  0.16797982473E+02  0.20476489037E+02 -0.34382618944E+02  0.43400729302E+02  0.00000000000E+00 0.  1.
         11    1    3    3    0    0 -0.19177320549E+02 -0.15211293754E+02  0.28207091218E+02  0.37346928607E+02  0.51100000000E-03 0. -1.
        -11    1    3    3    0    0  0.42324677143E+01 -0.49011990488E+01  0.52534500954E+01  0.83387213190E+01  0.51100000000E-03 0.  1.
        -12    1    3    3    0    0 -0.18531296377E+01 -0.36399623454E+00  0.92207763077E+00  0.21016207722E+01  0.00000000000E+00 0.  1.
</event>
<event>
 7    1  0.2740409E-010  0.4778727E+02  0.7816164E-02  0.1312668E+00
        -11   -1    0    0    0    0  0.00000000000E+00  0.00000000000E+00  0.45593999997E+02  0.45594000000E+02  0.51100000000E-03 0.  1.
         11   -1    0    0    0    0 -0.00000000000E+00 -0.00000000000E+00 -0.45593999997E+02  0.45594000000E+02  0.51100000000E-03 0. -1.
    9900012    2    1    2    0    0  0.29258693452E+02 -0.23568042550E+02 -0.21727860471E+02  0.47787266218E+02  0.19999977995E+02 0.  0.
        -12    1    1    2    0    0 -0.29258693452E+02  0.23568042550E+02  0.21727860471E+02  0.43400733782E+02  0.00000000000E+00 0.  1.
         11    1    3    3    0    0 -0.67732673069E+00 -0.67700763589E+01 -0.19550291885E+00  0.68066825295E+01  0.51100000000E-03 0. -1.
        -11    1    3    3    0    0  0.52646449794E+01 -0.96405748090E+00 -0.18164115889E+01  0.56520124652E+01  0.51100000000E-03 0.  1.
         12    1    3    3    0    0  0.24671375204E+02 -0.15833908710E+02 -0.19715945963E+02  0.35328571223E+02  0.00000000000E+00 0. -1.
</event>
<event>
 7    1  0.2740409E-010  0.4778727E+02  0.7816164E-02  0.1312668E+00
        -11   -1    0    0    0    0  0.00000000000E+00  0.00000000000E+00  0.45593999997E+02  0.45594000000E+02  0.51100000000E-03 0.  1.
         11   -1    0    0    0    0 -0.00000000000E+00 -0.00000000000E+00 -0.45593999997E+02  0.45594000000E+02  0.51100000000E-03 0. -1.
    9900012    2    1    2    0    0  0.41646626687E+02 -0.67871550260E+01  0.10154611436E+02  0.47787272804E+02  0.20000008021E+02 0.  0.
        -12    1    1    2    0    0 -0.41646626687E+02  0.67871550260E+01 -0.10154611436E+02  0.43400727196E+02  0.00000000000E+00 0.  1.
         11    1    3    3    0    0  0.94799206107E+01 -0.81890569824E+01  0.55405702921E+01  0.13697717637E+02  0.51100000000E-03 0. -1.
        -11    1    3    3    0    0  0.21812732446E+02  0.40540763679E+01 -0.60631644287E+00  0.22194559060E+02  0.51100000000E-03 0.  1.
        -12    1    3    3    0    0  0.10353973630E+02 -0.26521744114E+01  0.52203575869E+01  0.11894996107E+02  0.00000000000E+00 0.  1.
</event>
<event>
 7    1  0.2740409E-010  0.4778727E+02  0.7816164E-02  0.1312668E+00
        -11   -1    0    0    0    0  0.00000000000E+00  0.00000000000E+00  0.45593999997E+02  0.45594000000E+02  0.51100000000E-03 0.  1.
         11   -1    0    0    0    0 -0.00000000000E+00 -0.00000000000E+00 -0.45593999997E+02  0.45594000000E+02  0.51100000000E-03 0. -1.
    9900012    2    1    2    0    0 -0.34250132960E+02  0.24383943619E+02 -0.10769169128E+02  0.47787270537E+02  0.19999997688E+02 0.  0.
        -12    1    1    2    0    0  0.34250132960E+02 -0.24383943619E+02  0.10769169128E+02  0.43400729463E+02  0.00000000000E+00 0.  1.
         11    1    3    3    0    0 -0.24998148055E+02  0.88124207676E+01 -0.55783510140E+01  0.27086604923E+02  0.51100000000E-03 0. -1.
        -11    1    3    3    0    0 -0.98288592172E+01  0.12453840377E+02 -0.66597636349E+01  0.17206308889E+02  0.51100000000E-03 0.  1.
        -12    1    3    3    0    0  0.57687431210E+00  0.31176824748E+01  0.14689455206E+01  0.34943567260E+01  0.00000000000E+00 0.  1.
</event>
<event>
 7    1  0.2740409E-010  0.4778727E+02  0.7816164E-02  0.1312668E+00
        -11   -1    0    0    0    0  0.00000000000E+00  0.00000000000E+00  0.45593999997E+02  0.45594000000E+02  0.51100000000E-03 0.  1.
         11   -1    0    0    0    0 -0.00000000000E+00 -0.00000000000E+00 -0.45593999997E+02  0.45594000000E+02  0.51100000000E-03 0. -1.
    9900012    2    1    2    0    0  0.18265178646E+02 -0.29641666634E+02  0.25910963891E+02  0.47787271878E+02  0.20000003799E+02 0.  0.
        -12    1    1    2    0    0 -0.18265178646E+02  0.29641666634E+02 -0.25910963891E+02  0.43400728122E+02  0.00000000000E+00 0.  1.
         11    1    3    3    0    0  0.61828671037E+01 -0.18817741790E+02  0.22011771699E+02  0.29611709597E+02  0.51100000000E-03 0. -1.
        -11    1    3    3    0    0  0.11086212991E+02 -0.64864885096E+01  0.10411715587E+01  0.12886531346E+02  0.51100000000E-03 0.  1.
        -12    1    3    3    0    0  0.99609855154E+00 -0.43374363344E+01  0.28580206329E+01  0.52890309337E+01  0.00000000000E+00 0.  1.
</event>
<event>
 7    1  0.2740409E-010  0.4778727E+02  0.7816164E-02  0.1312668E+00
        -11   -1    0    0    0    0  0.00000000000E+00  0.00000000000E+00  0.45593999997E+02  0.45594000000E+02  0.51100000000E-03 0.  1.
         11   -1    0    0    0    0 -0.00000000000E+00 -0.00000000000E+00 -0.45593999997E+02  0.45594000000E+02  0.51100000000E-03 0. -1.
    9900012    2    1    2    0    0 -0.74984083656E+00  0.98950439291E+01 -0.42251026020E+02  0.47787270105E+02  0.19999995718E+02 0.  0.
        -12    1    1    2    0    0  0.74984083656E+00 -0.98950439291E+01  0.42251026020E+02  0.43400729895E+02  0.00000000000E+00 0.  1.
         11    1    3    3    0    0 -0.50934453463E+01  0.13172901068E+01 -0.49610232584E+01  0.72311956655E+01  0.51100000000E-03 0. -1.
        -11    1    3    3    0    0  0.83297600432E+01  0.29226539584E+01 -0.24018679482E+02  0.25589524670E+02  0.51100000000E-03 0.  1.
        -12    1    3    3    0    0 -0.39861555335E+01  0.56550998639E+01 -0.13271323280E+02  0.14966549769E+02  0.00000000000E+00 0.  1.
</event>
<event>
 7    1  0.2740409E-010  0.4778727E+02  0.7816164E-02  0.1312668E+00
        -11   -1    0    0    0    0  0.00000000000E+00  0.00000000000E+00  0.45593999997E+02  0.45594000000E+02  0.51100000000E-03 0.  1.
         11   -1    0    0    0    0 -0.00000000000E+00 -0.00000000000E+00 -0.45593999997E+02  0.45594000000E+02  0.51100000000E-03 0. -1.
    9900012    2    1    2    0    0  0.13713423481E+02 -0.30376033304E+02 -0.27800396378E+02  0.47787269342E+02  0.19999992239E+02 0.  0.
        -12    1    1    2    0    0 -0.13713423481E+02  0.30376033304E+02  0.27800396378E+02  0.43400730658E+02  0.00000000000E+00 0.  1.
         11    1    3    3    0    0  0.12555050449E+02 -0.25713516670E+02 -0.14839333258E+02  0.32233833825E+02  0.51100000000E-03 0. -1.
        -11    1    3    3    0    0  0.16811878054E+01  0.94340500086E+00 -0.73729002037E+01  0.76207652574E+01  0.51100000000E-03 0.  1.
         12    1    3    3    0    0 -0.52281477275E+00 -0.56059216353E+01 -0.55881629163E+01  0.79326702596E+01  0.00000000000E+00 0. -1.
</event>
<event>
 7    1  0.2740409E-010  0.4778727E+02  0.7816164E-02  0.1312668E+00
        -11   -1    0    0    0    0  0.00000000000E+00  0.00000000000E+00  0.45593999997E+02  0.45594000000E+02  0.51100000000E-03 0.  1.
         11   -1    0    0    0    0 -0.00000000000E+00 -0.00000000000E+00 -0.45593999997E+02  0.45594000000E+02  0.51100000000E-03 0. -1.
    9900012    2    1    2    0    0  0.29500837937E+01  0.12482576786E+02 -0.41462100469E+02  0.47787268521E+02  0.19999988495E+02 0.  0.
        -12    1    1    2    0    0 -0.29500837937E+01 -0.12482576786E+02  0.41462100469E+02  0.43400731479E+02  0.00000000000E+00 0.  1.
         11    1    3    3    0    0 -0.24765229359E+01 -0.71876681488E+00 -0.20560626977E+02  0.20721707785E+02  0.51100000000E-03 0. -1.
        -11    1    3    3    0    0  0.71333441992E+01  0.49370538568E+01 -0.92798669066E+01  0.12703347209E+02  0.51100000000E-03 0.  1.
         12    1    3    3    0    0 -0.17067374697E+01  0.82642897439E+01 -0.11621606586E+02  0.14362213527E+02  0.00000000000E+00 0. -1.
</event>
<event>
 7    1  0.2740409E-010  0.4778727E+02  0.7816164E-02  0.1312668E+00
        -11   -1    0    0    0    0  0.00000000000E+00  0.00000000000E+00  0.45593999997E+02  0.45594000000E+02  0.51100000000E-03 0.  1.
         11   -1    0    0    0    0 -0.00000000000E+00 -0.00000000000E+00 -0.45593999997E+02  0.45594000000E+02  0.51100000000E-03 0. -1.
    9900012    2    1    2    0    0 -0.99450961424E+00  0.15921266921E+02 -0.40362699572E+02  0.47787270669E+02  0.19999998288E+02 0.  0.
        -12    1    1    2    0    0  0.99450961424E+00 -0.15921266921E+02  0.40362699572E+02  0.43400729331E+02  0.00000000000E+00 0.  1.
         11    1    3    3    0    0  0.36643875638E+01  0.11916122917E+02 -0.25556578904E+02  0.28435197329E+02  0.51100000000E-03 0. -1.
        -11    1    3    3    0    0  0.77051543635E+00 -0.20395076948E+01  0.29876107216E+00  0.22005781318E+01  0.51100000000E-03 0.  1.
        -12    1    3    3    0    0 -0.54294126144E+01  0.60446516981E+01 -0.15104881740E+02  0.17151495208E+02  0.00000000000E+00 0.  1.
</event>
<event>
 7    1  0.2740409E-010  0.4778726E+02  0.7816164E-02  0.1312668E+00
        -11   -1    0    0    0    0  0.00000000000E+00  0.00000000000E+00  0.45593999997E+02  0.45594000000E+02  0.51100000000E-03 0.  1.
         11   -1    0    0    0    0 -0.00000000000E+00 -0.00000000000E+00 -0.45593999997E+02  0.45594000000E+02  0.51100000000E-03 0. -1.
    9900012    2    1    2    0    0  0.13838111660E+02 -0.28175593527E+02 -0.29971097050E+02  0.47787261950E+02  0.19999958536E+02 0.  0.
        -12    1    1    2    0    0 -0.13838111660E+02  0.28175593527E+02  0.29971097050E+02  0.43400738050E+02  0.00000000000E+00 0.  1.
         11    1    3    3    0    0  0.10268292944E+02 -0.21958379603E+02 -0.17957105629E+02  0.30167298812E+02  0.51100000000E-03 0. -1.
        -11    1    3    3    0    0  0.24423599872E+01 -0.49218384885E+00  0.14943619735E+01  0.29052513174E+01  0.51100000000E-03 0.  1.
        -12    1    3    3    0    0  0.11274587279E+01 -0.57250300748E+01 -0.13508353394E+02  0.14714711820E+02  0.00000000000E+00 0.  1.
</event>
<event>
 7    1  0.2740409E-010  0.4778728E+02  0.7816164E-02  0.1312668E+00
        -11   -1    0    0    0    0  0.00000000000E+00  0.00000000000E+00  0.45593999997E+02  0.45594000000E+02  0.51100000000E-03 0. -1.
         11   -1    0    0    0    0 -0.00000000000E+00 -0.00000000000E+00 -0.45593999997E+02  0.45594000000E+02  0.51100000000E-03 0.  1.
    9900012    2    1    2    0    0 -0.80673965502E+01 -0.40315989422E+02  0.13898235958E+02  0.47787275894E+02  0.20000022112E+02 0.  0.
        -12    1    1    2    0    0  0.80673965502E+01  0.40315989422E+02 -0.13898235958E+02  0.43400724106E+02  0.00000000000E+00 0.  1.
         11    1    3    3    0    0 -0.51193979837E+01 -0.28526924462E+02  0.10223943832E+02  0.30733087751E+02  0.51100000000E-03 0. -1.
        -11    1    3    3    0    0 -0.31304506491E+01  0.13622494020E+01  0.61975067085E-01  0.34145696463E+01  0.51100000000E-03 0.  1.
        -12    1    3    3    0    0  0.18245208263E+00 -0.13151314362E+02  0.36123170590E+01  0.13639618497E+02  0.00000000000E+00 0.  1.
</event>
<event>
 7    1  0.2740409E-010  0.4778727E+02  0.7816164E-02  0.1312668E+00
        -11   -1    0    0    0    0  0.00000000000E+00  0.00000000000E+00  0.45593999997E+02  0.45594000000E+02  0.51100000000E-03 0.  1.
         11   -1    0    0    0    0 -0.00000000000E+00 -0.00000000000E+00 -0.45593999997E+02  0.45594000000E+02  0.51100000000E-03 0. -1.
    9900012    2    1    2    0    0  0.28645914310E+02  0.56491528753E+01 -0.32111095510E+02  0.47787265101E+02  0.19999972903E+02 0.  0.
        -12    1    1    2    0    0 -0.28645914310E+02 -0.56491528753E+01  0.32111095510E+02  0.43400734899E+02  0.00000000000E+00 0.  1.
         11    1    3    3    0    0  0.15057586926E+02  0.28766086350E+01 -0.21798853557E+02  0.26649499394E+02  0.51100000000E-03 0. -1.
        -11    1    3    3    0    0  0.13088311766E+02  0.52170207475E+01 -0.44647989878E+01  0.14780244945E+02  0.51100000000E-03 0.  1.
        -12    1    3    3    0    0  0.50001561803E+00 -0.24444765072E+01 -0.58474429650E+01  0.63575207621E+01  0.00000000000E+00 0.  1.
</event>
<event>
 7    1  0.2740409E-010  0.4778727E+02  0.7816164E-02  0.1312668E+00
        -11   -1    0    0    0    0  0.00000000000E+00  0.00000000000E+00  0.45593999997E+02  0.45594000000E+02  0.51100000000E-03 0.  1.
         11   -1    0    0    0    0 -0.00000000000E+00 -0.00000000000E+00 -0.45593999997E+02  0.45594000000E+02  0.51100000000E-03 0. -1.
    9900012    2    1    2    0    0  0.37507091658E+02 -0.24808986902E+01 -0.21695313575E+02  0.47787269430E+02  0.19999992638E+02 0.  0.
        -12    1    1    2    0    0 -0.37507091658E+02  0.24808986902E+01  0.21695313575E+02  0.43400730570E+02  0.00000000000E+00 0.  1.
         11    1    3    3    0    0  0.36341829075E+02 -0.58488147192E+01 -0.21625294478E+02  0.42691808765E+02  0.51100000000E-03 0. -1.
        -11    1    3    3    0    0  0.66654379663E+00  0.21139350423E+01 -0.18322989974E+01  0.28758167315E+01  0.51100000000E-03 0.  1.
         12    1    3    3    0    0  0.49871878601E+00  0.12539809867E+01  0.17622799005E+01  0.22196439332E+01  0.00000000000E+00 0. -1.
</event>
<event>
 7    1  0.2740409E-010  0.4778727E+02  0.7816164E-02  0.1312668E+00
        -11   -1    0    0    0    0  0.00000000000E+00  0.00000000000E+00  0.45593999997E+02  0.45594000000E+02  0.51100000000E-03 0. -1.
         11   -1    0    0    0    0 -0.00000000000E+00 -0.00000000000E+00 -0.45593999997E+02  0.45594000000E+02  0.51100000000E-03 0.  1.
    9900012    2    1    2    0    0  0.37800358877E+02 -0.17964904808E+02  0.11489923157E+02  0.47787271088E+02  0.20000000198E+02 0.  0.
        -12    1    1    2    0    0 -0.37800358877E+02  0.17964904808E+02 -0.11489923157E+02  0.43400728912E+02  0.00000000000E+00 0.  1.
         11    1    3    3    0    0  0.15439548400E+02 -0.48026879382E+01  0.14346957650E+02  0.21616675515E+02  0.51100000000E-03 0. -1.
        -11    1    3    3    0    0  0.91564174648E+01 -0.64384417681E+01 -0.10331292638E+01  0.11241035074E+02  0.51100000000E-03 0.  1.
         12    1    3    3    0    0  0.13204393012E+02 -0.67237751012E+01 -0.18239052294E+01  0.14929560499E+02  0.00000000000E+00 0. -1.
</event>
<event>
 7    1  0.2740409E-010  0.4778727E+02  0.7816164E-02  0.1312668E+00
        -11   -1    0    0    0    0  0.00000000000E+00  0.00000000000E+00  0.45593999997E+02  0.45594000000E+02  0.51100000000E-03 0.  1.
         11   -1    0    0    0    0 -0.00000000000E+00 -0.00000000000E+00 -0.45593999997E+02  0.45594000000E+02  0.51100000000E-03 0. -1.
    9900012    2    1    2    0    0  0.39273549576E+02  0.18467996563E+02  0.38051134407E+00  0.47787269796E+02  0.19999994307E+02 0.  0.
        -12    1    1    2    0    0 -0.39273549576E+02 -0.18467996563E+02 -0.38051134407E+00  0.43400730204E+02  0.00000000000E+00 0.  1.
         11    1    3    3    0    0  0.10968448743E+02  0.76890657659E+00  0.24740012390E+01  0.11270260314E+02  0.51100000000E-03 0. -1.
        -11    1    3    3    0    0  0.10458031885E+02  0.15023706519E+02  0.33199661936E+00  0.18308260717E+02  0.51100000000E-03 0.  1.
        -12    1    3    3    0    0  0.17847068948E+02  0.26753834679E+01 -0.24254865143E+01  0.18208748765E+02  0.00000000000E+00 0.  1.
</event>
<event>
 7    1  0.2740409E-010  0.4778727E+02  0.7816164E-02  0.1312668E+00
        -11   -1    0    0    0    0  0.00000000000E+00  0.00000000000E+00  0.45593999997E+02  0.45594000000E+02  0.51100000000E-03 0.  1.
         11   -1    0    0    0    0 -0.00000000000E+00 -0.00000000000E+00 -0.45593999997E+02  0.45594000000E+02  0.51100000000E-03 0. -1.
    9900012    2    1    2    0    0  0.39720424957E+02 -0.16127977696E+02  0.67675318759E+01  0.47787270616E+02  0.19999998048E+02 0.  0.
        -12    1    1    2    0    0 -0.39720424957E+02  0.16127977696E+02 -0.67675318759E+01  0.43400729384E+02  0.00000000000E+00 0.  1.
         11    1    3    3    0    0  0.21461382820E+02 -0.43137183141E+01  0.16347933931E+01  0.21951575523E+02  0.51100000000E-03 0.  1.
        -11    1    3    3    0    0  0.16033941665E+02 -0.98677488930E+01 -0.11809835868E+01  0.18864105492E+02  0.51100000000E-03 0. -1.
         12    1    3    3    0    0  0.22251004724E+01 -0.19465104891E+01  0.63137220695E+01  0.69715896012E+01  0.00000000000E+00 0. -1.
</event>
<event>
 7    1  0.2740409E-010  0.4778727E+02  0.7816164E-02  0.1312668E+00
        -11   -1    0    0    0    0  0.00000000000E+00  0.00000000000E+00  0.45593999997E+02  0.45594000000E+02  0.51100000000E-03 0.  1.
         11   -1    0    0    0    0 -0.00000000000E+00 -0.00000000000E+00 -0.45593999997E+02  0.45594000000E+02  0.51100000000E-03 0. -1.
    9900012    2    1    2    0    0 -0.13498393120E+02  0.25231698572E+02 -0.32630940817E+02  0.47787268114E+02  0.19999986639E+02 0.  0.
        -12    1    1    2    0    0  0.13498393120E+02 -0.25231698572E+02  0.32630940817E+02  0.43400731886E+02  0.00000000000E+00 0.  1.
         11    1    3    3    0    0 -0.31933762634E+01  0.16035627858E+02 -0.21194460973E+02  0.26768343037E+02  0.51100000000E-03 0. -1.
        -11    1    3    3    0    0 -0.10743404312E+02  0.10651380668E+02 -0.76793269597E+01  0.16965986832E+02  0.51100000000E-03 0.  1.
        -12    1    3    3    0    0  0.43838745562E+00 -0.14553099545E+01 -0.37571528841E+01  0.40529382452E+01  0.00000000000E+00 0.  1.
</event>
<event>
 7    1  0.2740409E-010  0.4778727E+02  0.7816164E-02  0.1312668E+00
        -11   -1    0    0    0    0  0.00000000000E+00  0.00000000000E+00  0.45593999997E+02  0.45594000000E+02  0.51100000000E-03 0. -1.
         11   -1    0    0    0    0 -0.00000000000E+00 -0.00000000000E+00 -0.45593999997E+02  0.45594000000E+02  0.51100000000E-03 0.  1.
    9900012    2    1    2    0    0 -0.21741056308E+02  0.32885912229E+02  0.18151214378E+02  0.47787270330E+02  0.19999996740E+02 0.  0.
        -12    1    1    2    0    0  0.21741056308E+02 -0.32885912229E+02 -0.18151214378E+02  0.43400729670E+02  0.00000000000E+00 0.  1.
         11    1    3    3    0    0 -0.75001179329E+01  0.33950726499E+01 -0.98763363318E+00  0.82917855592E+01  0.51100000000E-03 0. -1.
        -11    1    3    3    0    0 -0.12542165892E+02  0.28565130908E+02  0.14367275422E+02  0.34346633493E+02  0.51100000000E-03 0.  1.
        -12    1    3    3    0    0 -0.16987724835E+01  0.92570867164E+00  0.47715725895E+01  0.51488512769E+01  0.00000000000E+00 0.  1.
</event>
<event>
 7    1  0.2740409E-010  0.4778727E+02  0.7816164E-02  0.1312668E+00
        -11   -1    0    0    0    0  0.00000000000E+00  0.00000000000E+00  0.45593999997E+02  0.45594000000E+02  0.51100000000E-03 0. -1.
         11   -1    0    0    0    0 -0.00000000000E+00 -0.00000000000E+00 -0.45593999997E+02  0.45594000000E+02  0.51100000000E-03 0.  1.
    9900012    2    1    2    0    0  0.14868220479E+02  0.24112060678E+02  0.32881117040E+02  0.47787270649E+02  0.19999998198E+02 0.  0.
        -12    1    1    2    0    0 -0.14868220479E+02 -0.24112060678E+02 -0.32881117040E+02  0.43400729351E+02  0.00000000000E+00 0.  1.
         11    1    3    3    0    0  0.94374633054E+01  0.23262429786E+01  0.16177786716E+02  0.18873205963E+02  0.51100000000E-03 0. -1.
        -11    1    3    3    0    0  0.70090764627E+01  0.14518859538E+02  0.10610905506E+02  0.19300667115E+02  0.51100000000E-03 0.  1.
         12    1    3    3    0    0 -0.15783192895E+01  0.72669581615E+01  0.60924248178E+01  0.96133975712E+01  0.00000000000E+00 0. -1.
</event>
<event>
 7    1  0.2740409E-010  0.4778727E+02  0.7816164E-02  0.1312668E+00
        -11   -1    0    0    0    0  0.00000000000E+00  0.00000000000E+00  0.45593999997E+02  0.45594000000E+02  0.51100000000E-03 0. -1.
         11   -1    0    0    0    0 -0.00000000000E+00 -0.00000000000E+00 -0.45593999997E+02  0.45594000000E+02  0.51100000000E-03 0.  1.
    9900012    2    1    2    0    0  0.27980510374E+02 -0.27297867848E+02 -0.18855783222E+02  0.47787272924E+02  0.20000008570E+02 0.  0.
        -12    1    1    2    0    0 -0.27980510374E+02  0.27297867848E+02  0.18855783222E+02  0.43400727076E+02  0.00000000000E+00 0.  1.
         11    1    3    3    0    0  0.16292268593E+02 -0.77968886916E+01 -0.11284631306E+02  0.21297239097E+02  0.51100000000E-03 0. -1.
        -11    1    3    3    0    0  0.10616760689E+01 -0.12197619713E+02 -0.55320438379E+01  0.13435497461E+02  0.51100000000E-03 0.  1.
        -12    1    3    3    0    0  0.10626565711E+02 -0.73033594436E+01 -0.20391080780E+01  0.13054536366E+02  0.00000000000E+00 0.  1.
</event>
<event>
 7    1  0.2740409E-010  0.4778727E+02  0.7816164E-02  0.1312668E+00
        -11   -1    0    0    0    0  0.00000000000E+00  0.00000000000E+00  0.45593999997E+02  0.45594000000E+02  0.51100000000E-03 0. -1.
         11   -1    0    0    0    0 -0.00000000000E+00 -0.00000000000E+00 -0.45593999997E+02  0.45594000000E+02  0.51100000000E-03 0.  1.
    9900012    2    1    2    0    0  0.34666041950E+01 -0.27356278935E+02  0.33514768155E+02  0.47787273896E+02  0.20000013003E+02 0.  0.
        -12    1    1    2    0    0 -0.34666041950E+01  0.27356278935E+02 -0.33514768155E+02  0.43400726104E+02  0.00000000000E+00 0.  1.
         11    1    3    3    0    0  0.70113716124E+01 -0.45069733896E+01  0.60507262872E+01  0.10299681057E+02  0.51100000000E-03 0. -1.
        -11    1    3    3    0    0  0.32266055728E+01 -0.48990573288E+01  0.97312245266E+01  0.11362591134E+02  0.51100000000E-03 0.  1.
         12    1    3    3    0    0 -0.67713729902E+01 -0.17950248217E+02  0.17732817341E+02  0.26125001705E+02  0.00000000000E+00 0. -1.
</event>
<event>
 7    1  0.2740409E-010  0.4778727E+02  0.7816164E-02  0.1312668E+00
        -11   -1    0    0    0    0  0.00000000000E+00  0.00000000000E+00  0.45593999997E+02  0.45594000000E+02  0.51100000000E-03 0. -1.
         11   -1    0    0    0    0 -0.00000000000E+00 -0.00000000000E+00 -0.45593999997E+02  0.45594000000E+02  0.51100000000E-03 0.  1.
    9900012    2    1    2    0    0  0.14180394847E+02  0.40180799224E+02 -0.82488233039E+01  0.47787270626E+02  0.19999998094E+02 0.  0.
        -12    1    1    2    0    0 -0.14180394847E+02 -0.40180799224E+02  0.82488233039E+01  0.43400729374E+02  0.00000000000E+00 0.  1.
         11    1    3    3    0    0  0.11614144171E+01  0.42249537459E+01 -0.21119843591E+00  0.43867667642E+01  0.51100000000E-03 0.  1.
        -11    1    3    3    0    0  0.17754766124E+02  0.27650070068E+02 -0.43212971530E+01  0.33142596523E+02  0.51100000000E-03 0. -1.
        -12    1    3    3    0    0 -0.47357856950E+01  0.83057754094E+01 -0.37163277149E+01  0.10257907339E+02  0.00000000000E+00 0.  1.
</event>
<event>
 7    1  0.2740409E-010  0.4778728E+02  0.7816164E-02  0.1312668E+00
        -11   -1    0    0    0    0  0.00000000000E+00  0.00000000000E+00  0.45593999997E+02  0.45594000000E+02  0.51100000000E-03 0.  1.
         11   -1    0    0    0    0 -0.00000000000E+00 -0.00000000000E+00 -0.45593999997E+02  0.45594000000E+02  0.51100000000E-03 0. -1.
    9900012    2    1    2    0    0 -0.37380892873E+02 -0.19458221696E+02 -0.10376357832E+02  0.47787281741E+02  0.20000048771E+02 0.  0.
        -12    1    1    2    0    0  0.37380892873E+02  0.19458221696E+02  0.10376357832E+02  0.43400718259E+02  0.00000000000E+00 0.  1.
         11    1    3    3    0    0 -0.34115071773E+02 -0.94645085339E+01 -0.99089702889E+01  0.36764150151E+02  0.51100000000E-03 0. -1.
        -11    1    3    3    0    0 -0.36992212953E+01 -0.98684768147E+01 -0.59033357344E+00  0.10555546733E+02  0.51100000000E-03 0.  1.
        -12    1    3    3    0    0  0.43340019613E+00 -0.12523634703E+00  0.12294602985E+00  0.46758485741E+00  0.00000000000E+00 0.  1.
</event>
<event>
 7    1  0.2740409E-010  0.4778727E+02  0.7816164E-02  0.1312668E+00
        -11   -1    0    0    0    0  0.00000000000E+00  0.00000000000E+00  0.45593999997E+02  0.45594000000E+02  0.51100000000E-03 0.  1.
         11   -1    0    0    0    0 -0.00000000000E+00 -0.00000000000E+00 -0.45593999997E+02  0.45594000000E+02  0.51100000000E-03 0. -1.
    9900012    2    1    2    0    0 -0.15759240545E+02  0.11960420685E+02 -0.38629241489E+02  0.47787267016E+02  0.19999981633E+02 0.  0.
        -12    1    1    2    0    0  0.15759240545E+02 -0.11960420685E+02  0.38629241489E+02  0.43400732984E+02  0.00000000000E+00 0.  1.
         11    1    3    3    0    0 -0.99260201635E+01  0.33248916654E+01 -0.26195452452E+02  0.28209617337E+02  0.51100000000E-03 0. -1.
        -11    1    3    3    0    0  0.43219398582E+00  0.17749438222E+01  0.18099216152E+01  0.25715819504E+01  0.51100000000E-03 0.  1.
        -12    1    3    3    0    0 -0.62654143677E+01  0.68605851970E+01 -0.14243710653E+02  0.17006067729E+02  0.00000000000E+00 0.  1.
</event>
<event>
 7    1  0.2740409E-010  0.4778727E+02  0.7816164E-02  0.1312668E+00
        -11   -1    0    0    0    0  0.00000000000E+00  0.00000000000E+00  0.45593999997E+02  0.45594000000E+02  0.51100000000E-03 0. -1.
         11   -1    0    0    0    0 -0.00000000000E+00 -0.00000000000E+00 -0.45593999997E+02  0.45594000000E+02  0.51100000000E-03 0.  1.
    9900012    2    1    2    0    0  0.13864591122E+02 -0.13185400728E+02  0.38955634458E+02  0.47787272641E+02  0.20000007278E+02 0.  0.
        -12    1    1    2    0    0 -0.13864591122E+02  0.13185400728E+02 -0.38955634458E+02  0.43400727359E+02  0.00000000000E+00 0.  1.
         11    1    3    3    0    0  0.75639965179E+01  0.89071965667E+00  0.14408200420E+02  0.16297351454E+02  0.51100000000E-03 0.  1.
        -11    1    3    3    0    0 -0.36471403339E+00 -0.94766157939E+01  0.59236818770E+01  0.11181648826E+02  0.51100000000E-03 0. -1.
         12    1    3    3    0    0  0.66653086370E+01 -0.45995045904E+01  0.18623752161E+02  0.20308272360E+02  0.00000000000E+00 0. -1.
</event>
<event>
 7    1  0.2740409E-010  0.4778727E+02  0.7816164E-02  0.1312668E+00
        -11   -1    0    0    0    0  0.00000000000E+00  0.00000000000E+00  0.45593999997E+02  0.45594000000E+02  0.51100000000E-03 0.  1.
         11   -1    0    0    0    0 -0.00000000000E+00 -0.00000000000E+00 -0.45593999997E+02  0.45594000000E+02  0.51100000000E-03 0. -1.
    9900012    2    1    2    0    0 -0.22495783406E+02  0.22500037808E+02 -0.29517985360E+02  0.47787269222E+02  0.19999991689E+02 0.  0.
        -12    1    1    2    0    0  0.22495783406E+02 -0.22500037808E+02  0.29517985360E+02  0.43400730778E+02  0.00000000000E+00 0.  1.
         11    1    3    3    0    0 -0.27238433120E+01  0.14102417478E+02 -0.12961856210E+02  0.19347020902E+02  0.51100000000E-03 0. -1.
        -11    1    3    3    0    0 -0.18276856890E+02  0.43617731620E+01 -0.12887862974E+02  0.22785205182E+02  0.51100000000E-03 0.  1.
        -12    1    3    3    0    0 -0.14950832041E+01  0.40358471680E+01 -0.36682661758E+01  0.56550431375E+01  0.00000000000E+00 0.  1.
</event>
<event>
 7    1  0.2740409E-010  0.4778726E+02  0.7816164E-02  0.1312668E+00
        -11   -1    0    0    0    0  0.00000000000E+00  0.00000000000E+00  0.45593999997E+02  0.45594000000E+02  0.51100000000E-03 0. -1.
         11   -1    0    0    0    0 -0.00000000000E+00 -0.00000000000E+00 -0.45593999997E+02  0.45594000000E+02  0.51100000000E-03 0.  1.
    9900012    2    1    2    0    0 -0.17536407527E+02  0.20351324310E+02  0.34086981447E+02  0.47787259289E+02  0.19999946400E+02 0.  0.
        -12    1    1    2    0    0  0.17536407527E+02 -0.20351324310E+02 -0.34086981447E+02  0.43400740711E+02  0.00000000000E+00 0.  1.
         11    1    3    3    0    0 -0.10081437543E+02  0.76743347368E+01  0.24878504051E+02  0.27919003576E+02  0.51100000000E-03 0. -1.
        -11    1    3    3    0    0 -0.30607663909E+01  0.64659564610E+01 -0.90680803170E+00  0.72110460353E+01  0.51100000000E-03 0.  1.
         12    1    3    3    0    0 -0.43942035934E+01  0.62110331118E+01  0.10115285428E+02  0.12657209678E+02  0.00000000000E+00 0. -1.
</event>
<event>
 7    1  0.2740409E-010  0.4778725E+02  0.7816164E-02  0.1312668E+00
        -11   -1    0    0    0    0  0.00000000000E+00  0.00000000000E+00  0.45593999997E+02  0.45594000000E+02  0.51100000000E-03 0.  1.
         11   -1    0    0    0    0 -0.00000000000E+00 -0.00000000000E+00 -0.45593999997E+02  0.45594000000E+02  0.51100000000E-03 0. -1.
    9900012    2    1    2    0    0  0.27709633209E+02 -0.26650076402E+01 -0.33297136736E+02  0.47787247090E+02  0.19999890782E+02 0.  0.
        -12    1    1    2    0    0 -0.27709633209E+02  0.26650076402E+01  0.33297136736E+02  0.43400752910E+02  0.00000000000E+00 0.  1.
         11    1    3    3    0    0  0.59894365391E+01 -0.78511978655E+01 -0.65151953481E+01  0.11830571781E+02  0.51100000000E-03 0.  1.
        -11    1    3    3    0    0  0.11174635007E+02  0.70443913740E+01 -0.16187741554E+02  0.20893513209E+02  0.51100000000E-03 0. -1.
         12    1    3    3    0    0  0.10545561664E+02 -0.18582011487E+01 -0.10594199835E+02  0.15063162100E+02  0.00000000000E+00 0. -1.
</event>
<event>
 7    1  0.2740409E-010  0.4778727E+02  0.7816164E-02  0.1312668E+00
        -11   -1    0    0    0    0  0.00000000000E+00  0.00000000000E+00  0.45593999997E+02  0.45594000000E+02  0.51100000000E-03 0.  1.
         11   -1    0    0    0    0 -0.00000000000E+00 -0.00000000000E+00 -0.45593999997E+02  0.45594000000E+02  0.51100000000E-03 0. -1.
    9900012    2    1    2    0    0 -0.27975061641E+02 -0.13588390502E+02 -0.30271682169E+02  0.47787272223E+02  0.20000005372E+02 0.  0.
        -12    1    1    2    0    0  0.27975061641E+02  0.13588390502E+02  0.30271682169E+02  0.43400727777E+02  0.00000000000E+00 0.  1.
         11    1    3    3    0    0 -0.19636205851E+02 -0.43887485647E+01 -0.28245018916E+02  0.34678852173E+02  0.51100000000E-03 0. -1.
        -11    1    3    3    0    0 -0.32293621651E+01 -0.54611472720E+01  0.32950020638E+00  0.63530685631E+01  0.51100000000E-03 0.  1.
         12    1    3    3    0    0 -0.51094936247E+01 -0.37384946652E+01 -0.23561634600E+01  0.67553514870E+01  0.00000000000E+00 0. -1.
</event>
<event>
 7    1  0.2740409E-010  0.4778727E+02  0.7816164E-02  0.1312668E+00
        -11   -1    0    0    0    0  0.00000000000E+00  0.00000000000E+00  0.45593999997E+02  0.45594000000E+02  0.51100000000E-03 0.  1.
         11   -1    0    0    0    0 -0.00000000000E+00 -0.00000000000E+00 -0.45593999997E+02  0.45594000000E+02  0.51100000000E-03 0. -1.
    9900012    2    1    2    0    0  0.40432938799E+01 -0.27769721367E+02 -0.33107670020E+02  0.47787268850E+02  0.19999989995E+02 0.  0.
        -12    1    1    2    0    0 -0.40432938799E+01  0.27769721367E+02  0.33107670020E+02  0.43400731150E+02  0.00000000000E+00 0.  1.
         11    1    3    3    0    0  0.60144154429E+01 -0.24239580976E+02 -0.24241969604E+02  0.34805223309E+02  0.51100000000E-03 0. -1.
        -11    1    3    3    0    0 -0.12932978209E+01  0.55473556935E+00  0.13555381896E+01  0.19539280565E+01  0.51100000000E-03 0.  1.
         12    1    3    3    0    0 -0.67782374209E+00 -0.40848759602E+01 -0.10221238605E+02  0.11028117485E+02  0.00000000000E+00 0. -1.
</event>
<event>
 7    1  0.2740409E-010  0.4778727E+02  0.7816164E-02  0.1312668E+00
        -11   -1    0    0    0    0  0.00000000000E+00  0.00000000000E+00  0.45593999997E+02  0.45594000000E+02  0.51100000000E-03 0. -1.
         11   -1    0    0    0    0 -0.00000000000E+00 -0.00000000000E+00 -0.45593999997E+02  0.45594000000E+02  0.51100000000E-03 0.  1.
    9900012    2    1    2    0    0  0.32920331071E+02  0.26297183889E+02 -0.10408318752E+02  0.47787272154E+02  0.20000005059E+02 0.  0.
        -12    1    1    2    0    0 -0.32920331071E+02 -0.26297183889E+02  0.10408318752E+02  0.43400727846E+02  0.00000000000E+00 0.  1.
         11    1    3    3    0    0  0.98792734526E+01  0.73474396765E+01  0.42978833864E+01  0.13040579574E+02  0.51100000000E-03 0. -1.
        -11    1    3    3    0    0  0.19687341394E+01  0.55461584836E+01 -0.57150905293E+01  0.82035387521E+01  0.51100000000E-03 0.  1.
         12    1    3    3    0    0  0.21072323479E+02  0.13403585728E+02 -0.89911116088E+01  0.26543153828E+02  0.00000000000E+00 0. -1.
</event>
<event>
 7    1  0.2740409E-010  0.4778727E+02  0.7816164E-02  0.1312668E+00
        -11   -1    0    0    0    0  0.00000000000E+00  0.00000000000E+00  0.45593999997E+02  0.45594000000E+02  0.51100000000E-03 0.  1.
         11   -1    0    0    0    0 -0.00000000000E+00 -0.00000000000E+00 -0.45593999997E+02  0.45594000000E+02  0.51100000000E-03 0. -1.
    9900012    2    1    2    0    0  0.35788643851E+02  0.14980911759E+02 -0.19451697870E+02  0.47787270791E+02  0.19999998844E+02 0.  0.
        -12    1    1    2    0    0 -0.35788643851E+02 -0.14980911759E+02  0.19451697870E+02  0.43400729209E+02  0.00000000000E+00 0.  1.
         11    1    3    3    0    0  0.19386858878E+02 -0.13712674306E+01 -0.85805111938E+01  0.21245136952E+02  0.51100000000E-03 0. -1.
        -11    1    3    3    0    0  0.10676683238E+02  0.99358994193E+01 -0.10432429793E+02  0.17931794497E+02  0.51100000000E-03 0.  1.
        -12    1    3    3    0    0  0.57251017353E+01  0.64162797703E+01 -0.43875688296E+00  0.86103393413E+01  0.00000000000E+00 0.  1.
</event>
<event>
 7    1  0.2740409E-010  0.4778728E+02  0.7816164E-02  0.1312668E+00
        -11   -1    0    0    0    0  0.00000000000E+00  0.00000000000E+00  0.45593999997E+02  0.45594000000E+02  0.51100000000E-03 0. -1.
         11   -1    0    0    0    0 -0.00000000000E+00 -0.00000000000E+00 -0.45593999997E+02  0.45594000000E+02  0.51100000000E-03 0.  1.
    9900012    2    1    2    0    0  0.46770099319E+01  0.27121839149E+02  0.33558215765E+02  0.47787280811E+02  0.20000044532E+02 0.  0.
        -12    1    1    2    0    0 -0.46770099319E+01 -0.27121839149E+02 -0.33558215765E+02  0.43400719189E+02  0.00000000000E+00 0.  1.
         11    1    3    3    0    0  0.29161722550E+01  0.87142265807E+01  0.22276489328E+02  0.24097381239E+02  0.51100000000E-03 0. -1.
        -11    1    3    3    0    0 -0.33464310088E+01  0.12133602559E+02  0.54434332138E+01  0.13713273751E+02  0.51100000000E-03 0.  1.
        -12    1    3    3    0    0  0.51072686856E+01  0.62740100092E+01  0.58382932237E+01  0.99766258218E+01  0.00000000000E+00 0.  1.
</event>
<event>
 7    1  0.2740409E-010  0.4778727E+02  0.7816164E-02  0.1312668E+00
        -11   -1    0    0    0    0  0.00000000000E+00  0.00000000000E+00  0.45593999997E+02  0.45594000000E+02  0.51100000000E-03 0.  1.
         11   -1    0    0    0    0 -0.00000000000E+00 -0.00000000000E+00 -0.45593999997E+02  0.45594000000E+02  0.51100000000E-03 0. -1.
    9900012    2    1    2    0    0 -0.24527336900E+01  0.20569940625E+01 -0.43282515910E+02  0.47787270621E+02  0.19999998069E+02 0.  0.
        -12    1    1    2    0    0  0.24527336900E+01 -0.20569940625E+01  0.43282515910E+02  0.43400729379E+02  0.00000000000E+00 0.  1.
         11    1    3    3    0    0  0.10938351335E+01  0.24210793582E+01 -0.18075833764E+02  0.18270026466E+02  0.51100000000E-03 0. -1.
        -11    1    3    3    0    0 -0.53095339708E+01 -0.24525938744E+01 -0.26017201767E+02  0.26666480003E+02  0.51100000000E-03 0.  1.
        -12    1    3    3    0    0  0.17629651473E+01  0.20885085787E+01  0.81051962062E+00  0.28507641518E+01  0.00000000000E+00 0.  1.
</event>
<event>
 7    1  0.2740409E-010  0.4778727E+02  0.7816164E-02  0.1312668E+00
        -11   -1    0    0    0    0  0.00000000000E+00  0.00000000000E+00  0.45593999997E+02  0.45594000000E+02  0.51100000000E-03 0. -1.
         11   -1    0    0    0    0 -0.00000000000E+00 -0.00000000000E+00 -0.45593999997E+02  0.45594000000E+02  0.51100000000E-03 0.  1.
    9900012    2    1    2    0    0  0.15740571680E+02  0.29291086605E+02  0.27890677074E+02  0.47787271677E+02  0.20000002883E+02 0.  0.
        -12    1    1    2    0    0 -0.15740571680E+02 -0.29291086605E+02 -0.27890677074E+02  0.43400728323E+02  0.00000000000E+00 0.  1.
         11    1    3    3    0    0  0.43352834656E+01  0.81572852269E+01  0.11138202278E+02  0.14470505701E+02  0.51100000000E-03 0. -1.
        -11    1    3    3    0    0  0.14157845772E+02  0.21283575478E+02  0.13050145438E+02  0.28700896819E+02  0.51100000000E-03 0.  1.
        -12    1    3    3    0    0 -0.27525575574E+01 -0.14977409961E+00  0.37023293592E+01  0.46158691567E+01  0.00000000000E+00 0.  1.
</event>
<event>
 7    1  0.2740409E-010  0.4778728E+02  0.7816164E-02  0.1312668E+00
        -11   -1    0    0    0    0  0.00000000000E+00  0.00000000000E+00  0.45593999997E+02  0.45594000000E+02  0.51100000000E-03 0. -1.
         11   -1    0    0    0    0 -0.00000000000E+00 -0.00000000000E+00 -0.45593999997E+02  0.45594000000E+02  0.51100000000E-03 0.  1.
    9900012    2    1    2    0    0 -0.19385887952E+02 -0.34566909188E+02  0.17690066105E+02  0.47787282249E+02  0.20000051085E+02 0.  0.
        -12    1    1    2    0    0  0.19385887952E+02  0.34566909188E+02 -0.17690066105E+02  0.43400717751E+02  0.00000000000E+00 0.  1.
         11    1    3    3    0    0 -0.41584261782E+01 -0.23047775680E+02  0.57695108156E+01  0.24120110435E+02  0.51100000000E-03 0. -1.
        -11    1    3    3    0    0 -0.60424093127E+00  0.20222619773E+00  0.27121506219E+01  0.27859942202E+01  0.51100000000E-03 0.  1.
         12    1    3    3    0    0 -0.14623220843E+02 -0.11721359706E+02  0.92084046677E+01  0.20881177594E+02  0.00000000000E+00 0. -1.
</event>
<event>
 7    1  0.2740409E-010  0.4778727E+02  0.7816164E-02  0.1312668E+00
        -11   -1    0    0    0    0  0.00000000000E+00  0.00000000000E+00  0.45593999997E+02  0.45594000000E+02  0.51100000000E-03 0.  1.
         11   -1    0    0    0    0 -0.00000000000E+00 -0.00000000000E+00 -0.45593999997E+02  0.45594000000E+02  0.51100000000E-03 0. -1.
    9900012    2    1    2    0    0  0.20012919941E+01 -0.14119834219E+02 -0.40990834143E+02  0.47787269916E+02  0.19999994857E+02 0.  0.
        -12    1    1    2    0    0 -0.20012919941E+01  0.14119834219E+02  0.40990834143E+02  0.43400730084E+02  0.00000000000E+00 0.  1.
         11    1    3    3    0    0  0.82023214656E+01 -0.73418166953E+01 -0.33528835777E+02  0.35289703578E+02  0.51100000000E-03 0. -1.
        -11    1    3    3    0    0  0.31114684800E+00  0.22741219198E+00 -0.64763164040E+00  0.75362833602E+00  0.51100000000E-03 0.  1.
         12    1    3    3    0    0 -0.65121763195E+01 -0.70054297161E+01 -0.68143667257E+01  0.11743938002E+02  0.00000000000E+00 0. -1.
</event>
<event>
 7    1  0.2740409E-010  0.4778727E+02  0.7816164E-02  0.1312668E+00
        -11   -1    0    0    0    0  0.00000000000E+00  0.00000000000E+00  0.45593999997E+02  0.45594000000E+02  0.51100000000E-03 0.  1.
         11   -1    0    0    0    0 -0.00000000000E+00 -0.00000000000E+00 -0.45593999997E+02  0.45594000000E+02  0.51100000000E-03 0. -1.
    9900012    2    1    2    0    0  0.40472481852E+02  0.14222337992E+02  0.65823242224E+01  0.47787266396E+02  0.19999978805E+02 0.  0.
        -12    1    1    2    0    0 -0.40472481852E+02 -0.14222337992E+02 -0.65823242224E+01  0.43400733604E+02  0.00000000000E+00 0.  1.
         11    1    3    3    0    0  0.12060314434E+02 -0.40833260264E+01  0.47100391832E+01  0.13576052631E+02  0.51100000000E-03 0. -1.
        -11    1    3    3    0    0 -0.47113865610E-01  0.34815193676E+00 -0.33798765765E+00  0.48750938991E+00  0.51100000000E-03 0.  1.
         12    1    3    3    0    0  0.28459281283E+02  0.17957512082E+02  0.22102726968E+01  0.33723704374E+02  0.00000000000E+00 0. -1.
</event>
<event>
 7    1  0.2740409E-010  0.4778727E+02  0.7816164E-02  0.1312668E+00
        -11   -1    0    0    0    0  0.00000000000E+00  0.00000000000E+00  0.45593999997E+02  0.45594000000E+02  0.51100000000E-03 0.  1.
         11   -1    0    0    0    0 -0.00000000000E+00 -0.00000000000E+00 -0.45593999997E+02  0.45594000000E+02  0.51100000000E-03 0. -1.
    9900012    2    1    2    0    0 -0.22924404996E+02 -0.18872256590E+01 -0.36803985241E+02  0.47787270804E+02  0.19999998906E+02 0.  0.
        -12    1    1    2    0    0  0.22924404996E+02  0.18872256590E+01  0.36803985241E+02  0.43400729196E+02  0.00000000000E+00 0.  1.
         11    1    3    3    0    0 -0.21589824433E+02 -0.64012401670E+00 -0.16057297101E+02  0.26914068223E+02  0.51100000000E-03 0. -1.
        -11    1    3    3    0    0 -0.29666668758E+00 -0.11777603300E+01 -0.13079729328E+02  0.13135998251E+02  0.51100000000E-03 0.  1.
         12    1    3    3    0    0 -0.10379138748E+01 -0.69341312371E-01 -0.76669588118E+01  0.77372043304E+01  0.00000000000E+00 0. -1.
</event>
<event>
 7    1  0.2740409E-010  0.4778728E+02  0.7816164E-02  0.1312668E+00
        -11   -1    0    0    0    0  0.00000000000E+00  0.00000000000E+00  0.45593999997E+02  0.45594000000E+02  0.51100000000E-03 0. -1.
         11   -1    0    0    0    0 -0.00000000000E+00 -0.00000000000E+00 -0.45593999997E+02  0.45594000000E+02  0.51100000000E-03 0.  1.
    9900012    2    1    2    0    0 -0.17884723352E+02 -0.22969411324E+02 -0.32189527217E+02  0.47787275946E+02  0.20000022349E+02 0.  0.
        -12    1    1    2    0    0  0.17884723352E+02  0.22969411324E+02  0.32189527217E+02  0.43400724054E+02  0.00000000000E+00 0.  1.
         11    1    3    3    0    0 -0.29334997224E+01 -0.12864333314E+02 -0.93389638357E+01  0.16165170523E+02  0.51100000000E-03 0. -1.
        -11    1    3    3    0    0 -0.15290650567E+02 -0.81515104883E+01 -0.23787125650E+02  0.29429211083E+02  0.51100000000E-03 0.  1.
        -12    1    3    3    0    0  0.33942693699E+00 -0.19535675210E+01  0.93656226897E+00  0.21928943404E+01  0.00000000000E+00 0.  1.
</event>
<event>
 7    1  0.2740409E-010  0.4778727E+02  0.7816164E-02  0.1312668E+00
        -11   -1    0    0    0    0  0.00000000000E+00  0.00000000000E+00  0.45593999997E+02  0.45594000000E+02  0.51100000000E-03 0.  1.
         11   -1    0    0    0    0 -0.00000000000E+00 -0.00000000000E+00 -0.45593999997E+02  0.45594000000E+02  0.51100000000E-03 0. -1.
    9900012    2    1    2    0    0 -0.29244769616E+02  0.22190594362E+02 -0.23150473683E+02  0.47787268903E+02  0.19999990235E+02 0.  0.
        -12    1    1    2    0    0  0.29244769616E+02 -0.22190594362E+02  0.23150473683E+02  0.43400731097E+02  0.00000000000E+00 0.  1.
         11    1    3    3    0    0 -0.41256375160E+01 -0.67317860731E+00 -0.13516496799E+01  0.43932916440E+01  0.51100000000E-03 0. -1.
        -11    1    3    3    0    0 -0.12229703121E+02  0.25367856921E+01 -0.29784573851E+01  0.12840254232E+02  0.51100000000E-03 0.  1.
        -12    1    3    3    0    0 -0.12889428979E+02  0.20326987277E+02 -0.18820366618E+02  0.30553723027E+02  0.00000000000E+00 0.  1.
</event>
<event>
 7    1  0.2740409E-010  0.4778726E+02  0.7816164E-02  0.1312668E+00
        -11   -1    0    0    0    0  0.00000000000E+00  0.00000000000E+00  0.45593999997E+02  0.45594000000E+02  0.51100000000E-03 0.  1.
         11   -1    0    0    0    0 -0.00000000000E+00 -0.00000000000E+00 -0.45593999997E+02  0.45594000000E+02  0.51100000000E-03 0. -1.
    9900012    2    1    2    0    0  0.18115023910E+02  0.39405185119E+02 -0.16435936154E+01  0.47787261464E+02  0.19999956319E+02 0.  0.
        -12    1    1    2    0    0 -0.18115023910E+02 -0.39405185119E+02  0.16435936154E+01  0.43400738536E+02  0.00000000000E+00 0.  1.
         11    1    3    3    0    0 -0.49635288567E+00  0.80926098965E+01  0.20130604792E+01  0.83539879027E+01  0.51100000000E-03 0. -1.
        -11    1    3    3    0    0  0.96695619285E+01  0.14568773141E+02  0.55380201276E+01  0.18341735085E+02  0.51100000000E-03 0.  1.
         12    1    3    3    0    0  0.89418148671E+01  0.16743802081E+02 -0.91946742223E+01  0.21091538476E+02  0.00000000000E+00 0. -1.
</event>
<event>
 7    1  0.2740409E-010  0.4778726E+02  0.7816164E-02  0.1312668E+00
        -11   -1    0    0    0    0  0.00000000000E+00  0.00000000000E+00  0.45593999997E+02  0.45594000000E+02  0.51100000000E-03 0.  1.
         11   -1    0    0    0    0 -0.00000000000E+00 -0.00000000000E+00 -0.45593999997E+02  0.45594000000E+02  0.51100000000E-03 0. -1.
    9900012    2    1    2    0    0 -0.35153826922E+02 -0.17337988494E+02 -0.18634023294E+02  0.47787260186E+02  0.19999950492E+02 0.  0.
        -12    1    1    2    0    0  0.35153826922E+02  0.17337988494E+02  0.18634023294E+02  0.43400739814E+02  0.00000000000E+00 0.  1.
         11    1    3    3    0    0 -0.33857379036E+02 -0.20041992269E+02 -0.13438146203E+02  0.41576283419E+02  0.51100000000E-03 0. -1.
        -11    1    3    3    0    0 -0.10092847618E+01  0.20938753423E+01 -0.24245183667E+01  0.33587585878E+01  0.51100000000E-03 0.  1.
         12    1    3    3    0    0 -0.28716312449E+00  0.61012843309E+00 -0.27713587238E+01  0.28522181790E+01  0.00000000000E+00 0. -1.
</event>
<event>
 7    1  0.2740409E-010  0.4778727E+02  0.7816164E-02  0.1312668E+00
        -11   -1    0    0    0    0  0.00000000000E+00  0.00000000000E+00  0.45593999997E+02  0.45594000000E+02  0.51100000000E-03 0.  1.
         11   -1    0    0    0    0 -0.00000000000E+00 -0.00000000000E+00 -0.45593999997E+02  0.45594000000E+02  0.51100000000E-03 0. -1.
    9900012    2    1    2    0    0 -0.16422913899E+02  0.26492831766E+02 -0.30200015545E+02  0.47787272186E+02  0.20000005203E+02 0.  0.
        -12    1    1    2    0    0  0.16422913899E+02 -0.26492831766E+02  0.30200015545E+02  0.43400727814E+02  0.00000000000E+00 0.  1.
         11    1    3    3    0    0 -0.60722477159E+01  0.31697646679E+01 -0.39054966704E+01  0.78849543357E+01  0.51100000000E-03 0. -1.
        -11    1    3    3    0    0 -0.54872491997E+01 -0.55612457144E+00 -0.63581768927E+01  0.84169823558E+01  0.51100000000E-03 0.  1.
        -12    1    3    3    0    0 -0.48634169834E+01  0.23879191670E+02 -0.19936341981E+02  0.31485335494E+02  0.00000000000E+00 0.  1.
</event>
<event>
 7    1  0.2740409E-010  0.4778727E+02  0.7816164E-02  0.1312668E+00
        -11   -1    0    0    0    0  0.00000000000E+00  0.00000000000E+00  0.45593999997E+02  0.45594000000E+02  0.51100000000E-03 0.  1.
         11   -1    0    0    0    0 -0.00000000000E+00 -0.00000000000E+00 -0.45593999997E+02  0.45594000000E+02  0.51100000000E-03 0. -1.
    9900012    2    1    2    0    0  0.20955022354E+02 -0.27023406548E+02 -0.26725377674E+02  0.47787271030E+02  0.19999999933E+02 0.  0.
        -12    1    1    2    0    0 -0.20955022354E+02  0.27023406548E+02  0.26725377674E+02  0.43400728970E+02  0.00000000000E+00 0.  1.
         11    1    3    3    0    0  0.23892083554E+01 -0.44776469461E+00 -0.84530251240E+01  0.87955922936E+01  0.51100000000E-03 0. -1.
        -11    1    3    3    0    0  0.15079407506E+02 -0.26572772204E+02 -0.14385933867E+02  0.33770635866E+02  0.51100000000E-03 0.  1.
        -12    1    3    3    0    0  0.34864064929E+01 -0.28696496553E-02 -0.38864186829E+01  0.52210428697E+01  0.00000000000E+00 0.  1.
</event>
<event>
 7    1  0.2740409E-010  0.4778727E+02  0.7816164E-02  0.1312668E+00
        -11   -1    0    0    0    0  0.00000000000E+00  0.00000000000E+00  0.45593999997E+02  0.45594000000E+02  0.51100000000E-03 0.  1.
         11   -1    0    0    0    0 -0.00000000000E+00 -0.00000000000E+00 -0.45593999997E+02  0.45594000000E+02  0.51100000000E-03 0. -1.
    9900012    2    1    2    0    0  0.11506210357E+01  0.23661789961E+02 -0.36365082712E+02  0.47787268744E+02  0.19999989512E+02 0.  0.
        -12    1    1    2    0    0 -0.11506210357E+01 -0.23661789961E+02  0.36365082712E+02  0.43400731256E+02  0.00000000000E+00 0.  1.
         11    1    3    3    0    0  0.25766647450E+01  0.16716171610E+02 -0.24142747647E+02  0.29477819775E+02  0.51100000000E-03 0. -1.
        -11    1    3    3    0    0 -0.27023384897E+01 -0.16617660665E+01 -0.80636421424E+01  0.86652423298E+01  0.51100000000E-03 0.  1.
        -12    1    3    3    0    0  0.12762947804E+01  0.86073844172E+01 -0.41586929228E+01  0.96442066391E+01  0.00000000000E+00 0.  1.
</event>
<event>
 7    1  0.2740409E-010  0.4778727E+02  0.7816164E-02  0.1312668E+00
        -11   -1    0    0    0    0  0.00000000000E+00  0.00000000000E+00  0.45593999997E+02  0.45594000000E+02  0.51100000000E-03 0.  1.
         11   -1    0    0    0    0 -0.00000000000E+00 -0.00000000000E+00 -0.45593999997E+02  0.45594000000E+02  0.51100000000E-03 0. -1.
    9900012    2    1    2    0    0 -0.24959712054E+02  0.68146889147E+01 -0.34845314016E+02  0.47787272820E+02  0.20000008097E+02 0.  0.
        -12    1    1    2    0    0  0.24959712054E+02 -0.68146889147E+01  0.34845314016E+02  0.43400727180E+02  0.00000000000E+00 0.  1.
         11    1    3    3    0    0 -0.17256384555E+02  0.11640500975E+01 -0.15332881493E+02  0.23113525817E+02  0.51100000000E-03 0. -1.
        -11    1    3    3    0    0  0.21998054284E+01 -0.15829711946E+01 -0.23961086492E+01  0.36174961846E+01  0.51100000000E-03 0.  1.
        -12    1    3    3    0    0 -0.99031329275E+01  0.72336100118E+01 -0.17116323874E+02  0.21056250819E+02  0.00000000000E+00 0.  1.
</event>
<event>
 7    1  0.2740409E-010  0.4778727E+02  0.7816164E-02  0.1312668E+00
        -11   -1    0    0    0    0  0.00000000000E+00  0.00000000000E+00  0.45593999997E+02  0.45594000000E+02  0.51100000000E-03 0.  1.
         11   -1    0    0    0    0 -0.00000000000E+00 -0.00000000000E+00 -0.45593999997E+02  0.45594000000E+02  0.51100000000E-03 0. -1.
    9900012    2    1    2    0    0 -0.10157802164E+02  0.30357955683E+02 -0.29305915302E+02  0.47787273165E+02  0.20000009671E+02 0.  0.
        -12    1    1    2    0    0  0.10157802164E+02 -0.30357955683E+02  0.29305915302E+02  0.43400726835E+02  0.00000000000E+00 0.  1.
         11    1    3    3    0    0 -0.10103730545E+02  0.20914280838E+02 -0.17739286418E+02  0.29226268951E+02  0.51100000000E-03 0. -1.
        -11    1    3    3    0    0  0.52527933664E+01  0.26584614036E+01 -0.51132931275E+01  0.77977575015E+01  0.51100000000E-03 0.  1.
        -12    1    3    3    0    0 -0.53068649852E+01  0.67852134410E+01 -0.64533357566E+01  0.10763246713E+02  0.00000000000E+00 0.  1.
</event>
<event>
 7    1  0.2740409E-010  0.4778727E+02  0.7816164E-02  0.1312668E+00
        -11   -1    0    0    0    0  0.00000000000E+00  0.00000000000E+00  0.45593999997E+02  0.45594000000E+02  0.51100000000E-03 0. -1.
         11   -1    0    0    0    0 -0.00000000000E+00 -0.00000000000E+00 -0.45593999997E+02  0.45594000000E+02  0.51100000000E-03 0.  1.
    9900012    2    1    2    0    0  0.85910815236E+01 -0.35904133705E+02  0.22819066675E+02  0.47787270711E+02  0.19999998481E+02 0.  0.
        -12    1    1    2    0    0 -0.85910815236E+01  0.35904133705E+02 -0.22819066675E+02  0.43400729289E+02  0.00000000000E+00 0.  1.
         11    1    3    3    0    0 -0.39076533360E+01 -0.10657319090E+02  0.74691000255E+01  0.13588070512E+02  0.51100000000E-03 0. -1.
        -11    1    3    3    0    0  0.13612866987E+02 -0.25416383675E+02  0.13070998150E+02  0.31656811267E+02  0.51100000000E-03 0.  1.
        -12    1    3    3    0    0 -0.11141321275E+01  0.16956905916E+00  0.22789684993E+01  0.25423889325E+01  0.00000000000E+00 0.  1.
</event>
<event>
 7    1  0.2740409E-010  0.4778727E+02  0.7816164E-02  0.1312668E+00
        -11   -1    0    0    0    0  0.00000000000E+00  0.00000000000E+00  0.45593999997E+02  0.45594000000E+02  0.51100000000E-03 0. -1.
         11   -1    0    0    0    0 -0.00000000000E+00 -0.00000000000E+00 -0.45593999997E+02  0.45594000000E+02  0.51100000000E-03 0.  1.
    9900012    2    1    2    0    0 -0.61119904170E+01 -0.40460092555E+02  0.14465406579E+02  0.47787268395E+02  0.19999987918E+02 0.  0.
        -12    1    1    2    0    0  0.61119904170E+01  0.40460092555E+02 -0.14465406579E+02  0.43400731605E+02  0.00000000000E+00 0.  1.
         11    1    3    3    0    0 -0.76354360391E+01 -0.32205618145E+02  0.18168876043E+02  0.37757248053E+02  0.51100000000E-03 0. -1.
        -11    1    3    3    0    0 -0.68327162036E+00 -0.58055449048E+01 -0.32895772708E+01  0.67076471754E+01  0.51100000000E-03 0.  1.
         12    1    3    3    0    0  0.22067172425E+01 -0.24489295049E+01 -0.41389219279E+00  0.33223731662E+01  0.00000000000E+00 0. -1.
</event>
<event>
 7    1  0.2740409E-010  0.4778727E+02  0.7816164E-02  0.1312668E+00
        -11   -1    0    0    0    0  0.00000000000E+00  0.00000000000E+00  0.45593999997E+02  0.45594000000E+02  0.51100000000E-03 0.  1.
         11   -1    0    0    0    0 -0.00000000000E+00 -0.00000000000E+00 -0.45593999997E+02  0.45594000000E+02  0.51100000000E-03 0. -1.
    9900012    2    1    2    0    0  0.22616324670E+02  0.34596455214E+02  0.13236709519E+02  0.47787270353E+02  0.19999996848E+02 0.  0.
        -12    1    1    2    0    0 -0.22616324670E+02 -0.34596455214E+02 -0.13236709519E+02  0.43400729647E+02  0.00000000000E+00 0.  1.
         11    1    3    3    0    0  0.20995871472E+02  0.23629925300E+02  0.85471945259E+01  0.32745297725E+02  0.51100000000E-03 0. -1.
        -11    1    3    3    0    0  0.38268759529E+01  0.32999948808E+01  0.49312241335E+01  0.70605890326E+01  0.51100000000E-03 0.  1.
         12    1    3    3    0    0 -0.22064227547E+01  0.76665350338E+01 -0.24170914069E+00  0.79813835960E+01  0.00000000000E+00 0. -1.
</event>
<event>
 7    1  0.2740409E-010  0.4778727E+02  0.7816164E-02  0.1312668E+00
        -11   -1    0    0    0    0  0.00000000000E+00  0.00000000000E+00  0.45593999997E+02  0.45594000000E+02  0.51100000000E-03 0.  1.
         11   -1    0    0    0    0 -0.00000000000E+00 -0.00000000000E+00 -0.45593999997E+02  0.45594000000E+02  0.51100000000E-03 0. -1.
    9900012    2    1    2    0    0 -0.38799955543E+02 -0.38601332019E+01 -0.19060072379E+02  0.47787268007E+02  0.19999986152E+02 0.  0.
        -12    1    1    2    0    0  0.38799955543E+02  0.38601332019E+01  0.19060072379E+02  0.43400731993E+02  0.00000000000E+00 0.  1.
         11    1    3    3    0    0 -0.16707672019E+02 -0.47671610285E+01 -0.13488261117E+02  0.21995574937E+02  0.51100000000E-03 0. -1.
        -11    1    3    3    0    0 -0.20552174073E+02  0.45208823846E+01 -0.58848496790E+01  0.21850896839E+02  0.51100000000E-03 0.  1.
        -12    1    3    3    0    0 -0.15401094503E+01 -0.36138545580E+01  0.31303841768E+00  0.39407962313E+01  0.00000000000E+00 0.  1.
</event>
<event>
 7    1  0.2740409E-010  0.4778727E+02  0.7816164E-02  0.1312668E+00
        -11   -1    0    0    0    0  0.00000000000E+00  0.00000000000E+00  0.45593999997E+02  0.45594000000E+02  0.51100000000E-03 0.  1.
         11   -1    0    0    0    0 -0.00000000000E+00 -0.00000000000E+00 -0.45593999997E+02  0.45594000000E+02  0.51100000000E-03 0. -1.
    9900012    2    1    2    0    0 -0.15361870506E+02 -0.21305896251E+02 -0.34549894788E+02  0.47787268320E+02  0.19999987578E+02 0.  0.
        -12    1    1    2    0    0  0.15361870506E+02  0.21305896251E+02  0.34549894788E+02  0.43400731680E+02  0.00000000000E+00 0.  1.
         11    1    3    3    0    0 -0.87082401125E+01 -0.16367554497E+01 -0.11617490019E+02  0.14610903081E+02  0.51100000000E-03 0.  1.
        -11    1    3    3    0    0  0.22842515279E+01 -0.10711093216E+02 -0.13553221572E+02  0.17425129502E+02  0.51100000000E-03 0. -1.
         12    1    3    3    0    0 -0.89378819212E+01 -0.89580475846E+01 -0.93791831978E+01  0.15751235736E+02  0.00000000000E+00 0. -1.
</event>
<event>
 7    1  0.2740409E-010  0.4778728E+02  0.7816164E-02  0.1312668E+00
        -11   -1    0    0    0    0  0.00000000000E+00  0.00000000000E+00  0.45593999997E+02  0.45594000000E+02  0.51100000000E-03 0.  1.
         11   -1    0    0    0    0 -0.00000000000E+00 -0.00000000000E+00 -0.45593999997E+02  0.45594000000E+02  0.51100000000E-03 0. -1.
    9900012    2    1    2    0    0  0.11763009722E+02  0.30292623376E+02 -0.28768226797E+02  0.47787282244E+02  0.20000051063E+02 0.  0.
        -12    1    1    2    0    0 -0.11763009722E+02 -0.30292623376E+02  0.28768226797E+02  0.43400717756E+02  0.00000000000E+00 0.  1.
         11    1    3    3    0    0  0.55472103135E+01  0.10839932622E+02 -0.10059262175E+02  0.15794443240E+02  0.51100000000E-03 0. -1.
        -11    1    3    3    0    0  0.10308679012E+02  0.65154927971E+01 -0.10781566748E+02  0.16277674624E+02  0.51100000000E-03 0.  1.
        -12    1    3    3    0    0 -0.40928796035E+01  0.12937197957E+02 -0.79273978746E+01  0.15715164380E+02  0.00000000000E+00 0.  1.
</event>
<event>
 7    1  0.2740409E-010  0.4778727E+02  0.7816164E-02  0.1312668E+00
        -11   -1    0    0    0    0  0.00000000000E+00  0.00000000000E+00  0.45593999997E+02  0.45594000000E+02  0.51100000000E-03 0. -1.
         11   -1    0    0    0    0 -0.00000000000E+00 -0.00000000000E+00 -0.45593999997E+02  0.45594000000E+02  0.51100000000E-03 0.  1.
    9900012    2    1    2    0    0 -0.25508765876E+02  0.25656354117E+02  0.23972435071E+02  0.47787270901E+02  0.19999999347E+02 0.  0.
        -12    1    1    2    0    0  0.25508765876E+02 -0.25656354117E+02 -0.23972435071E+02  0.43400729099E+02  0.00000000000E+00 0.  1.
         11    1    3    3    0    0 -0.24488139947E+02  0.17779449339E+02  0.25151115898E+02  0.39349160703E+02  0.51100000000E-03 0. -1.
        -11    1    3    3    0    0 -0.16955685985E+01  0.69615259546E+01 -0.13404740693E+01  0.72893530221E+01  0.51100000000E-03 0.  1.
         12    1    3    3    0    0  0.67494266926E+00  0.91537882318E+00  0.16179324204E+00  0.11487571762E+01  0.00000000000E+00 0. -1.
</event>
<event>
 7    1  0.2740409E-010  0.4778727E+02  0.7816164E-02  0.1312668E+00
        -11   -1    0    0    0    0  0.00000000000E+00  0.00000000000E+00  0.45593999997E+02  0.45594000000E+02  0.51100000000E-03 0. -1.
         11   -1    0    0    0    0 -0.00000000000E+00 -0.00000000000E+00 -0.45593999997E+02  0.45594000000E+02  0.51100000000E-03 0.  1.
    9900012    2    1    2    0    0  0.38907215957E+02 -0.47934294945E+01  0.18624576626E+02  0.47787271039E+02  0.19999999976E+02 0.  0.
        -12    1    1    2    0    0 -0.38907215957E+02  0.47934294945E+01 -0.18624576626E+02  0.43400728961E+02  0.00000000000E+00 0.  1.
         11    1    3    3    0    0  0.96345733728E+01 -0.18578378685E+00  0.14471647006E+02  0.17386433993E+02  0.51100000000E-03 0. -1.
        -11    1    3    3    0    0  0.16589669280E+02 -0.52276467924E+01  0.18020074186E+01  0.17486927940E+02  0.51100000000E-03 0.  1.
         12    1    3    3    0    0  0.12682973305E+02  0.62000108477E+00  0.23509222015E+01  0.12913909106E+02  0.00000000000E+00 0. -1.
</event>
<event>
 7    1  0.2740409E-010  0.4778727E+02  0.7816164E-02  0.1312668E+00
        -11   -1    0    0    0    0  0.00000000000E+00  0.00000000000E+00  0.45593999997E+02  0.45594000000E+02  0.51100000000E-03 0.  1.
         11   -1    0    0    0    0 -0.00000000000E+00 -0.00000000000E+00 -0.45593999997E+02  0.45594000000E+02  0.51100000000E-03 0. -1.
    9900012    2    1    2    0    0 -0.19240479919E+02  0.34221196780E+02 -0.18502348667E+02  0.47787270942E+02  0.19999999532E+02 0.  0.
        -12    1    1    2    0    0  0.19240479919E+02 -0.34221196780E+02  0.18502348667E+02  0.43400729058E+02  0.00000000000E+00 0.  1.
         11    1    3    3    0    0 -0.13680118460E+02  0.97032023972E+01 -0.11676150120E+02  0.20436004006E+02  0.51100000000E-03 0. -1.
        -11    1    3    3    0    0 -0.32048132072E+00  0.18184164271E+02 -0.37192700077E+01  0.18563391613E+02  0.51100000000E-03 0.  1.
        -12    1    3    3    0    0 -0.52398801386E+01  0.63338301119E+01 -0.31069285395E+01  0.87878753235E+01  0.00000000000E+00 0.  1.
</event>
<event>
 7    1  0.2740409E-010  0.4778726E+02  0.7816164E-02  0.1312668E+00
        -11   -1    0    0    0    0  0.00000000000E+00  0.00000000000E+00  0.45593999997E+02  0.45594000000E+02  0.51100000000E-03 0.  1.
         11   -1    0    0    0    0 -0.00000000000E+00 -0.00000000000E+00 -0.45593999997E+02  0.45594000000E+02  0.51100000000E-03 0. -1.
    9900012    2    1    2    0    0  0.83698981129E+00  0.14245489109E+02 -0.40987673974E+02  0.47787263489E+02  0.19999965550E+02 0.  0.
        -12    1    1    2    0    0 -0.83698981129E+00 -0.14245489109E+02  0.40987673974E+02  0.43400736511E+02  0.00000000000E+00 0.  1.
         11    1    3    3    0    0 -0.23759742290E+00  0.15498072047E+02 -0.31126149133E+02  0.34771883036E+02  0.51100000000E-03 0. -1.
        -11    1    3    3    0    0  0.27071837578E+01 -0.12338383081E+01  0.44776527507E-01  0.29754337612E+01  0.51100000000E-03 0.  1.
        -12    1    3    3    0    0 -0.16325965236E+01 -0.18744629959E-01 -0.99063013685E+01  0.10039946692E+02  0.00000000000E+00 0.  1.
</event>
<event>
 7    1  0.2740409E-010  0.4778727E+02  0.7816164E-02  0.1312668E+00
        -11   -1    0    0    0    0  0.00000000000E+00  0.00000000000E+00  0.45593999997E+02  0.45594000000E+02  0.51100000000E-03 0.  1.
         11   -1    0    0    0    0 -0.00000000000E+00 -0.00000000000E+00 -0.45593999997E+02  0.45594000000E+02  0.51100000000E-03 0. -1.
    9900012    2    1    2    0    0 -0.37824478698E+02 -0.10002593652E+01 -0.21258687641E+02  0.47787268349E+02  0.19999987711E+02 0.  0.
        -12    1    1    2    0    0  0.37824478698E+02  0.10002593652E+01  0.21258687641E+02  0.43400731651E+02  0.00000000000E+00 0.  1.
         11    1    3    3    0    0 -0.26603270948E+02  0.16170423309E+01 -0.13012035296E+02  0.29659094960E+02  0.51100000000E-03 0. -1.
        -11    1    3    3    0    0 -0.15348360845E+01  0.16187357407E+01  0.22935849868E+01  0.31994623857E+01  0.51100000000E-03 0.  1.
         12    1    3    3    0    0 -0.96863716660E+01 -0.42360374369E+01 -0.10540237332E+02  0.14928711004E+02  0.00000000000E+00 0. -1.
</event>
<event>
 7    1  0.2740409E-010  0.4778727E+02  0.7816164E-02  0.1312668E+00
        -11   -1    0    0    0    0  0.00000000000E+00  0.00000000000E+00  0.45593999997E+02  0.45594000000E+02  0.51100000000E-03 0.  1.
         11   -1    0    0    0    0 -0.00000000000E+00 -0.00000000000E+00 -0.45593999997E+02  0.45594000000E+02  0.51100000000E-03 0. -1.
    9900012    2    1    2    0    0 -0.33763400331E+02 -0.18880126162E+01 -0.27204621995E+02  0.47787271303E+02  0.20000001177E+02 0.  0.
        -12    1    1    2    0    0  0.33763400331E+02  0.18880126162E+01  0.27204621995E+02  0.43400728697E+02  0.00000000000E+00 0.  1.
         11    1    3    3    0    0 -0.63424424137E+01  0.71323681987E+01 -0.52992512023E+01  0.10916927931E+02  0.51100000000E-03 0. -1.
        -11    1    3    3    0    0 -0.12401025448E+02 -0.46128549715E+01 -0.59133492855E+01  0.14492465738E+02  0.51100000000E-03 0.  1.
         12    1    3    3    0    0 -0.15019932470E+02 -0.44075258434E+01 -0.15992021508E+02  0.22377877633E+02  0.00000000000E+00 0. -1.
</event>
<event>
 7    1  0.2740409E-010  0.4778727E+02  0.7816164E-02  0.1312668E+00
        -11   -1    0    0    0    0  0.00000000000E+00  0.00000000000E+00  0.45593999997E+02  0.45594000000E+02  0.51100000000E-03 0. -1.
         11   -1    0    0    0    0 -0.00000000000E+00 -0.00000000000E+00 -0.45593999997E+02  0.45594000000E+02  0.51100000000E-03 0.  1.
    9900012    2    1    2    0    0  0.79204183939E+01 -0.42464190494E+02 -0.42051114008E+01  0.47787268857E+02  0.19999990028E+02 0.  0.
        -12    1    1    2    0    0 -0.79204183939E+01  0.42464190494E+02  0.42051114008E+01  0.43400731143E+02  0.00000000000E+00 0.  1.
         11    1    3    3    0    0  0.43384178582E+00 -0.23031328173E+02  0.38006643441E+01  0.23346848734E+02  0.51100000000E-03 0. -1.
        -11    1    3    3    0    0  0.29410780542E+00 -0.14442929896E+01 -0.45224448018E+01  0.47565732295E+01  0.51100000000E-03 0.  1.
        -12    1    3    3    0    0  0.71924688027E+01 -0.17988569332E+02 -0.34833309430E+01  0.19683846894E+02  0.00000000000E+00 0.  1.
</event>
<event>
 7    1  0.2740409E-010  0.4778727E+02  0.7816164E-02  0.1312668E+00
        -11   -1    0    0    0    0  0.00000000000E+00  0.00000000000E+00  0.45593999997E+02  0.45594000000E+02  0.51100000000E-03 0.  1.
         11   -1    0    0    0    0 -0.00000000000E+00 -0.00000000000E+00 -0.45593999997E+02  0.45594000000E+02  0.51100000000E-03 0. -1.
    9900012    2    1    2    0    0 -0.26344491476E+02 -0.23343671819E+02 -0.25390239900E+02  0.47787268125E+02  0.19999986688E+02 0.  0.
        -12    1    1    2    0    0  0.26344491476E+02  0.23343671819E+02  0.25390239900E+02  0.43400731875E+02  0.00000000000E+00 0.  1.
         11    1    3    3    0    0 -0.18308882522E+02 -0.12232451990E+02 -0.19392194326E+02  0.29341187125E+02  0.51100000000E-03 0. -1.
        -11    1    3    3    0    0 -0.36060059789E+01 -0.12105239656E+02 -0.58082016882E+01  0.13902349203E+02  0.51100000000E-03 0.  1.
        -12    1    3    3    0    0 -0.44296029751E+01  0.99401982760E+00 -0.18984388609E+00  0.45437317962E+01  0.00000000000E+00 0.  1.
</event>
<event>
 7    1  0.2740409E-010  0.4778727E+02  0.7816164E-02  0.1312668E+00
        -11   -1    0    0    0    0  0.00000000000E+00  0.00000000000E+00  0.45593999997E+02  0.45594000000E+02  0.51100000000E-03 0.  1.
         11   -1    0    0    0    0 -0.00000000000E+00 -0.00000000000E+00 -0.45593999997E+02  0.45594000000E+02  0.51100000000E-03 0. -1.
    9900012    2    1    2    0    0  0.15680991371E+02  0.40296128105E+02 -0.37352736834E+01  0.47787266134E+02  0.19999977610E+02 0.  0.
        -12    1    1    2    0    0 -0.15680991371E+02 -0.40296128105E+02  0.37352736834E+01  0.43400733866E+02  0.00000000000E+00 0.  1.
         11    1    3    3    0    0 -0.27242328449E+01  0.90115128872E+00 -0.14217035481E+01  0.32023053380E+01  0.51100000000E-03 0. -1.
        -11    1    3    3    0    0  0.25134571490E+01  0.99306099674E+01  0.30342517706E+01  0.10683686875E+02  0.51100000000E-03 0.  1.
         12    1    3    3    0    0  0.15891767067E+02  0.29464366849E+02 -0.53478219059E+01  0.33901273921E+02  0.00000000000E+00 0. -1.
</event>
<event>
 7    1  0.2740409E-010  0.4778724E+02  0.7816164E-02  0.1312668E+00
        -11   -1    0    0    0    0  0.00000000000E+00  0.00000000000E+00  0.45593999997E+02  0.45594000000E+02  0.51100000000E-03 0. -1.
         11   -1    0    0    0    0 -0.00000000000E+00 -0.00000000000E+00 -0.45593999997E+02  0.45594000000E+02  0.51100000000E-03 0.  1.
    9900012    2    1    2    0    0  0.84650486608E+01  0.30025411558E+02  0.30173562051E+02  0.47787236932E+02  0.19999844465E+02 0.  0.
        -12    1    1    2    0    0 -0.84650486608E+01 -0.30025411558E+02 -0.30173562051E+02  0.43400763068E+02  0.00000000000E+00 0.  1.
         11    1    3    3    0    0  0.55369659934E+01  0.23965538202E+02  0.25415374794E+02  0.35368719088E+02  0.51100000000E-03 0. -1.
        -11    1    3    3    0    0  0.91497168705E+00 -0.51463708127E+00 -0.23224922831E+01  0.25487242259E+01  0.51100000000E-03 0.  1.
        -12    1    3    3    0    0  0.20131109803E+01  0.65745104371E+01  0.70806795397E+01  0.98697936174E+01  0.00000000000E+00 0.  1.
</event>
<event>
 7    1  0.2740409E-010  0.4778727E+02  0.7816164E-02  0.1312668E+00
        -11   -1    0    0    0    0  0.00000000000E+00  0.00000000000E+00  0.45593999997E+02  0.45594000000E+02  0.51100000000E-03 0.  1.
         11   -1    0    0    0    0 -0.00000000000E+00 -0.00000000000E+00 -0.45593999997E+02  0.45594000000E+02  0.51100000000E-03 0. -1.
    9900012    2    1    2    0    0 -0.91661047681E+01 -0.30916205159E+02 -0.29048131392E+02  0.47787272409E+02  0.20000006222E+02 0.  0.
        -12    1    1    2    0    0  0.91661047681E+01  0.30916205159E+02  0.29048131392E+02  0.43400727591E+02  0.00000000000E+00 0.  1.
         11    1    3    3    0    0 -0.81915212399E+01 -0.14609270765E+02 -0.12999829917E+02  0.21202061000E+02  0.51100000000E-03 0. -1.
        -11    1    3    3    0    0  0.51332540866E+01 -0.95662862032E+01 -0.13119734937E+02  0.17029138977E+02  0.51100000000E-03 0.  1.
         12    1    3    3    0    0 -0.61078376148E+01 -0.67406481905E+01 -0.29285665391E+01  0.95560724322E+01  0.00000000000E+00 0. -1.
</event>
<event>
 7    1  0.2740409E-010  0.4778728E+02  0.7816164E-02  0.1312668E+00
        -11   -1    0    0    0    0  0.00000000000E+00  0.00000000000E+00  0.45593999997E+02  0.45594000000E+02  0.51100000000E-03 0. -1.
         11   -1    0    0    0    0 -0.00000000000E+00 -0.00000000000E+00 -0.45593999997E+02  0.45594000000E+02  0.51100000000E-03 0.  1.
    9900012    2    1    2    0    0 -0.10583481729E+02  0.29056228829E+02  0.30452384342E+02  0.47787283055E+02  0.20000054760E+02 0.  0.
        -12    1    1    2    0    0  0.10583481729E+02 -0.29056228829E+02 -0.30452384342E+02  0.43400716945E+02  0.00000000000E+00 0.  1.
         11    1    3    3    0    0 -0.10918487718E+02  0.18391846347E+02  0.25327828295E+02  0.33150750708E+02  0.51100000000E-03 0. -1.
        -11    1    3    3    0    0 -0.24082132369E+00  0.90562102114E+01 -0.18260502600E+00  0.90612517435E+01  0.51100000000E-03 0.  1.
        -12    1    3    3    0    0  0.57582731306E+00  0.16081722697E+01  0.53071610735E+01  0.55752806031E+01  0.00000000000E+00 0.  1.
</event>
<event>
 7    1  0.2740409E-010  0.4778726E+02  0.7816164E-02  0.1312668E+00
        -11   -1    0    0    0    0  0.00000000000E+00  0.00000000000E+00  0.45593999997E+02  0.45594000000E+02  0.51100000000E-03 0.  1.
         11   -1    0    0    0    0 -0.00000000000E+00 -0.00000000000E+00 -0.45593999997E+02  0.45594000000E+02  0.51100000000E-03 0. -1.
    9900012    2    1    2    0    0  0.97817369279E+01 -0.31938608443E+02 -0.27710423578E+02  0.47787255059E+02  0.19999927116E+02 0.  0.
        -12    1    1    2    0    0 -0.97817369279E+01  0.31938608443E+02  0.27710423578E+02  0.43400744941E+02  0.00000000000E+00 0.  1.
         11    1    3    3    0    0  0.81710538002E+01 -0.16220529845E+02 -0.15010846668E+02  0.23562623508E+02  0.51100000000E-03 0. -1.
        -11    1    3    3    0    0  0.65852156317E+00  0.17228403218E+01 -0.46298704232E+01  0.49837264993E+01  0.51100000000E-03 0.  1.
        -12    1    3    3    0    0  0.95216156460E+00 -0.17440918920E+02 -0.80697064869E+01  0.19240905051E+02  0.00000000000E+00 0.  1.
</event>
<event>
 7    1  0.2740409E-010  0.4778727E+02  0.7816164E-02  0.1312668E+00
        -11   -1    0    0    0    0  0.00000000000E+00  0.00000000000E+00  0.45593999997E+02  0.45594000000E+02  0.51100000000E-03 0.  1.
         11   -1    0    0    0    0 -0.00000000000E+00 -0.00000000000E+00 -0.45593999997E+02  0.45594000000E+02  0.51100000000E-03 0. -1.
    9900012    2    1    2    0    0  0.22322941145E+02  0.85894109437E+01 -0.36215075324E+02  0.47787270024E+02  0.19999995349E+02 0.  0.
        -12    1    1    2    0    0 -0.22322941145E+02 -0.85894109437E+01  0.36215075324E+02  0.43400729976E+02  0.00000000000E+00 0.  1.
         11    1    3    3    0    0  0.81870280587E+01 -0.27429846533E+01 -0.19681799784E+02  0.21492432069E+02  0.51100000000E-03 0. -1.
        -11    1    3    3    0    0  0.57428325487E+01  0.10189990556E+02 -0.74141983909E+01  0.13848695652E+02  0.51100000000E-03 0.  1.
         12    1    3    3    0    0  0.83930805374E+01  0.11424050408E+01 -0.91190771485E+01  0.12446142303E+02  0.00000000000E+00 0. -1.
</event>
<event>
 7    1  0.2740409E-010  0.4778727E+02  0.7816164E-02  0.1312668E+00
        -11   -1    0    0    0    0  0.00000000000E+00  0.00000000000E+00  0.45593999997E+02  0.45594000000E+02  0.51100000000E-03 0. -1.
         11   -1    0    0    0    0 -0.00000000000E+00 -0.00000000000E+00 -0.45593999997E+02  0.45594000000E+02  0.51100000000E-03 0.  1.
    9900012    2    1    2    0    0  0.28330728090E+02  0.80501923705E+01  0.31877697005E+02  0.47787270540E+02  0.19999997700E+02 0.  0.
        -12    1    1    2    0    0 -0.28330728090E+02 -0.80501923705E+01 -0.31877697005E+02  0.43400729460E+02  0.00000000000E+00 0.  1.
         11    1    3    3    0    0  0.36771122123E+01  0.27323782143E+01 -0.23973837378E+01  0.51705409751E+01  0.51100000000E-03 0.  1.
        -11    1    3    3    0    0  0.14612813772E+02  0.41598500312E+01  0.19644095270E+02  0.24834032251E+02  0.51100000000E-03 0. -1.
        -12    1    3    3    0    0  0.10040802105E+02  0.11579641250E+01  0.14630985473E+02  0.17782697314E+02  0.00000000000E+00 0.  1.
</event>
<event>
 7    1  0.2740409E-010  0.4778727E+02  0.7816164E-02  0.1312668E+00
        -11   -1    0    0    0    0  0.00000000000E+00  0.00000000000E+00  0.45593999997E+02  0.45594000000E+02  0.51100000000E-03 0.  1.
         11   -1    0    0    0    0 -0.00000000000E+00 -0.00000000000E+00 -0.45593999997E+02  0.45594000000E+02  0.51100000000E-03 0. -1.
    9900012    2    1    2    0    0  0.41189627266E+02  0.22032137840E+01 -0.13497549262E+02  0.47787269806E+02  0.19999994351E+02 0.  0.
        -12    1    1    2    0    0 -0.41189627266E+02 -0.22032137840E+01  0.13497549262E+02  0.43400730194E+02  0.00000000000E+00 0.  1.
         11    1    3    3    0    0  0.13692865644E+02  0.12397848473E+00 -0.97883561623E+01  0.16832167324E+02  0.51100000000E-03 0. -1.
        -11    1    3    3    0    0  0.22821636238E+02 -0.33690786693E+01 -0.51401124030E+01  0.23634689070E+02  0.51100000000E-03 0.  1.
        -12    1    3    3    0    0  0.46751253842E+01  0.54483139686E+01  0.14309193030E+01  0.73204134111E+01  0.00000000000E+00 0.  1.
</event>
<event>
 7    1  0.2740409E-010  0.4778724E+02  0.7816164E-02  0.1312668E+00
        -11   -1    0    0    0    0  0.00000000000E+00  0.00000000000E+00  0.45593999997E+02  0.45594000000E+02  0.51100000000E-03 0. -1.
         11   -1    0    0    0    0 -0.00000000000E+00 -0.00000000000E+00 -0.45593999997E+02  0.45594000000E+02  0.51100000000E-03 0.  1.
    9900012    2    1    2    0    0  0.13016231630E+02  0.16800292413E+02  0.37841169864E+02  0.47787236785E+02  0.19999843795E+02 0.  0.
        -12    1    1    2    0    0 -0.13016231630E+02 -0.16800292413E+02 -0.37841169864E+02  0.43400763215E+02  0.00000000000E+00 0.  1.
         11    1    3    3    0    0  0.11821227074E+02  0.11019096463E+02  0.28065540934E+02  0.32385745083E+02  0.51100000000E-03 0. -1.
        -11    1    3    3    0    0 -0.24186985007E+01  0.73444095919E+01  0.78491015901E+01  0.11018114663E+02  0.51100000000E-03 0.  1.
         12    1    3    3    0    0  0.36137030566E+01 -0.15632136418E+01  0.19265273396E+01  0.43833770385E+01  0.00000000000E+00 0. -1.
</event>
<event>
 7    1  0.2740409E-010  0.4778727E+02  0.7816164E-02  0.1312668E+00
        -11   -1    0    0    0    0  0.00000000000E+00  0.00000000000E+00  0.45593999997E+02  0.45594000000E+02  0.51100000000E-03 0. -1.
         11   -1    0    0    0    0 -0.00000000000E+00 -0.00000000000E+00 -0.45593999997E+02  0.45594000000E+02  0.51100000000E-03 0.  1.
    9900012    2    1    2    0    0  0.67736973812E+01 -0.42518339436E+02  0.54709414030E+01  0.47787270001E+02  0.19999995242E+02 0.  0.
        -12    1    1    2    0    0 -0.67736973812E+01  0.42518339436E+02 -0.54709414030E+01  0.43400729999E+02  0.00000000000E+00 0.  1.
         11    1    3    3    0    0 -0.38982829811E+01 -0.10290563537E+02 -0.57827167094E+00  0.11019378680E+02  0.51100000000E-03 0. -1.
        -11    1    3    3    0    0  0.94364937441E+01 -0.24251112648E+02  0.98779219736E+01  0.27834101775E+02  0.51100000000E-03 0.  1.
        -12    1    3    3    0    0  0.12354866182E+01 -0.79766632516E+01 -0.38287088996E+01  0.89337895459E+01  0.00000000000E+00 0.  1.
</event>
<event>
 7    1  0.2740409E-010  0.4778727E+02  0.7816164E-02  0.1312668E+00
        -11   -1    0    0    0    0  0.00000000000E+00  0.00000000000E+00  0.45593999997E+02  0.45594000000E+02  0.51100000000E-03 0.  1.
         11   -1    0    0    0    0 -0.00000000000E+00 -0.00000000000E+00 -0.45593999997E+02  0.45594000000E+02  0.51100000000E-03 0. -1.
    9900012    2    1    2    0    0 -0.20050746483E+02  0.49592858350E+01 -0.38170619100E+02  0.47787272898E+02  0.20000008451E+02 0.  0.
        -12    1    1    2    0    0  0.20050746483E+02 -0.49592858350E+01  0.38170619100E+02  0.43400727102E+02  0.00000000000E+00 0.  1.
         11    1    3    3    0    0 -0.38231976798E+01 -0.50434909377E+01 -0.24449280494E+01  0.67846381455E+01  0.51100000000E-03 0. -1.
        -11    1    3    3    0    0 -0.51666083555E+01  0.52451846184E+01 -0.19139697135E+02  0.20506921033E+02  0.51100000000E-03 0.  1.
         12    1    3    3    0    0 -0.11060940448E+02  0.47575921543E+01 -0.16585993916E+02  0.20495713719E+02  0.00000000000E+00 0. -1.
</event>
<event>
 7    1  0.2740409E-010  0.4778727E+02  0.7816164E-02  0.1312668E+00
        -11   -1    0    0    0    0  0.00000000000E+00  0.00000000000E+00  0.45593999997E+02  0.45594000000E+02  0.51100000000E-03 0.  1.
         11   -1    0    0    0    0 -0.00000000000E+00 -0.00000000000E+00 -0.45593999997E+02  0.45594000000E+02  0.51100000000E-03 0. -1.
    9900012    2    1    2    0    0  0.32336710473E+02 -0.13835888316E+02 -0.25426929127E+02  0.47787269885E+02  0.19999994711E+02 0.  0.
        -12    1    1    2    0    0 -0.32336710473E+02  0.13835888316E+02  0.25426929127E+02  0.43400730115E+02  0.00000000000E+00 0.  1.
         11    1    3    3    0    0  0.99703084304E+01  0.37971448469E+01 -0.39411188011E+01  0.11373556034E+02  0.51100000000E-03 0. -1.
        -11    1    3    3    0    0  0.94384355858E+01 -0.11576640702E+02 -0.89362511338E+01  0.17405724944E+02  0.51100000000E-03 0.  1.
         12    1    3    3    0    0  0.12927966457E+02 -0.60563924614E+01 -0.12549559192E+02  0.19007988907E+02  0.00000000000E+00 0. -1.
</event>
<event>
 7    1  0.2740409E-010  0.4778727E+02  0.7816164E-02  0.1312668E+00
        -11   -1    0    0    0    0  0.00000000000E+00  0.00000000000E+00  0.45593999997E+02  0.45594000000E+02  0.51100000000E-03 0. -1.
         11   -1    0    0    0    0 -0.00000000000E+00 -0.00000000000E+00 -0.45593999997E+02  0.45594000000E+02  0.51100000000E-03 0.  1.
    9900012    2    1    2    0    0  0.30522071125E+02  0.30516874340E+02  0.45548666070E+01  0.47787271261E+02  0.20000000987E+02 0.  0.
        -12    1    1    2    0    0 -0.30522071125E+02 -0.30516874340E+02 -0.45548666070E+01  0.43400728739E+02  0.00000000000E+00 0.  1.
         11    1    3    3    0    0  0.17258846888E+02  0.12663432188E+02 -0.53685651154E+01  0.22069250153E+02  0.51100000000E-03 0. -1.
        -11    1    3    3    0    0  0.26917542831E+01  0.10371972804E+02  0.54040301043E+01  0.12001120889E+02  0.51100000000E-03 0.  1.
         12    1    3    3    0    0  0.10571469954E+02  0.74814693483E+01  0.45194016181E+01  0.13716900218E+02  0.00000000000E+00 0. -1.
</event>
<event>
 7    1  0.2740409E-010  0.4778727E+02  0.7816164E-02  0.1312668E+00
        -11   -1    0    0    0    0  0.00000000000E+00  0.00000000000E+00  0.45593999997E+02  0.45594000000E+02  0.51100000000E-03 0.  1.
         11   -1    0    0    0    0 -0.00000000000E+00 -0.00000000000E+00 -0.45593999997E+02  0.45594000000E+02  0.51100000000E-03 0. -1.
    9900012    2    1    2    0    0 -0.19554275171E+02 -0.34578375626E+02 -0.17481125414E+02  0.47787268622E+02  0.19999988956E+02 0.  0.
        -12    1    1    2    0    0  0.19554275171E+02  0.34578375626E+02  0.17481125414E+02  0.43400731378E+02  0.00000000000E+00 0.  1.
         11    1    3    3    0    0 -0.73240752405E+01 -0.68974559291E+01 -0.51251175519E+01  0.11290872712E+02  0.51100000000E-03 0. -1.
        -11    1    3    3    0    0 -0.62602830577E+01 -0.70093208574E+01  0.32195561109E+01  0.99341463980E+01  0.51100000000E-03 0.  1.
        -12    1    3    3    0    0 -0.59699168724E+01 -0.20671598840E+02 -0.15575563973E+02  0.26562249512E+02  0.00000000000E+00 0.  1.
</event>
<event>
 7    1  0.2740409E-010  0.4778727E+02  0.7816164E-02  0.1312668E+00
        -11   -1    0    0    0    0  0.00000000000E+00  0.00000000000E+00  0.45593999997E+02  0.45594000000E+02  0.51100000000E-03 0.  1.
         11   -1    0    0    0    0 -0.00000000000E+00 -0.00000000000E+00 -0.45593999997E+02  0.45594000000E+02  0.51100000000E-03 0. -1.
    9900012    2    1    2    0    0 -0.27207347212E+02  0.32102887311E+02 -0.10620169970E+02  0.47787272745E+02  0.20000007756E+02 0.  0.
        -12    1    1    2    0    0  0.27207347212E+02 -0.32102887311E+02  0.10620169970E+02  0.43400727255E+02  0.00000000000E+00 0.  1.
         11    1    3    3    0    0 -0.41378826231E+01  0.10994188780E+02  0.35841362260E+01  0.12281705593E+02  0.51100000000E-03 0. -1.
        -11    1    3    3    0    0 -0.23410676413E+02  0.18975373548E+02 -0.12051263662E+02  0.32455469917E+02  0.51100000000E-03 0.  1.
        -12    1    3    3    0    0  0.34121182435E+00  0.21333249827E+01 -0.21530425335E+01  0.30500972349E+01  0.00000000000E+00 0.  1.
</event>
<event>
 7    1  0.2740409E-010  0.4778727E+02  0.7816164E-02  0.1312668E+00
        -11   -1    0    0    0    0  0.00000000000E+00  0.00000000000E+00  0.45593999997E+02  0.45594000000E+02  0.51100000000E-03 0.  1.
         11   -1    0    0    0    0 -0.00000000000E+00 -0.00000000000E+00 -0.45593999997E+02  0.45594000000E+02  0.51100000000E-03 0. -1.
    9900012    2    1    2    0    0  0.25928661986E+02 -0.31276728886E+02 -0.15267418910E+02  0.47787270025E+02  0.19999995351E+02 0.  0.
        -12    1    1    2    0    0 -0.25928661986E+02  0.31276728886E+02  0.15267418910E+02  0.43400729975E+02  0.00000000000E+00 0.  1.
         11    1    3    3    0    0  0.69401305051E+01 -0.19866733832E+02 -0.42566943760E+01  0.21470257843E+02  0.51100000000E-03 0. -1.
        -11    1    3    3    0    0  0.18497161101E+02 -0.11700405744E+02 -0.12156838638E+02  0.25036636941E+02  0.51100000000E-03 0.  1.
         12    1    3    3    0    0  0.49137038003E+00  0.29041068997E+00  0.11461141035E+01  0.12803752409E+01  0.00000000000E+00 0. -1.
</event>
<event>
 7    1  0.2740409E-010  0.4778728E+02  0.7816164E-02  0.1312668E+00
        -11   -1    0    0    0    0  0.00000000000E+00  0.00000000000E+00  0.45593999997E+02  0.45594000000E+02  0.51100000000E-03 0. -1.
         11   -1    0    0    0    0 -0.00000000000E+00 -0.00000000000E+00 -0.45593999997E+02  0.45594000000E+02  0.51100000000E-03 0.  1.
    9900012    2    1    2    0    0  0.30580802166E+02  0.30293302003E+02 -0.55455570177E+01  0.47787276389E+02  0.20000024368E+02 0.  0.
        -12    1    1    2    0    0 -0.30580802166E+02 -0.30293302003E+02  0.55455570177E+01  0.43400723611E+02  0.00000000000E+00 0.  1.
         11    1    3    3    0    0  0.30253075335E+01  0.49661466776E+01  0.39817303117E+01  0.70476432254E+01  0.51100000000E-03 0.  1.
        -11    1    3    3    0    0  0.20962183158E+02  0.15645131141E+02 -0.11983146846E+02  0.28771149782E+02  0.51100000000E-03 0. -1.
         12    1    3    3    0    0  0.65933114741E+01  0.96820241842E+01  0.24558595167E+01  0.11968483382E+02  0.00000000000E+00 0. -1.
</event>
<event>
 7    1  0.2740409E-010  0.4778727E+02  0.7816164E-02  0.1312668E+00
        -11   -1    0    0    0    0  0.00000000000E+00  0.00000000000E+00  0.45593999997E+02  0.45594000000E+02  0.51100000000E-03 0. -1.
         11   -1    0    0    0    0 -0.00000000000E+00 -0.00000000000E+00 -0.45593999997E+02  0.45594000000E+02  0.51100000000E-03 0.  1.
    9900012    2    1    2    0    0  0.26168816913E+02 -0.34543077512E+02 -0.23647754912E+01  0.47787270216E+02  0.19999996225E+02 0.  0.
        -12    1    1    2    0    0 -0.26168816913E+02  0.34543077512E+02  0.23647754912E+01  0.43400729784E+02  0.00000000000E+00 0.  1.
         11    1    3    3    0    0  0.86417931921E+01 -0.43986742846E+01 -0.23422573064E+00  0.96996797365E+01  0.51100000000E-03 0.  1.
        -11    1    3    3    0    0  0.17450048259E+02 -0.26778389937E+02 -0.64544291813E+01  0.32607453261E+02  0.51100000000E-03 0. -1.
        -12    1    3    3    0    0  0.76975462296E-01 -0.33660132901E+01  0.43238794208E+01  0.54801372187E+01  0.00000000000E+00 0.  1.
</event>
<event>
 7    1  0.2740409E-010  0.4778728E+02  0.7816164E-02  0.1312668E+00
        -11   -1    0    0    0    0  0.00000000000E+00  0.00000000000E+00  0.45593999997E+02  0.45594000000E+02  0.51100000000E-03 0.  1.
         11   -1    0    0    0    0 -0.00000000000E+00 -0.00000000000E+00 -0.45593999997E+02  0.45594000000E+02  0.51100000000E-03 0. -1.
    9900012    2    1    2    0    0  0.31500106738E+01  0.30709065869E+02 -0.30506607309E+02  0.47787281304E+02  0.20000046777E+02 0.  0.
        -12    1    1    2    0    0 -0.31500106738E+01 -0.30709065869E+02  0.30506607309E+02  0.43400718696E+02  0.00000000000E+00 0.  1.
         11    1    3    3    0    0 -0.44185887960E+01  0.17655029492E+02 -0.19960048204E+02  0.27011618202E+02  0.51100000000E-03 0. -1.
        -11    1    3    3    0    0  0.54975431806E+01  0.41791563963E+01 -0.91560296696E-01  0.69062806746E+01  0.51100000000E-03 0.  1.
         12    1    3    3    0    0  0.20710562892E+01  0.88748799809E+01 -0.10454998808E+02  0.13869382427E+02  0.00000000000E+00 0. -1.
</event>
<event>
 7    1  0.2740409E-010  0.4778727E+02  0.7816164E-02  0.1312668E+00
        -11   -1    0    0    0    0  0.00000000000E+00  0.00000000000E+00  0.45593999997E+02  0.45594000000E+02  0.51100000000E-03 0. -1.
         11   -1    0    0    0    0 -0.00000000000E+00 -0.00000000000E+00 -0.45593999997E+02  0.45594000000E+02  0.51100000000E-03 0.  1.
    9900012    2    1    2    0    0 -0.22978309628E+01 -0.43261883577E+02 -0.25985795306E+01  0.47787271742E+02  0.20000003179E+02 0.  0.
        -12    1    1    2    0    0  0.22978309628E+01  0.43261883577E+02  0.25985795306E+01  0.43400728258E+02  0.00000000000E+00 0.  1.
         11    1    3    3    0    0 -0.46913888191E+01 -0.10909502665E+02  0.51953747463E+01  0.12962187179E+02  0.51100000000E-03 0. -1.
        -11    1    3    3    0    0 -0.26057244249E+01 -0.14908948357E+02 -0.69644679066E+01  0.16660442802E+02  0.51100000000E-03 0.  1.
         12    1    3    3    0    0  0.49992822812E+01 -0.17443432556E+02 -0.82948637032E+00  0.18164641760E+02  0.00000000000E+00 0. -1.
</event>
<event>
 7    1  0.2740409E-010  0.4778727E+02  0.7816164E-02  0.1312668E+00
        -11   -1    0    0    0    0  0.00000000000E+00  0.00000000000E+00  0.45593999997E+02  0.45594000000E+02  0.51100000000E-03 0.  1.
         11   -1    0    0    0    0 -0.00000000000E+00 -0.00000000000E+00 -0.45593999997E+02  0.45594000000E+02  0.51100000000E-03 0. -1.
    9900012    2    1    2    0    0  0.97497168470E+00 -0.58829856188E+01 -0.42989106988E+02  0.47787269485E+02  0.19999992889E+02 0.  0.
        -12    1    1    2    0    0 -0.97497168470E+00  0.58829856188E+01  0.42989106988E+02  0.43400730515E+02  0.00000000000E+00 0.  1.
         11    1    3    3    0    0  0.83290522193E+00 -0.40005699285E+01 -0.27406080984E+02  0.27709052059E+02  0.51100000000E-03 0. -1.
        -11    1    3    3    0    0  0.54372103429E+01 -0.16232460801E+01 -0.29881379053E+01  0.64130454974E+01  0.51100000000E-03 0.  1.
        -12    1    3    3    0    0 -0.52951438801E+01 -0.25916961025E+00 -0.12594888100E+02  0.13665171929E+02  0.00000000000E+00 0.  1.
</event>
<event>
 7    1  0.2740409E-010  0.4778727E+02  0.7816164E-02  0.1312668E+00
        -11   -1    0    0    0    0  0.00000000000E+00  0.00000000000E+00  0.45593999997E+02  0.45594000000E+02  0.51100000000E-03 0. -1.
         11   -1    0    0    0    0 -0.00000000000E+00 -0.00000000000E+00 -0.45593999997E+02  0.45594000000E+02  0.51100000000E-03 0.  1.
    9900012    2    1    2    0    0 -0.30529174382E+02 -0.15590108368E+02  0.26618446645E+02  0.47787266490E+02  0.19999979237E+02 0.  0.
        -12    1    1    2    0    0  0.30529174382E+02  0.15590108368E+02 -0.26618446645E+02  0.43400733510E+02  0.00000000000E+00 0.  1.
         11    1    3    3    0    0 -0.25885237595E+02 -0.10321822143E+02  0.25947142987E+02  0.38076761511E+02  0.51100000000E-03 0. -1.
        -11    1    3    3    0    0 -0.52395518627E+01 -0.26529376836E+01 -0.17172829325E+01  0.61188269306E+01  0.51100000000E-03 0.  1.
        -12    1    3    3    0    0  0.59561507537E+00 -0.26153485409E+01  0.23885865905E+01  0.35916780492E+01  0.00000000000E+00 0.  1.
</event>
<event>
 7    1  0.2740409E-010  0.4778728E+02  0.7816164E-02  0.1312668E+00
        -11   -1    0    0    0    0  0.00000000000E+00  0.00000000000E+00  0.45593999997E+02  0.45594000000E+02  0.51100000000E-03 0. -1.
         11   -1    0    0    0    0 -0.00000000000E+00 -0.00000000000E+00 -0.45593999997E+02  0.45594000000E+02  0.51100000000E-03 0.  1.
    9900012    2    1    2    0    0 -0.28559442808E+02  0.30036821674E+02  0.12875188503E+02  0.47787275251E+02  0.20000019179E+02 0.  0.
        -12    1    1    2    0    0  0.28559442808E+02 -0.30036821674E+02 -0.12875188503E+02  0.43400724749E+02  0.00000000000E+00 0.  1.
         11    1    3    3    0    0 -0.24290185310E+02  0.25519717742E+02  0.65611549496E+01  0.35837380632E+02  0.51100000000E-03 0. -1.
        -11    1    3    3    0    0 -0.27873385859E+01 -0.18889834984E+01  0.10499309041E+01  0.35270200190E+01  0.51100000000E-03 0.  1.
        -12    1    3    3    0    0 -0.14819189120E+01  0.64060874298E+01  0.52641026495E+01  0.84228745998E+01  0.00000000000E+00 0.  1.
</event>
<event>
 7    1  0.2740409E-010  0.4778730E+02  0.7816164E-02  0.1312668E+00
        -11   -1    0    0    0    0  0.00000000000E+00  0.00000000000E+00  0.45593999997E+02  0.45594000000E+02  0.51100000000E-03 0.  1.
         11   -1    0    0    0    0 -0.00000000000E+00 -0.00000000000E+00 -0.45593999997E+02  0.45594000000E+02  0.51100000000E-03 0. -1.
    9900012    2    1    2    0    0 -0.11478806213E+02  0.39903332045E+02 -0.12632567115E+02  0.47787301247E+02  0.20000137705E+02 0.  0.
        -12    1    1    2    0    0  0.11478806213E+02 -0.39903332045E+02  0.12632567115E+02  0.43400698753E+02  0.00000000000E+00 0.  1.
         11    1    3    3    0    0 -0.38582687364E+01  0.27911412558E+02 -0.11958474592E+02  0.30609447944E+02  0.51100000000E-03 0. -1.
        -11    1    3    3    0    0  0.11711800271E+00  0.20375918959E+01  0.33677276406E+01  0.39379038946E+01  0.51100000000E-03 0.  1.
         12    1    3    3    0    0 -0.77376554793E+01  0.99543275906E+01 -0.40418201634E+01  0.13239949408E+02  0.00000000000E+00 0. -1.
</event>
<event>
 7    1  0.2740409E-010  0.4778727E+02  0.7816164E-02  0.1312668E+00
        -11   -1    0    0    0    0  0.00000000000E+00  0.00000000000E+00  0.45593999997E+02  0.45594000000E+02  0.51100000000E-03 0.  1.
         11   -1    0    0    0    0 -0.00000000000E+00 -0.00000000000E+00 -0.45593999997E+02  0.45594000000E+02  0.51100000000E-03 0. -1.
    9900012    2    1    2    0    0 -0.30655587372E+02  0.14692194548E+02 -0.26981427099E+02  0.47787273900E+02  0.20000013018E+02 0.  0.
        -12    1    1    2    0    0  0.30655587372E+02 -0.14692194548E+02  0.26981427099E+02  0.43400726100E+02  0.00000000000E+00 0.  1.
         11    1    3    3    0    0 -0.26429112721E+02  0.14262519351E+02 -0.19766736831E+02  0.35953321719E+02  0.51100000000E-03 0. -1.
        -11    1    3    3    0    0 -0.48290833318E+01  0.21228982661E+01 -0.10057559593E+01  0.53701292522E+01  0.51100000000E-03 0.  1.
         12    1    3    3    0    0  0.60260868094E+00 -0.16932230699E+01 -0.62089343094E+01  0.64638229281E+01  0.00000000000E+00 0. -1.
</event>
<event>
 7    1  0.2740409E-010  0.4778728E+02  0.7816164E-02  0.1312668E+00
        -11   -1    0    0    0    0  0.00000000000E+00  0.00000000000E+00  0.45593999997E+02  0.45594000000E+02  0.51100000000E-03 0.  1.
         11   -1    0    0    0    0 -0.00000000000E+00 -0.00000000000E+00 -0.45593999997E+02  0.45594000000E+02  0.51100000000E-03 0. -1.
    9900012    2    1    2    0    0  0.18287984194E+02 -0.37287828495E+02 -0.12601189031E+02  0.47787280136E+02  0.20000041450E+02 0.  0.
        -12    1    1    2    0    0 -0.18287984194E+02  0.37287828495E+02  0.12601189031E+02  0.43400719864E+02  0.00000000000E+00 0.  1.
         11    1    3    3    0    0  0.18102996834E+02 -0.25560714144E+02 -0.13281002916E+02  0.34021370352E+02  0.51100000000E-03 0. -1.
        -11    1    3    3    0    0  0.18298342993E+01 -0.93438767226E+01  0.30774913227E+01  0.10006361920E+02  0.51100000000E-03 0.  1.
         12    1    3    3    0    0 -0.16448469388E+01 -0.23832376281E+01 -0.23976774371E+01  0.37595478633E+01  0.00000000000E+00 0. -1.
</event>
<event>
 7    1  0.2740409E-010  0.4778726E+02  0.7816164E-02  0.1312668E+00
        -11   -1    0    0    0    0  0.00000000000E+00  0.00000000000E+00  0.45593999997E+02  0.45594000000E+02  0.51100000000E-03 0. -1.
         11   -1    0    0    0    0 -0.00000000000E+00 -0.00000000000E+00 -0.45593999997E+02  0.45594000000E+02  0.51100000000E-03 0.  1.
    9900012    2    1    2    0    0 -0.33222024854E+02  0.27879244236E+02 -0.16337453338E+01  0.47787259011E+02  0.19999945136E+02 0.  0.
        -12    1    1    2    0    0  0.33222024854E+02 -0.27879244236E+02  0.16337453338E+01  0.43400740989E+02  0.00000000000E+00 0.  1.
         11    1    3    3    0    0 -0.17985380849E+02  0.48551274706E+01  0.10199772681E+00  0.18629454926E+02  0.51100000000E-03 0.  1.
        -11    1    3    3    0    0 -0.21606346717E+01 -0.43598705510E+00  0.29107052139E+00  0.22233194116E+01  0.51100000000E-03 0. -1.
         12    1    3    3    0    0 -0.13076009333E+02  0.23460103821E+02 -0.20268135820E+01  0.26934484674E+02  0.00000000000E+00 0. -1.
</event>
<event>
 7    1  0.2740409E-010  0.4778728E+02  0.7816164E-02  0.1312668E+00
        -11   -1    0    0    0    0  0.00000000000E+00  0.00000000000E+00  0.45593999997E+02  0.45594000000E+02  0.51100000000E-03 0.  1.
         11   -1    0    0    0    0 -0.00000000000E+00 -0.00000000000E+00 -0.45593999997E+02  0.45594000000E+02  0.51100000000E-03 0. -1.
    9900012    2    1    2    0    0  0.64856903577E+01  0.42788205703E+02  0.32753701498E+01  0.47787276777E+02  0.20000026137E+02 0.  0.
        -12    1    1    2    0    0 -0.64856903577E+01 -0.42788205703E+02 -0.32753701498E+01  0.43400723223E+02  0.00000000000E+00 0.  1.
         11    1    3    3    0    0  0.51769134872E+01  0.23648778113E+01 -0.16175928210E+01  0.59168984369E+01  0.51100000000E-03 0.  1.
        -11    1    3    3    0    0  0.46848363915E+01  0.25267186447E+02  0.56978573124E+01  0.26321929663E+02  0.51100000000E-03 0. -1.
         12    1    3    3    0    0 -0.33760595210E+01  0.15156141444E+02 -0.80489434164E+00  0.15548448677E+02  0.00000000000E+00 0. -1.
</event>
<event>
 7    1  0.2740409E-010  0.4778727E+02  0.7816164E-02  0.1312668E+00
        -11   -1    0    0    0    0  0.00000000000E+00  0.00000000000E+00  0.45593999997E+02  0.45594000000E+02  0.51100000000E-03 0.  1.
         11   -1    0    0    0    0 -0.00000000000E+00 -0.00000000000E+00 -0.45593999997E+02  0.45594000000E+02  0.51100000000E-03 0. -1.
    9900012    2    1    2    0    0  0.41885420207E+02  0.10874567995E+02 -0.33134129630E+01  0.47787270047E+02  0.19999995454E+02 0.  0.
        -12    1    1    2    0    0 -0.41885420207E+02 -0.10874567995E+02  0.33134129630E+01  0.43400729953E+02  0.00000000000E+00 0.  1.
         11    1    3    3    0    0  0.26828473838E+02  0.80319864897E+01  0.18689119832E+01  0.28067287858E+02  0.51100000000E-03 0. -1.
        -11    1    3    3    0    0  0.13747312419E+02  0.41473253446E+00  0.10761795598E+00  0.13753987920E+02  0.51100000000E-03 0.  1.
         12    1    3    3    0    0  0.13096339493E+01  0.24278489707E+01 -0.52899429022E+01  0.59659942688E+01  0.00000000000E+00 0. -1.
</event>
<event>
 7    1  0.2740409E-010  0.4778727E+02  0.7816164E-02  0.1312668E+00
        -11   -1    0    0    0    0  0.00000000000E+00  0.00000000000E+00  0.45593999997E+02  0.45594000000E+02  0.51100000000E-03 0.  1.
         11   -1    0    0    0    0 -0.00000000000E+00 -0.00000000000E+00 -0.45593999997E+02  0.45594000000E+02  0.51100000000E-03 0. -1.
    9900012    2    1    2    0    0 -0.33732297594E+02  0.77450164228E+01 -0.26187212277E+02  0.47787271121E+02  0.20000000349E+02 0.  0.
        -12    1    1    2    0    0  0.33732297594E+02 -0.77450164228E+01  0.26187212277E+02  0.43400728879E+02  0.00000000000E+00 0.  1.
         11    1    3    3    0    0 -0.70467613569E+00  0.88119245746E+00 -0.76113203607E+00  0.13610256576E+01  0.51100000000E-03 0. -1.
        -11    1    3    3    0    0 -0.25261911067E+02 -0.36813358517E+01 -0.14422163168E+02  0.29320899971E+02  0.51100000000E-03 0.  1.
        -12    1    3    3    0    0 -0.77657103913E+01  0.10545159817E+02 -0.11003917073E+02  0.17105345492E+02  0.00000000000E+00 0.  1.
</event>
<event>
 7    1  0.2740409E-010  0.4778727E+02  0.7816164E-02  0.1312668E+00
        -11   -1    0    0    0    0  0.00000000000E+00  0.00000000000E+00  0.45593999997E+02  0.45594000000E+02  0.51100000000E-03 0.  1.
         11   -1    0    0    0    0 -0.00000000000E+00 -0.00000000000E+00 -0.45593999997E+02  0.45594000000E+02  0.51100000000E-03 0. -1.
    9900012    2    1    2    0    0 -0.31438246522E-02  0.40539429402E+02 -0.15497675748E+02  0.47787270746E+02  0.19999998641E+02 0.  0.
        -12    1    1    2    0    0  0.31438246522E-02 -0.40539429402E+02  0.15497675748E+02  0.43400729254E+02  0.00000000000E+00 0.  1.
         11    1    3    3    0    0  0.26533517833E+01  0.13115851808E+02 -0.12101650640E+02  0.18042056225E+02  0.51100000000E-03 0. -1.
        -11    1    3    3    0    0  0.21574919172E+01  0.13243015783E+02  0.25043782929E+01  0.13649327796E+02  0.51100000000E-03 0.  1.
        -12    1    3    3    0    0 -0.48139875252E+01  0.14180561812E+02 -0.59004034010E+01  0.16095886725E+02  0.00000000000E+00 0.  1.
</event>
<event>
 7    1  0.2740409E-010  0.4778727E+02  0.7816164E-02  0.1312668E+00
        -11   -1    0    0    0    0  0.00000000000E+00  0.00000000000E+00  0.45593999997E+02  0.45594000000E+02  0.51100000000E-03 0.  1.
         11   -1    0    0    0    0 -0.00000000000E+00 -0.00000000000E+00 -0.45593999997E+02  0.45594000000E+02  0.51100000000E-03 0. -1.
    9900012    2    1    2    0    0  0.19337871482E+02 -0.26227074818E+02 -0.28667239942E+02  0.47787269904E+02  0.19999994801E+02 0.  0.
        -12    1    1    2    0    0 -0.19337871482E+02  0.26227074818E+02  0.28667239942E+02  0.43400730096E+02  0.00000000000E+00 0.  1.
         11    1    3    3    0    0  0.18022536426E+02 -0.14569280319E+02 -0.13510656634E+02  0.26825614460E+02  0.51100000000E-03 0. -1.
        -11    1    3    3    0    0 -0.32549114803E+00 -0.10145301597E+02 -0.65733227711E+01  0.12093041862E+02  0.51100000000E-03 0.  1.
         12    1    3    3    0    0  0.16408262040E+01 -0.15124929029E+01 -0.85832605370E+01  0.88686135816E+01  0.00000000000E+00 0. -1.
</event>
<event>
 7    1  0.2740409E-010  0.4778727E+02  0.7816164E-02  0.1312668E+00
        -11   -1    0    0    0    0  0.00000000000E+00  0.00000000000E+00  0.45593999997E+02  0.45594000000E+02  0.51100000000E-03 0.  1.
         11   -1    0    0    0    0 -0.00000000000E+00 -0.00000000000E+00 -0.45593999997E+02  0.45594000000E+02  0.51100000000E-03 0. -1.
    9900012    2    1    2    0    0 -0.26069305005E+02  0.31663297096E+02 -0.14193318859E+02  0.47787270206E+02  0.19999996177E+02 0.  0.
        -12    1    1    2    0    0  0.26069305005E+02 -0.31663297096E+02  0.14193318859E+02  0.43400729794E+02  0.00000000000E+00 0.  1.
         11    1    3    3    0    0 -0.84628267142E+01  0.25168043938E+01 -0.20389288993E+01  0.90615104519E+01  0.51100000000E-03 0. -1.
        -11    1    3    3    0    0 -0.95766682587E+01  0.25987505147E+02 -0.66248729814E+01  0.28477217929E+02  0.51100000000E-03 0.  1.
        -12    1    3    3    0    0 -0.80298100319E+01  0.31589875554E+01 -0.55295169788E+01  0.10248541825E+02  0.00000000000E+00 0.  1.
</event>
<event>
 7    1  0.2740409E-010  0.4778727E+02  0.7816164E-02  0.1312668E+00
        -11   -1    0    0    0    0  0.00000000000E+00  0.00000000000E+00  0.45593999997E+02  0.45594000000E+02  0.51100000000E-03 0.  1.
         11   -1    0    0    0    0 -0.00000000000E+00 -0.00000000000E+00 -0.45593999997E+02  0.45594000000E+02  0.51100000000E-03 0. -1.
    9900012    2    1    2    0    0 -0.11996447944E+02  0.22481283294E+02 -0.35132611891E+02  0.47787270972E+02  0.19999999672E+02 0.  0.
        -12    1    1    2    0    0  0.11996447944E+02 -0.22481283294E+02  0.35132611891E+02  0.43400729028E+02  0.00000000000E+00 0.  1.
         11    1    3    3    0    0 -0.15679130146E+01  0.22299738640E+00 -0.27030604188E+01  0.31328285853E+01  0.51100000000E-03 0. -1.
        -11    1    3    3    0    0  0.19294029403E+01 -0.23998434323E+01 -0.26295397458E+01  0.40492374272E+01  0.51100000000E-03 0.  1.
        -12    1    3    3    0    0 -0.12357937870E+02  0.24658129340E+02 -0.29800011727E+02  0.40605204960E+02  0.00000000000E+00 0.  1.
</event>
<event>
 7    1  0.2740409E-010  0.4778727E+02  0.7816164E-02  0.1312668E+00
        -11   -1    0    0    0    0  0.00000000000E+00  0.00000000000E+00  0.45593999997E+02  0.45594000000E+02  0.51100000000E-03 0. -1.
         11   -1    0    0    0    0 -0.00000000000E+00 -0.00000000000E+00 -0.45593999997E+02  0.45594000000E+02  0.51100000000E-03 0.  1.
    9900012    2    1    2    0    0  0.18546594057E+02  0.42949951989E+01 -0.39002569315E+02  0.47787267886E+02  0.19999985599E+02 0.  0.
        -12    1    1    2    0    0 -0.18546594057E+02 -0.42949951989E+01  0.39002569315E+02  0.43400732114E+02  0.00000000000E+00 0.  1.
         11    1    3    3    0    0  0.12939132611E+02  0.77790148793E+01 -0.15249371118E+02  0.21458740527E+02  0.51100000000E-03 0. -1.
        -11    1    3    3    0    0  0.79282837053E+01 -0.41098019694E+01 -0.18004067542E+02  0.20097129225E+02  0.51100000000E-03 0.  1.
         12    1    3    3    0    0 -0.23208222593E+01  0.62578228905E+00 -0.57491306543E+01  0.62313981347E+01  0.00000000000E+00 0. -1.
</event>
<event>
 7    1  0.2740409E-010  0.4778727E+02  0.7816164E-02  0.1312668E+00
        -11   -1    0    0    0    0  0.00000000000E+00  0.00000000000E+00  0.45593999997E+02  0.45594000000E+02  0.51100000000E-03 0.  1.
         11   -1    0    0    0    0 -0.00000000000E+00 -0.00000000000E+00 -0.45593999997E+02  0.45594000000E+02  0.51100000000E-03 0. -1.
    9900012    2    1    2    0    0  0.24763307011E+02  0.34387694344E+01 -0.35476426994E+02  0.47787269803E+02  0.19999994341E+02 0.  0.
        -12    1    1    2    0    0 -0.24763307011E+02 -0.34387694344E+01  0.35476426994E+02  0.43400730197E+02  0.00000000000E+00 0.  1.
         11    1    3    3    0    0 -0.38916400803E-01 -0.27821076446E+01 -0.92281299732E+01  0.96384656712E+01  0.51100000000E-03 0. -1.
        -11    1    3    3    0    0  0.10649820752E+02  0.22839328505E+01 -0.42395348990E+01  0.11687971926E+02  0.51100000000E-03 0.  1.
        -12    1    3    3    0    0  0.14152402660E+02  0.39369442285E+01 -0.22008762122E+02  0.26460832206E+02  0.00000000000E+00 0.  1.
</event>
<event>
 7    1  0.2740409E-010  0.4778728E+02  0.7816164E-02  0.1312668E+00
        -11   -1    0    0    0    0  0.00000000000E+00  0.00000000000E+00  0.45593999997E+02  0.45594000000E+02  0.51100000000E-03 0.  1.
         11   -1    0    0    0    0 -0.00000000000E+00 -0.00000000000E+00 -0.45593999997E+02  0.45594000000E+02  0.51100000000E-03 0. -1.
    9900012    2    1    2    0    0 -0.94792047227E+01  0.38386384396E+02 -0.17895600996E+02  0.47787281525E+02  0.20000047784E+02 0.  0.
        -12    1    1    2    0    0  0.94792047227E+01 -0.38386384396E+02  0.17895600996E+02  0.43400718475E+02  0.00000000000E+00 0.  1.
         11    1    3    3    0    0 -0.32266469733E+01  0.32930335235E+01  0.13375504815E+01  0.48004543565E+01  0.51100000000E-03 0. -1.
        -11    1    3    3    0    0 -0.25244267626E+01  0.15834388895E+02 -0.16793848841E+02  0.23219258414E+02  0.51100000000E-03 0.  1.
        -12    1    3    3    0    0 -0.37281309868E+01  0.19258961977E+02 -0.24393026373E+01  0.19767568754E+02  0.00000000000E+00 0.  1.
</event>
<event>
 7    1  0.2740409E-010  0.4778727E+02  0.7816164E-02  0.1312668E+00
        -11   -1    0    0    0    0  0.00000000000E+00  0.00000000000E+00  0.45593999997E+02  0.45594000000E+02  0.51100000000E-03 0. -1.
         11   -1    0    0    0    0 -0.00000000000E+00 -0.00000000000E+00 -0.45593999997E+02  0.45594000000E+02  0.51100000000E-03 0.  1.
    9900012    2    1    2    0    0 -0.12185715466E+02  0.31211229782E+02  0.27586064695E+02  0.47787268540E+02  0.19999988583E+02 0.  0.
        -12    1    1    2    0    0  0.12185715466E+02 -0.31211229782E+02 -0.27586064695E+02  0.43400731460E+02  0.00000000000E+00 0.  1.
         11    1    3    3    0    0 -0.69578346987E+01  0.86985465075E+01  0.13880643436E+02  0.17797427834E+02  0.51100000000E-03 0. -1.
        -11    1    3    3    0    0  0.16859684322E+01  0.17946582038E+02  0.70232494199E+01  0.19345498936E+02  0.51100000000E-03 0.  1.
        -12    1    3    3    0    0 -0.69138491997E+01  0.45661012361E+01  0.66821718389E+01  0.10644341771E+02  0.00000000000E+00 0.  1.
</event>
<event>
 7    1  0.2740409E-010  0.4778726E+02  0.7816164E-02  0.1312668E+00
        -11   -1    0    0    0    0  0.00000000000E+00  0.00000000000E+00  0.45593999997E+02  0.45594000000E+02  0.51100000000E-03 0. -1.
         11   -1    0    0    0    0 -0.00000000000E+00 -0.00000000000E+00 -0.45593999997E+02  0.45594000000E+02  0.51100000000E-03 0.  1.
    9900012    2    1    2    0    0  0.52203732214E+01  0.23340391803E+02  0.36215985925E+02  0.47787264723E+02  0.19999971178E+02 0.  0.
        -12    1    1    2    0    0 -0.52203732214E+01 -0.23340391803E+02 -0.36215985925E+02  0.43400735277E+02  0.00000000000E+00 0.  1.
         11    1    3    3    0    0 -0.48042572814E+01  0.87194377488E+01  0.15265154134E+02  0.18224555240E+02  0.51100000000E-03 0. -1.
        -11    1    3    3    0    0  0.88441824094E+01  0.14635762157E+02  0.12886198829E+02  0.21412127800E+02  0.51100000000E-03 0.  1.
         12    1    3    3    0    0  0.11804480935E+01 -0.14808102096E-01  0.80646329609E+01  0.81505816833E+01  0.00000000000E+00 0. -1.
</event>
<event>
 7    1  0.2740409E-010  0.4778728E+02  0.7816164E-02  0.1312668E+00
        -11   -1    0    0    0    0  0.00000000000E+00  0.00000000000E+00  0.45593999997E+02  0.45594000000E+02  0.51100000000E-03 0.  1.
         11   -1    0    0    0    0 -0.00000000000E+00 -0.00000000000E+00 -0.45593999997E+02  0.45594000000E+02  0.51100000000E-03 0. -1.
    9900012    2    1    2    0    0  0.19346922135E+02  0.32447396413E+02  0.21365526530E+02  0.47787278186E+02  0.20000032560E+02 0.  0.
        -12    1    1    2    0    0 -0.19346922135E+02 -0.32447396413E+02 -0.21365526530E+02  0.43400721814E+02  0.00000000000E+00 0.  1.
         11    1    3    3    0    0  0.68607424565E+01  0.16730855640E+02  0.76773678989E+01  0.19645185049E+02  0.51100000000E-03 0. -1.
        -11    1    3    3    0    0  0.14993707368E+02  0.11931293635E+02  0.13777815718E+02  0.23600746485E+02  0.51100000000E-03 0.  1.
        -12    1    3    3    0    0 -0.25075276897E+01  0.37852471378E+01 -0.89657086747E-01  0.45413466507E+01  0.00000000000E+00 0.  1.
</event>
<event>
 7    1  0.2740409E-010  0.4778727E+02  0.7816164E-02  0.1312668E+00
        -11   -1    0    0    0    0  0.00000000000E+00  0.00000000000E+00  0.45593999997E+02  0.45594000000E+02  0.51100000000E-03 0.  1.
         11   -1    0    0    0    0 -0.00000000000E+00 -0.00000000000E+00 -0.45593999997E+02  0.45594000000E+02  0.51100000000E-03 0. -1.
    9900012    2    1    2    0    0 -0.23608784977E+02 -0.36059456991E+02 -0.50954861777E+01  0.47787272518E+02  0.20000006718E+02 0.  0.
        -12    1    1    2    0    0  0.23608784977E+02  0.36059456991E+02  0.50954861777E+01  0.43400727482E+02  0.00000000000E+00 0.  1.
         11    1    3    3    0    0 -0.11589596740E+02 -0.20266035191E+02 -0.30127705965E+01  0.23539492813E+02  0.51100000000E-03 0. -1.
        -11    1    3    3    0    0  0.23938609505E+01 -0.14410357334E+01 -0.27173774146E+01  0.38976011224E+01  0.51100000000E-03 0.  1.
        -12    1    3    3    0    0 -0.14413049188E+02 -0.14352386066E+02  0.63466183335E+00  0.20350178582E+02  0.00000000000E+00 0.  1.
</event>
<event>
 7    1  0.2740409E-010  0.4778727E+02  0.7816164E-02  0.1312668E+00
        -11   -1    0    0    0    0  0.00000000000E+00  0.00000000000E+00  0.45593999997E+02  0.45594000000E+02  0.51100000000E-03 0.  1.
         11   -1    0    0    0    0 -0.00000000000E+00 -0.00000000000E+00 -0.45593999997E+02  0.45594000000E+02  0.51100000000E-03 0. -1.
    9900012    2    1    2    0    0  0.30462669201E+02  0.30119145033E+02  0.69631858428E+01  0.47787273400E+02  0.20000010738E+02 0.  0.
        -12    1    1    2    0    0 -0.30462669201E+02 -0.30119145033E+02 -0.69631858428E+01  0.43400726600E+02  0.00000000000E+00 0.  1.
         11    1    3    3    0    0  0.21759199984E+01 -0.20404880018E+01  0.35633944553E+01  0.46471496027E+01  0.51100000000E-03 0.  1.
        -11    1    3    3    0    0  0.18949073934E+02  0.18710572063E+02  0.18498089392E+01  0.26694094913E+02  0.51100000000E-03 0. -1.
        -12    1    3    3    0    0  0.93376752685E+01  0.13449060972E+02  0.15499824483E+01  0.16446028884E+02  0.00000000000E+00 0.  1.
</event>
<event>
 7    1  0.2740409E-010  0.4778727E+02  0.7816164E-02  0.1312668E+00
        -11   -1    0    0    0    0  0.00000000000E+00  0.00000000000E+00  0.45593999997E+02  0.45594000000E+02  0.51100000000E-03 0. -1.
         11   -1    0    0    0    0 -0.00000000000E+00 -0.00000000000E+00 -0.45593999997E+02  0.45594000000E+02  0.51100000000E-03 0.  1.
    9900012    2    1    2    0    0  0.29884090872E+02  0.12890068541E+02  0.28712550803E+02  0.47787270422E+02  0.19999997163E+02 0.  0.
        -12    1    1    2    0    0 -0.29884090872E+02 -0.12890068541E+02 -0.28712550803E+02  0.43400729578E+02  0.00000000000E+00 0.  1.
         11    1    3    3    0    0  0.86616196212E+01  0.84119789600E+01  0.14608270000E+02  0.18952218792E+02  0.51100000000E-03 0. -1.
        -11    1    3    3    0    0  0.70291832081E+01 -0.14339689901E+01 -0.10457159023E+01  0.72497727997E+01  0.51100000000E-03 0.  1.
         12    1    3    3    0    0  0.14193288043E+02  0.59120585708E+01  0.15149996705E+02  0.21585278830E+02  0.00000000000E+00 0. -1.
</event>
<event>
 7    1  0.2740409E-010  0.4778727E+02  0.7816164E-02  0.1312668E+00
        -11   -1    0    0    0    0  0.00000000000E+00  0.00000000000E+00  0.45593999997E+02  0.45594000000E+02  0.51100000000E-03 0. -1.
         11   -1    0    0    0    0 -0.00000000000E+00 -0.00000000000E+00 -0.45593999997E+02  0.45594000000E+02  0.51100000000E-03 0.  1.
    9900012    2    1    2    0    0 -0.32920949655E+02  0.99994282535E+01  0.26454603351E+02  0.47787268093E+02  0.19999986545E+02 0.  0.
        -12    1    1    2    0    0  0.32920949655E+02 -0.99994282535E+01 -0.26454603351E+02  0.43400731907E+02  0.00000000000E+00 0.  1.
         11    1    3    3    0    0 -0.41762401271E+01  0.21016170676E+01  0.67975869528E+01  0.82501493648E+01  0.51100000000E-03 0. -1.
        -11    1    3    3    0    0 -0.38115944865E+01  0.52967901491E+01  0.11414863008E+02  0.13148510796E+02  0.51100000000E-03 0.  1.
        -12    1    3    3    0    0 -0.24933115041E+02  0.26010210369E+01  0.82421533902E+01  0.26388607932E+02  0.00000000000E+00 0.  1.
</event>
<event>
 7    1  0.2740409E-010  0.4778727E+02  0.7816164E-02  0.1312668E+00
        -11   -1    0    0    0    0  0.00000000000E+00  0.00000000000E+00  0.45593999997E+02  0.45594000000E+02  0.51100000000E-03 0.  1.
         11   -1    0    0    0    0 -0.00000000000E+00 -0.00000000000E+00 -0.45593999997E+02  0.45594000000E+02  0.51100000000E-03 0. -1.
    9900012    2    1    2    0    0 -0.34090316705E+02  0.26010362456E+02 -0.67033259996E+01  0.47787271578E+02  0.20000002431E+02 0.  0.
        -12    1    1    2    0    0  0.34090316705E+02 -0.26010362456E+02  0.67033259996E+01  0.43400728422E+02  0.00000000000E+00 0.  1.
         11    1    3    3    0    0 -0.19562525019E+02  0.12388731879E+02  0.30766975404E+00  0.23157455033E+02  0.51100000000E-03 0. -1.
        -11    1    3    3    0    0 -0.88921932692E+01  0.12434230206E+02 -0.98738503639E+01  0.18198189559E+02  0.51100000000E-03 0.  1.
        -12    1    3    3    0    0 -0.56355984168E+01  0.11874003707E+01  0.28628546102E+01  0.64316269851E+01  0.00000000000E+00 0.  1.
</event>
<event>
 7    1  0.2740409E-010  0.4778727E+02  0.7816164E-02  0.1312668E+00
        -11   -1    0    0    0    0  0.00000000000E+00  0.00000000000E+00  0.45593999997E+02  0.45594000000E+02  0.51100000000E-03 0.  1.
         11   -1    0    0    0    0 -0.00000000000E+00 -0.00000000000E+00 -0.45593999997E+02  0.45594000000E+02  0.51100000000E-03 0. -1.
    9900012    2    1    2    0    0  0.13054580074E+02 -0.31114351687E+02 -0.27296498450E+02  0.47787265336E+02  0.19999973971E+02 0.  0.
        -12    1    1    2    0    0 -0.13054580074E+02  0.31114351687E+02  0.27296498450E+02  0.43400734664E+02  0.00000000000E+00 0.  1.
         11    1    3    3    0    0  0.60342717584E+01 -0.15588410571E+01 -0.56290306544E+01  0.83981192814E+01  0.51100000000E-03 0. -1.
        -11    1    3    3    0    0 -0.38527506071E+00 -0.21612137188E+02 -0.11371296614E+02  0.24424153980E+02  0.51100000000E-03 0.  1.
        -12    1    3    3    0    0  0.74055833767E+01 -0.79433734415E+01 -0.10296171182E+02  0.14964992074E+02  0.00000000000E+00 0.  1.
</event>
<event>
 7    1  0.2740409E-010  0.4778727E+02  0.7816164E-02  0.1312668E+00
        -11   -1    0    0    0    0  0.00000000000E+00  0.00000000000E+00  0.45593999997E+02  0.45594000000E+02  0.51100000000E-03 0.  1.
         11   -1    0    0    0    0 -0.00000000000E+00 -0.00000000000E+00 -0.45593999997E+02  0.45594000000E+02  0.51100000000E-03 0. -1.
    9900012    2    1    2    0    0 -0.45769438124E+01  0.35056402896E+02  0.25173867963E+02  0.47787269282E+02  0.19999991962E+02 0.  0.
        -12    1    1    2    0    0  0.45769438124E+01 -0.35056402896E+02 -0.25173867963E+02  0.43400730718E+02  0.00000000000E+00 0.  1.
         11    1    3    3    0    0  0.46644336053E+01  0.14322336736E+02  0.28666511228E+01  0.15333100122E+02  0.51100000000E-03 0. -1.
        -11    1    3    3    0    0 -0.40286621396E+01  0.12327590117E+02  0.16489620351E+02  0.20978731523E+02  0.51100000000E-03 0.  1.
         12    1    3    3    0    0 -0.52127152781E+01  0.84064760439E+01  0.58175964886E+01  0.11475437637E+02  0.00000000000E+00 0. -1.
</event>
<event>
 7    1  0.2740409E-010  0.4778727E+02  0.7816164E-02  0.1312668E+00
        -11   -1    0    0    0    0  0.00000000000E+00  0.00000000000E+00  0.45593999997E+02  0.45594000000E+02  0.51100000000E-03 0.  1.
         11   -1    0    0    0    0 -0.00000000000E+00 -0.00000000000E+00 -0.45593999997E+02  0.45594000000E+02  0.51100000000E-03 0. -1.
    9900012    2    1    2    0    0  0.10053765908E+02  0.33648808119E+02 -0.25501035646E+02  0.47787270562E+02  0.19999997799E+02 0.  0.
        -12    1    1    2    0    0 -0.10053765908E+02 -0.33648808119E+02  0.25501035646E+02  0.43400729438E+02  0.00000000000E+00 0.  1.
         11    1    3    3    0    0  0.47091663226E+01  0.61245489009E+01 -0.85940252348E+01  0.11556107333E+02  0.51100000000E-03 0. -1.
        -11    1    3    3    0    0  0.12561316473E-02  0.46477563065E+01 -0.11097175531E+02  0.12031165583E+02  0.51100000000E-03 0.  1.
        -12    1    3    3    0    0  0.53433434543E+01  0.22876502911E+02 -0.58098348805E+01  0.24199997646E+02  0.00000000000E+00 0.  1.
</event>
<event>
 7    1  0.2740409E-010  0.4778727E+02  0.7816164E-02  0.1312668E+00
        -11   -1    0    0    0    0  0.00000000000E+00  0.00000000000E+00  0.45593999997E+02  0.45594000000E+02  0.51100000000E-03 0. -1.
         11   -1    0    0    0    0 -0.00000000000E+00 -0.00000000000E+00 -0.45593999997E+02  0.45594000000E+02  0.51100000000E-03 0.  1.
    9900012    2    1    2    0    0  0.23472682946E+02  0.20117310024E+02  0.30462275318E+02  0.47787271609E+02  0.20000002576E+02 0.  0.
        -12    1    1    2    0    0 -0.23472682946E+02 -0.20117310024E+02 -0.30462275318E+02  0.43400728391E+02  0.00000000000E+00 0.  1.
         11    1    3    3    0    0  0.13375026318E+02  0.12958622011E+02  0.21916598326E+02  0.28760293738E+02  0.51100000000E-03 0. -1.
        -11    1    3    3    0    0 -0.67208784467E+00 -0.95520210110E+00 -0.17205146838E+01  0.20794913232E+01  0.51100000000E-03 0.  1.
        -12    1    3    3    0    0  0.10769744473E+02  0.81138901135E+01  0.10266191676E+02  0.16947486549E+02  0.00000000000E+00 0.  1.
</event>
<event>
 7    1  0.2740409E-010  0.4778727E+02  0.7816164E-02  0.1312668E+00
        -11   -1    0    0    0    0  0.00000000000E+00  0.00000000000E+00  0.45593999997E+02  0.45594000000E+02  0.51100000000E-03 0. -1.
         11   -1    0    0    0    0 -0.00000000000E+00 -0.00000000000E+00 -0.45593999997E+02  0.45594000000E+02  0.51100000000E-03 0.  1.
    9900012    2    1    2    0    0 -0.41015315177E+02 -0.13305768552E+02  0.49319091368E+01  0.47787270933E+02  0.19999999490E+02 0.  0.
        -12    1    1    2    0    0  0.41015315177E+02  0.13305768552E+02 -0.49319091368E+01  0.43400729067E+02  0.00000000000E+00 0.  1.
         11    1    3    3    0    0 -0.62079706365E+01 -0.20231562139E+01  0.23458742931E+01  0.69379526483E+01  0.51100000000E-03 0. -1.
        -11    1    3    3    0    0 -0.24789358772E+02 -0.10978165238E+02  0.94392354792E+01  0.28707692123E+02  0.51100000000E-03 0.  1.
        -12    1    3    3    0    0 -0.10017985768E+02 -0.30444710044E+00 -0.68532006356E+01  0.12141626161E+02  0.00000000000E+00 0.  1.
</event>
<event>
 7    1  0.2740409E-010  0.4778729E+02  0.7816164E-02  0.1312668E+00
        -11   -1    0    0    0    0  0.00000000000E+00  0.00000000000E+00  0.45593999997E+02  0.45594000000E+02  0.51100000000E-03 0. -1.
         11   -1    0    0    0    0 -0.00000000000E+00 -0.00000000000E+00 -0.45593999997E+02  0.45594000000E+02  0.51100000000E-03 0.  1.
    9900012    2    1    2    0    0  0.10101788025E+02 -0.30090779104E+01  0.42101321159E+02  0.47787286705E+02  0.20000071404E+02 0.  0.
        -12    1    1    2    0    0 -0.10101788025E+02  0.30090779104E+01 -0.42101321159E+02  0.43400713295E+02  0.00000000000E+00 0.  1.
         11    1    3    3    0    0  0.73929702611E+01  0.70474827887E+01  0.12666135019E+02  0.16271262997E+02  0.51100000000E-03 0. -1.
        -11    1    3    3    0    0  0.34096264695E+00 -0.63320280651E+01  0.21730041691E+02  0.22636376633E+02  0.51100000000E-03 0.  1.
         12    1    3    3    0    0  0.23678551166E+01 -0.37245326340E+01  0.77051444490E+01  0.88796470749E+01  0.00000000000E+00 0. -1.
</event>
<event>
 7    1  0.2740409E-010  0.4778727E+02  0.7816164E-02  0.1312668E+00
        -11   -1    0    0    0    0  0.00000000000E+00  0.00000000000E+00  0.45593999997E+02  0.45594000000E+02  0.51100000000E-03 0.  1.
         11   -1    0    0    0    0 -0.00000000000E+00 -0.00000000000E+00 -0.45593999997E+02  0.45594000000E+02  0.51100000000E-03 0. -1.
    9900012    2    1    2    0    0  0.26711899422E+01 -0.18905480352E+02 -0.38975257319E+02  0.47787272747E+02  0.20000007762E+02 0.  0.
        -12    1    1    2    0    0 -0.26711899422E+01  0.18905480352E+02  0.38975257319E+02  0.43400727253E+02  0.00000000000E+00 0.  1.
         11    1    3    3    0    0  0.28405079822E+01 -0.87068745502E+01 -0.36963105125E+01  0.98762777248E+01  0.51100000000E-03 0. -1.
        -11    1    3    3    0    0 -0.36152919408E+01 -0.95341253235E+01 -0.23414200436E+02  0.25538102197E+02  0.51100000000E-03 0.  1.
        -12    1    3    3    0    0  0.34459739008E+01 -0.66448047823E+00 -0.11864746370E+02  0.12372892825E+02  0.00000000000E+00 0.  1.
</event>
<event>
 7    1  0.2740409E-010  0.4778727E+02  0.7816164E-02  0.1312668E+00
        -11   -1    0    0    0    0  0.00000000000E+00  0.00000000000E+00  0.45593999997E+02  0.45594000000E+02  0.51100000000E-03 0.  1.
         11   -1    0    0    0    0 -0.00000000000E+00 -0.00000000000E+00 -0.45593999997E+02  0.45594000000E+02  0.51100000000E-03 0. -1.
    9900012    2    1    2    0    0 -0.37553370046E+02 -0.15622679363E+02 -0.15142643894E+02  0.47787269864E+02  0.19999994616E+02 0.  0.
        -12    1    1    2    0    0  0.37553370046E+02  0.15622679363E+02  0.15142643894E+02  0.43400730136E+02  0.00000000000E+00 0.  1.
         11    1    3    3    0    0 -0.28088783756E+02 -0.91847179947E+01 -0.41426490577E+01  0.29841252638E+02  0.51100000000E-03 0. -1.
        -11    1    3    3    0    0  0.11441113171E+01 -0.12997472745E+01 -0.36893714657E+01  0.40755117171E+01  0.51100000000E-03 0.  1.
         12    1    3    3    0    0 -0.10608697607E+02 -0.51382140936E+01 -0.73106233711E+01  0.13870505508E+02  0.00000000000E+00 0. -1.
</event>
<event>
 7    1  0.2740409E-010  0.4778726E+02  0.7816164E-02  0.1312668E+00
        -11   -1    0    0    0    0  0.00000000000E+00  0.00000000000E+00  0.45593999997E+02  0.45594000000E+02  0.51100000000E-03 0. -1.
         11   -1    0    0    0    0 -0.00000000000E+00 -0.00000000000E+00 -0.45593999997E+02  0.45594000000E+02  0.51100000000E-03 0.  1.
    9900012    2    1    2    0    0 -0.38750857767E+02 -0.15313095964E+02  0.12145128737E+02  0.47787262245E+02  0.19999959880E+02 0.  0.
        -12    1    1    2    0    0  0.38750857767E+02  0.15313095964E+02 -0.12145128737E+02  0.43400737755E+02  0.00000000000E+00 0.  1.
         11    1    3    3    0    0 -0.12544540246E+02 -0.43520526936E+01  0.12313559649E+02  0.18108826691E+02  0.51100000000E-03 0. -1.
        -11    1    3    3    0    0 -0.13124253195E+02 -0.60491869113E+01 -0.43511254328E+01  0.15092083256E+02  0.51100000000E-03 0.  1.
         12    1    3    3    0    0 -0.13082064326E+02 -0.49118563591E+01  0.41826945206E+01  0.14586352298E+02  0.00000000000E+00 0. -1.
</event>
<event>
 7    1  0.2740409E-010  0.4778727E+02  0.7816164E-02  0.1312668E+00
        -11   -1    0    0    0    0  0.00000000000E+00  0.00000000000E+00  0.45593999997E+02  0.45594000000E+02  0.51100000000E-03 0. -1.
         11   -1    0    0    0    0 -0.00000000000E+00 -0.00000000000E+00 -0.45593999997E+02  0.45594000000E+02  0.51100000000E-03 0.  1.
    9900012    2    1    2    0    0  0.42303791833E+02 -0.94943731081E+01 -0.19671795713E+01  0.47787265909E+02  0.19999976588E+02 0.  0.
        -12    1    1    2    0    0 -0.42303791833E+02  0.94943731081E+01  0.19671795713E+01  0.43400734091E+02  0.00000000000E+00 0.  1.
         11    1    3    3    0    0  0.41387683939E+01  0.77811205171E+00 -0.44420470079E+01  0.61210002504E+01  0.51100000000E-03 0. -1.
        -11    1    3    3    0    0  0.27811082585E+02 -0.13166065511E+02  0.29052050190E+01  0.30906986460E+02  0.51100000000E-03 0.  1.
        -12    1    3    3    0    0  0.10353940854E+02  0.28935803508E+01 -0.43033758237E+00  0.10759279199E+02  0.00000000000E+00 0.  1.
</event>
<event>
 7    1  0.2740409E-010  0.4778731E+02  0.7816164E-02  0.1312668E+00
        -11   -1    0    0    0    0  0.00000000000E+00  0.00000000000E+00  0.45593999997E+02  0.45594000000E+02  0.51100000000E-03 0. -1.
         11   -1    0    0    0    0 -0.00000000000E+00 -0.00000000000E+00 -0.45593999997E+02  0.45594000000E+02  0.51100000000E-03 0.  1.
    9900012    2    1    2    0    0  0.14357445898E+02 -0.14040410790E+02  0.38475328812E+02  0.47787305132E+02  0.20000155418E+02 0.  0.
        -12    1    1    2    0    0 -0.14357445898E+02  0.14040410790E+02 -0.38475328812E+02  0.43400694868E+02  0.00000000000E+00 0.  1.
         11    1    3    3    0    0  0.14535057765E+02 -0.13291804063E+02  0.37894399615E+02  0.42707440592E+02  0.51100000000E-03 0. -1.
        -11    1    3    3    0    0 -0.21306060305E+01 -0.18233454557E-01  0.16887277910E+01  0.27187527158E+01  0.51100000000E-03 0.  1.
         12    1    3    3    0    0  0.19529941635E+01 -0.73037327257E+00 -0.11077985943E+01  0.23611118241E+01  0.00000000000E+00 0. -1.
</event>
<event>
 7    1  0.2740409E-010  0.4778727E+02  0.7816164E-02  0.1312668E+00
        -11   -1    0    0    0    0  0.00000000000E+00  0.00000000000E+00  0.45593999997E+02  0.45594000000E+02  0.51100000000E-03 0. -1.
         11   -1    0    0    0    0 -0.00000000000E+00 -0.00000000000E+00 -0.45593999997E+02  0.45594000000E+02  0.51100000000E-03 0.  1.
    9900012    2    1    2    0    0 -0.88577888685E+01  0.42391291407E+02  0.28532571500E+01  0.47787273196E+02  0.20000009809E+02 0.  0.
        -12    1    1    2    0    0  0.88577888685E+01 -0.42391291407E+02 -0.28532571500E+01  0.43400726804E+02  0.00000000000E+00 0.  1.
         11    1    3    3    0    0 -0.79378026831E+01  0.14193679763E+02 -0.60062283361E+01  0.17336205921E+02  0.51100000000E-03 0. -1.
        -11    1    3    3    0    0  0.26219434146E+01  0.20412640779E+02  0.61696437904E+01  0.21485227381E+02  0.51100000000E-03 0.  1.
         12    1    3    3    0    0 -0.35419296001E+01  0.77849708645E+01  0.26898416957E+01  0.89658398937E+01  0.00000000000E+00 0. -1.
</event>
<event>
 7    1  0.2740409E-010  0.4778727E+02  0.7816164E-02  0.1312668E+00
        -11   -1    0    0    0    0  0.00000000000E+00  0.00000000000E+00  0.45593999997E+02  0.45594000000E+02  0.51100000000E-03 0. -1.
         11   -1    0    0    0    0 -0.00000000000E+00 -0.00000000000E+00 -0.45593999997E+02  0.45594000000E+02  0.51100000000E-03 0.  1.
    9900012    2    1    2    0    0  0.16167428589E+02 -0.32739155473E+02  0.23460290493E+02  0.47787270993E+02  0.19999999767E+02 0.  0.
        -12    1    1    2    0    0 -0.16167428589E+02  0.32739155473E+02 -0.23460290493E+02  0.43400729007E+02  0.00000000000E+00 0.  1.
         11    1    3    3    0    0  0.34462486518E+01 -0.16056168479E+02  0.54291060137E+01  0.17296021750E+02  0.51100000000E-03 0. -1.
        -11    1    3    3    0    0  0.93851035906E+01 -0.50383797174E+01  0.14270851932E+02  0.17807937969E+02  0.51100000000E-03 0.  1.
        -12    1    3    3    0    0  0.33360763463E+01 -0.11644607277E+02  0.37603325474E+01  0.12683311274E+02  0.00000000000E+00 0.  1.
</event>
<event>
 7    1  0.2740409E-010  0.4778727E+02  0.7816164E-02  0.1312668E+00
        -11   -1    0    0    0    0  0.00000000000E+00  0.00000000000E+00  0.45593999997E+02  0.45594000000E+02  0.51100000000E-03 0. -1.
         11   -1    0    0    0    0 -0.00000000000E+00 -0.00000000000E+00 -0.45593999997E+02  0.45594000000E+02  0.51100000000E-03 0.  1.
    9900012    2    1    2    0    0 -0.49303792078E+01 -0.20231400336E+02  0.38078930960E+02  0.47787272105E+02  0.20000004837E+02 0.  0.
        -12    1    1    2    0    0  0.49303792078E+01  0.20231400336E+02 -0.38078930960E+02  0.43400727895E+02  0.00000000000E+00 0.  1.
         11    1    3    3    0    0  0.24475237705E+01 -0.80030991984E-02  0.12836117265E+02  0.13067377065E+02  0.51100000000E-03 0. -1.
        -11    1    3    3    0    0 -0.30559247326E+01 -0.13822431747E+02  0.91116705303E+01  0.16835107231E+02  0.51100000000E-03 0.  1.
        -12    1    3    3    0    0 -0.43219782457E+01 -0.64009654902E+01  0.16131143165E+02  0.17884787809E+02  0.00000000000E+00 0.  1.
</event>
<event>
 7    1  0.2740409E-010  0.4778727E+02  0.7816164E-02  0.1312668E+00
        -11   -1    0    0    0    0  0.00000000000E+00  0.00000000000E+00  0.45593999997E+02  0.45594000000E+02  0.51100000000E-03 0. -1.
         11   -1    0    0    0    0 -0.00000000000E+00 -0.00000000000E+00 -0.45593999997E+02  0.45594000000E+02  0.51100000000E-03 0.  1.
    9900012    2    1    2    0    0 -0.28722183873E+02  0.31300994415E+02  0.88829723427E+01  0.47787270796E+02  0.19999998868E+02 0.  0.
        -12    1    1    2    0    0  0.28722183873E+02 -0.31300994415E+02 -0.88829723427E+01  0.43400729204E+02  0.00000000000E+00 0.  1.
         11    1    3    3    0    0 -0.12902510178E+02  0.17526950450E+02  0.86475318790E+01  0.23418978817E+02  0.51100000000E-03 0.  1.
        -11    1    3    3    0    0 -0.14359241224E+02  0.48044599241E+01  0.14000370974E+01  0.15206273305E+02  0.51100000000E-03 0. -1.
        -12    1    3    3    0    0 -0.14604324708E+01  0.89695840413E+01 -0.11645966337E+01  0.91620186746E+01  0.00000000000E+00 0.  1.
</event>
<event>
 7    1  0.2740409E-010  0.4778727E+02  0.7816164E-02  0.1312668E+00
        -11   -1    0    0    0    0  0.00000000000E+00  0.00000000000E+00  0.45593999997E+02  0.45594000000E+02  0.51100000000E-03 0.  1.
         11   -1    0    0    0    0 -0.00000000000E+00 -0.00000000000E+00 -0.45593999997E+02  0.45594000000E+02  0.51100000000E-03 0. -1.
    9900012    2    1    2    0    0 -0.30098237418E+02  0.31263524420E+02 -0.55784855528E+00  0.47787273626E+02  0.20000011768E+02 0.  0.
        -12    1    1    2    0    0  0.30098237418E+02 -0.31263524420E+02  0.55784855528E+00  0.43400726374E+02  0.00000000000E+00 0.  1.
         11    1    3    3    0    0 -0.16361167135E+02  0.15199411516E+02 -0.84078199294E+01  0.23862131855E+02  0.51100000000E-03 0. -1.
        -11    1    3    3    0    0 -0.20057101291E+01  0.22602963564E+01  0.46252146566E+01  0.55248912769E+01  0.51100000000E-03 0.  1.
        -12    1    3    3    0    0 -0.11731360154E+02  0.13803816547E+02  0.32247567175E+01  0.18400250493E+02  0.00000000000E+00 0.  1.
</event>
<event>
 7    1  0.2740409E-010  0.4778729E+02  0.7816164E-02  0.1312668E+00
        -11   -1    0    0    0    0  0.00000000000E+00  0.00000000000E+00  0.45593999997E+02  0.45594000000E+02  0.51100000000E-03 0. -1.
         11   -1    0    0    0    0 -0.00000000000E+00 -0.00000000000E+00 -0.45593999997E+02  0.45594000000E+02  0.51100000000E-03 0.  1.
    9900012    2    1    2    0    0  0.15338855868E+02 -0.33365513647E+02  0.23131877359E+02  0.47787288595E+02  0.20000080020E+02 0.  0.
        -12    1    1    2    0    0 -0.15338855868E+02  0.33365513647E+02 -0.23131877359E+02  0.43400711405E+02  0.00000000000E+00 0.  1.
         11    1    3    3    0    0  0.67529825492E+01 -0.16843140456E+02  0.13599605593E+02  0.22676935998E+02  0.51100000000E-03 0. -1.
        -11    1    3    3    0    0  0.30707104354E+01 -0.11194969602E+02 -0.14683365011E+01  0.11700966597E+02  0.51100000000E-03 0.  1.
        -12    1    3    3    0    0  0.55151628838E+01 -0.53274035895E+01  0.11000608267E+02  0.13409386000E+02  0.00000000000E+00 0.  1.
</event>
<event>
 7    1  0.2740409E-010  0.4778727E+02  0.7816164E-02  0.1312668E+00
        -11   -1    0    0    0    0  0.00000000000E+00  0.00000000000E+00  0.45593999997E+02  0.45594000000E+02  0.51100000000E-03 0.  1.
         11   -1    0    0    0    0 -0.00000000000E+00 -0.00000000000E+00 -0.45593999997E+02  0.45594000000E+02  0.51100000000E-03 0. -1.
    9900012    2    1    2    0    0 -0.16026191693E+02 -0.37698433221E+02 -0.14339196303E+02  0.47787271456E+02  0.20000001878E+02 0.  0.
        -12    1    1    2    0    0  0.16026191693E+02  0.37698433221E+02  0.14339196303E+02  0.43400728544E+02  0.00000000000E+00 0.  1.
         11    1    3    3    0    0  0.78954323430E-01 -0.25642495486E+01 -0.30936816587E+00  0.25840507843E+01  0.51100000000E-03 0. -1.
        -11    1    3    3    0    0 -0.10482179374E+01 -0.24499407528E+02 -0.74149700043E+01  0.25618382278E+02  0.51100000000E-03 0.  1.
        -12    1    3    3    0    0 -0.15056928080E+02 -0.10634776144E+02 -0.66148581326E+01  0.19584838394E+02  0.00000000000E+00 0.  1.
</event>
<event>
 7    1  0.2740409E-010  0.4778726E+02  0.7816164E-02  0.1312668E+00
        -11   -1    0    0    0    0  0.00000000000E+00  0.00000000000E+00  0.45593999997E+02  0.45594000000E+02  0.51100000000E-03 0.  1.
         11   -1    0    0    0    0 -0.00000000000E+00 -0.00000000000E+00 -0.45593999997E+02  0.45594000000E+02  0.51100000000E-03 0. -1.
    9900012    2    1    2    0    0  0.41127234489E+02 -0.13838433013E+02 -0.81993888691E+00  0.47787263316E+02  0.19999964763E+02 0.  0.
        -12    1    1    2    0    0 -0.41127234489E+02  0.13838433013E+02  0.81993888691E+00  0.43400736684E+02  0.00000000000E+00 0.  1.
         11    1    3    3    0    0  0.21009006338E+02 -0.13517713669E+02  0.10510250962E+00  0.24982353311E+02  0.51100000000E-03 0. -1.
        -11    1    3    3    0    0  0.80329093473E+01  0.49304305991E+01 -0.18132284057E+01  0.95981548220E+01  0.51100000000E-03 0.  1.
        -12    1    3    3    0    0  0.12085318804E+02 -0.52511499432E+01  0.88818700912E+00  0.13206755183E+02  0.00000000000E+00 0.  1.
</event>
<event>
 7    1  0.2740409E-010  0.4778728E+02  0.7816164E-02  0.1312668E+00
        -11   -1    0    0    0    0  0.00000000000E+00  0.00000000000E+00  0.45593999997E+02  0.45594000000E+02  0.51100000000E-03 0.  1.
         11   -1    0    0    0    0 -0.00000000000E+00 -0.00000000000E+00 -0.45593999997E+02  0.45594000000E+02  0.51100000000E-03 0. -1.
    9900012    2    1    2    0    0 -0.29972217091E+02 -0.94789586873E+01 -0.29923873599E+02  0.47787278044E+02  0.20000031913E+02 0.  0.
        -12    1    1    2    0    0  0.29972217091E+02  0.94789586873E+01  0.29923873599E+02  0.43400721956E+02  0.00000000000E+00 0.  1.
         11    1    3    3    0    0 -0.17559869800E+02 -0.81532587327E+01 -0.14079341804E+02  0.23938515435E+02  0.51100000000E-03 0. -1.
        -11    1    3    3    0    0 -0.26995996043E+01  0.36912457807E+00 -0.13422309318E+02  0.13696075302E+02  0.51100000000E-03 0.  1.
         12    1    3    3    0    0 -0.97127476868E+01 -0.16948245327E+01 -0.24222224769E+01  0.10152687307E+02  0.00000000000E+00 0. -1.
</event>
<event>
 7    1  0.2740409E-010  0.4778727E+02  0.7816164E-02  0.1312668E+00
        -11   -1    0    0    0    0  0.00000000000E+00  0.00000000000E+00  0.45593999997E+02  0.45594000000E+02  0.51100000000E-03 0.  1.
         11   -1    0    0    0    0 -0.00000000000E+00 -0.00000000000E+00 -0.45593999997E+02  0.45594000000E+02  0.51100000000E-03 0. -1.
    9900012    2    1    2    0    0  0.66810242239E+01  0.20925617162E+02 -0.37431347402E+02  0.47787270667E+02  0.19999998280E+02 0.  0.
        -12    1    1    2    0    0 -0.66810242239E+01 -0.20925617162E+02  0.37431347402E+02  0.43400729333E+02  0.00000000000E+00 0.  1.
         11    1    3    3    0    0 -0.28665683905E+01  0.57089987758E+01 -0.18451464495E+01  0.66493944868E+01  0.51100000000E-03 0. -1.
        -11    1    3    3    0    0  0.99472898629E+01  0.11941260320E+02 -0.20669583595E+02  0.25860664336E+02  0.51100000000E-03 0.  1.
         12    1    3    3    0    0 -0.39969724857E+00  0.32753580666E+01 -0.14916617357E+02  0.15277211844E+02  0.00000000000E+00 0. -1.
</event>
<event>
 7    1  0.2740409E-010  0.4778727E+02  0.7816164E-02  0.1312668E+00
        -11   -1    0    0    0    0  0.00000000000E+00  0.00000000000E+00  0.45593999997E+02  0.45594000000E+02  0.51100000000E-03 0.  1.
         11   -1    0    0    0    0 -0.00000000000E+00 -0.00000000000E+00 -0.45593999997E+02  0.45594000000E+02  0.51100000000E-03 0. -1.
    9900012    2    1    2    0    0 -0.30813746402E+02  0.70510447450E+00 -0.30555506921E+02  0.47787272554E+02  0.20000006883E+02 0.  0.
        -12    1    1    2    0    0  0.30813746402E+02 -0.70510447450E+00  0.30555506921E+02  0.43400727446E+02  0.00000000000E+00 0.  1.
         11    1    3    3    0    0 -0.96028002344E+01  0.68389301002E+00 -0.67360259131E+01  0.11749703288E+02  0.51100000000E-03 0. -1.
        -11    1    3    3    0    0 -0.15764427392E+02 -0.64491466784E+01 -0.97612980699E+01  0.19631393332E+02  0.51100000000E-03 0.  1.
        -12    1    3    3    0    0 -0.54465187753E+01  0.64703581429E+01 -0.14058182938E+02  0.16406175934E+02  0.00000000000E+00 0.  1.
</event>
<event>
 7    1  0.2740409E-010  0.4778728E+02  0.7816164E-02  0.1312668E+00
        -11   -1    0    0    0    0  0.00000000000E+00  0.00000000000E+00  0.45593999997E+02  0.45594000000E+02  0.51100000000E-03 0.  1.
         11   -1    0    0    0    0 -0.00000000000E+00 -0.00000000000E+00 -0.45593999997E+02  0.45594000000E+02  0.51100000000E-03 0. -1.
    9900012    2    1    2    0    0 -0.38438441675E+02 -0.16088796810E+02 -0.12135048644E+02  0.47787278960E+02  0.20000036091E+02 0.  0.
        -12    1    1    2    0    0  0.38438441675E+02  0.16088796810E+02  0.12135048644E+02  0.43400721040E+02  0.00000000000E+00 0.  1.
         11    1    3    3    0    0 -0.31751646001E+02 -0.20236299128E+02 -0.12098429665E+02  0.39548031896E+02  0.51100000000E-03 0. -1.
        -11    1    3    3    0    0 -0.10412983183E+01  0.17656142941E+01  0.42887956482E+00  0.20941905275E+01  0.51100000000E-03 0.  1.
         12    1    3    3    0    0 -0.56454973550E+01  0.23818880246E+01 -0.46549854419E+00  0.61450565369E+01  0.00000000000E+00 0. -1.
</event>
<event>
 7    1  0.2740409E-010  0.4778721E+02  0.7816164E-02  0.1312668E+00
        -11   -1    0    0    0    0  0.00000000000E+00  0.00000000000E+00  0.45593999997E+02  0.45594000000E+02  0.51100000000E-03 0.  1.
         11   -1    0    0    0    0 -0.00000000000E+00 -0.00000000000E+00 -0.45593999997E+02  0.45594000000E+02  0.51100000000E-03 0. -1.
    9900012    2    1    2    0    0  0.12589168252E+02  0.20964638853E+02 -0.35855614372E+02  0.47787212893E+02  0.19999734863E+02 0.  0.
        -12    1    1    2    0    0 -0.12589168252E+02 -0.20964638853E+02  0.35855614372E+02  0.43400787107E+02  0.00000000000E+00 0.  1.
         11    1    3    3    0    0  0.69538433004E+01  0.11836970614E+02 -0.18558346978E+02  0.23084238189E+02  0.51100000000E-03 0. -1.
        -11    1    3    3    0    0 -0.33776414135E+01  0.87737931964E+00 -0.97149005895E+01  0.10322671636E+02  0.51100000000E-03 0.  1.
        -12    1    3    3    0    0  0.90129663654E+01  0.82502889196E+01 -0.75823668043E+01  0.14380303068E+02  0.00000000000E+00 0.  1.
</event>
<event>
 7    1  0.2740409E-010  0.4778728E+02  0.7816164E-02  0.1312668E+00
        -11   -1    0    0    0    0  0.00000000000E+00  0.00000000000E+00  0.45593999997E+02  0.45594000000E+02  0.51100000000E-03 0.  1.
         11   -1    0    0    0    0 -0.00000000000E+00 -0.00000000000E+00 -0.45593999997E+02  0.45594000000E+02  0.51100000000E-03 0. -1.
    9900012    2    1    2    0    0  0.20644890708E+02  0.27497920150E+02  0.26481611563E+02  0.47787275630E+02  0.20000020905E+02 0.  0.
        -12    1    1    2    0    0 -0.20644890708E+02 -0.27497920150E+02 -0.26481611563E+02  0.43400724370E+02  0.00000000000E+00 0.  1.
         11    1    3    3    0    0  0.20049880741E+02  0.23651698451E+02  0.13746934462E+02  0.33917234036E+02  0.51100000000E-03 0. -1.
        -11    1    3    3    0    0 -0.81304585866E+00  0.11956445682E+01  0.88172836787E+01  0.89350490337E+01  0.51100000000E-03 0.  1.
         12    1    3    3    0    0  0.14080558260E+01  0.26505771308E+01  0.39173934224E+01  0.49349925594E+01  0.00000000000E+00 0. -1.
</event>
<event>
 7    1  0.2740409E-010  0.4778727E+02  0.7816164E-02  0.1312668E+00
        -11   -1    0    0    0    0  0.00000000000E+00  0.00000000000E+00  0.45593999997E+02  0.45594000000E+02  0.51100000000E-03 0.  1.
         11   -1    0    0    0    0 -0.00000000000E+00 -0.00000000000E+00 -0.45593999997E+02  0.45594000000E+02  0.51100000000E-03 0. -1.
    9900012    2    1    2    0    0  0.28939994177E+02 -0.79161058373E+01 -0.31359771347E+02  0.47787271278E+02  0.20000001066E+02 0.  0.
        -12    1    1    2    0    0 -0.28939994177E+02  0.79161058373E+01  0.31359771347E+02  0.43400728722E+02  0.00000000000E+00 0.  1.
         11    1    3    3    0    0  0.17365058543E+02 -0.95543798622E+01 -0.18058964363E+02  0.26813385219E+02  0.51100000000E-03 0. -1.
        -11    1    3    3    0    0  0.26924816017E+01  0.27265048486E+01 -0.11122001790E+02  0.11763596811E+02  0.51100000000E-03 0.  1.
        -12    1    3    3    0    0  0.88824540322E+01 -0.10882308238E+01 -0.21788051947E+01  0.92102892482E+01  0.00000000000E+00 0.  1.
</event>
<event>
 7    1  0.2740409E-010  0.4778728E+02  0.7816164E-02  0.1312668E+00
        -11   -1    0    0    0    0  0.00000000000E+00  0.00000000000E+00  0.45593999997E+02  0.45594000000E+02  0.51100000000E-03 0.  1.
         11   -1    0    0    0    0 -0.00000000000E+00 -0.00000000000E+00 -0.45593999997E+02  0.45594000000E+02  0.51100000000E-03 0. -1.
    9900012    2    1    2    0    0 -0.33707931623E+02  0.13942203675E+02 -0.23516215320E+02  0.47787284791E+02  0.20000062678E+02 0.  0.
        -12    1    1    2    0    0  0.33707931623E+02 -0.13942203675E+02  0.23516215320E+02  0.43400715209E+02  0.00000000000E+00 0.  1.
         11    1    3    3    0    0 -0.20022007190E+02  0.12733620251E+02 -0.73422577980E+01  0.24838168340E+02  0.51100000000E-03 0. -1.
        -11    1    3    3    0    0 -0.61256525409E+01 -0.43979003501E+00 -0.14416917245E+01  0.63083682213E+01  0.51100000000E-03 0.  1.
         12    1    3    3    0    0 -0.75602718923E+01  0.16483734590E+01 -0.14732265797E+02  0.16640748230E+02  0.00000000000E+00 0. -1.
</event>
<event>
 7    1  0.2740409E-010  0.4778727E+02  0.7816164E-02  0.1312668E+00
        -11   -1    0    0    0    0  0.00000000000E+00  0.00000000000E+00  0.45593999997E+02  0.45594000000E+02  0.51100000000E-03 0. -1.
         11   -1    0    0    0    0 -0.00000000000E+00 -0.00000000000E+00 -0.45593999997E+02  0.45594000000E+02  0.51100000000E-03 0.  1.
    9900012    2    1    2    0    0  0.26476094497E+02  0.36546921633E+01  0.34194779791E+02  0.47787270518E+02  0.19999997598E+02 0.  0.
        -12    1    1    2    0    0 -0.26476094497E+02 -0.36546921633E+01 -0.34194779791E+02  0.43400729482E+02  0.00000000000E+00 0.  1.
         11    1    3    3    0    0  0.19701114123E+02  0.24582037038E+01  0.26159769247E+02  0.32840678897E+02  0.51100000000E-03 0. -1.
        -11    1    3    3    0    0  0.26701270694E+00 -0.40201354375E+01  0.13231055155E+01  0.42406831039E+01  0.51100000000E-03 0.  1.
        -12    1    3    3    0    0  0.65079676676E+01  0.52166238970E+01  0.67119050291E+01  0.10705908517E+02  0.00000000000E+00 0.  1.
</event>
<event>
 7    1  0.2740409E-010  0.4778727E+02  0.7816164E-02  0.1312668E+00
        -11   -1    0    0    0    0  0.00000000000E+00  0.00000000000E+00  0.45593999997E+02  0.45594000000E+02  0.51100000000E-03 0.  1.
         11   -1    0    0    0    0 -0.00000000000E+00 -0.00000000000E+00 -0.45593999997E+02  0.45594000000E+02  0.51100000000E-03 0. -1.
    9900012    2    1    2    0    0 -0.29679342752E+01  0.63511745941E+00 -0.43294472004E+02  0.47787270580E+02  0.19999997882E+02 0.  0.
        -12    1    1    2    0    0  0.29679342752E+01 -0.63511745941E+00  0.43294472004E+02  0.43400729420E+02  0.00000000000E+00 0.  1.
         11    1    3    3    0    0 -0.88197301350E+01  0.61379052157E+01 -0.16194165047E+02  0.19434827036E+02  0.51100000000E-03 0. -1.
        -11    1    3    3    0    0  0.50185891421E+01 -0.33836413294E+01 -0.19350779313E+02  0.20275303350E+02  0.51100000000E-03 0.  1.
         12    1    3    3    0    0  0.83320671768E+00 -0.21191464268E+01 -0.77495276437E+01  0.80771401940E+01  0.00000000000E+00 0. -1.
</event>
<event>
 7    1  0.2740409E-010  0.4778727E+02  0.7816164E-02  0.1312668E+00
        -11   -1    0    0    0    0  0.00000000000E+00  0.00000000000E+00  0.45593999997E+02  0.45594000000E+02  0.51100000000E-03 0.  1.
         11   -1    0    0    0    0 -0.00000000000E+00 -0.00000000000E+00 -0.45593999997E+02  0.45594000000E+02  0.51100000000E-03 0. -1.
    9900012    2    1    2    0    0  0.15317123862E+02  0.71486489701E+01 -0.39973813538E+02  0.47787271501E+02  0.20000002081E+02 0.  0.
        -12    1    1    2    0    0 -0.15317123862E+02 -0.71486489701E+01  0.39973813538E+02  0.43400728499E+02  0.00000000000E+00 0.  1.
         11    1    3    3    0    0  0.48448864303E+01  0.12678648172E+01 -0.13083500235E+02  0.14009224974E+02  0.51100000000E-03 0. -1.
        -11    1    3    3    0    0  0.62410084699E+01 -0.46371142770E+01 -0.17154601112E+02  0.18834366331E+02  0.51100000000E-03 0.  1.
        -12    1    3    3    0    0  0.42312289621E+01  0.10517898430E+02 -0.97357121912E+01  0.14943680195E+02  0.00000000000E+00 0.  1.
</event>
<event>
 7    1  0.2740409E-010  0.4778726E+02  0.7816164E-02  0.1312668E+00
        -11   -1    0    0    0    0  0.00000000000E+00  0.00000000000E+00  0.45593999997E+02  0.45594000000E+02  0.51100000000E-03 0.  1.
         11   -1    0    0    0    0 -0.00000000000E+00 -0.00000000000E+00 -0.45593999997E+02  0.45594000000E+02  0.51100000000E-03 0. -1.
    9900012    2    1    2    0    0 -0.14108152857E+02 -0.35204484492E+02  0.21100432028E+02  0.47787263403E+02  0.19999965158E+02 0.  0.
        -12    1    1    2    0    0  0.14108152857E+02  0.35204484492E+02 -0.21100432028E+02  0.43400736597E+02  0.00000000000E+00 0.  1.
         11    1    3    3    0    0 -0.30148310603E+01 -0.12232221508E+02  0.16628245238E+02  0.20861806952E+02  0.51100000000E-03 0. -1.
        -11    1    3    3    0    0 -0.11117353019E+02 -0.23511137016E+02  0.43070196302E+01  0.26361326224E+02  0.51100000000E-03 0.  1.
        -12    1    3    3    0    0  0.24031221745E-01  0.53887403186E+00  0.16516715984E+00  0.56413022656E+00  0.00000000000E+00 0.  1.
</event>
<event>
 7    1  0.2740409E-010  0.4778727E+02  0.7816164E-02  0.1312668E+00
        -11   -1    0    0    0    0  0.00000000000E+00  0.00000000000E+00  0.45593999997E+02  0.45594000000E+02  0.51100000000E-03 0.  1.
         11   -1    0    0    0    0 -0.00000000000E+00 -0.00000000000E+00 -0.45593999997E+02  0.45594000000E+02  0.51100000000E-03 0. -1.
    9900012    2    1    2    0    0 -0.33175521245E+01 -0.31712560868E+02 -0.29443686256E+02  0.47787270406E+02  0.19999997090E+02 0.  0.
        -12    1    1    2    0    0  0.33175521245E+01  0.31712560868E+02  0.29443686256E+02  0.43400729594E+02  0.00000000000E+00 0.  1.
         11    1    3    3    0    0 -0.44981780528E+01 -0.24550284914E+02 -0.22165857209E+02  0.33380762741E+02  0.51100000000E-03 0. -1.
        -11    1    3    3    0    0  0.33239427939E+01  0.12692864029E+01 -0.32526621599E+01  0.48207359456E+01  0.51100000000E-03 0.  1.
        -12    1    3    3    0    0 -0.21433168656E+01 -0.84315623578E+01 -0.40251668871E+01  0.95857717190E+01  0.00000000000E+00 0.  1.
</event>
<event>
 7    1  0.2740409E-010  0.4778727E+02  0.7816164E-02  0.1312668E+00
        -11   -1    0    0    0    0  0.00000000000E+00  0.00000000000E+00  0.45593999997E+02  0.45594000000E+02  0.51100000000E-03 0. -1.
         11   -1    0    0    0    0 -0.00000000000E+00 -0.00000000000E+00 -0.45593999997E+02  0.45594000000E+02  0.51100000000E-03 0.  1.
    9900012    2    1    2    0    0 -0.20294074715E+02  0.34820526305E+02  0.16102937544E+02  0.47787272837E+02  0.20000008174E+02 0.  0.
        -12    1    1    2    0    0  0.20294074715E+02 -0.34820526305E+02 -0.16102937544E+02  0.43400727163E+02  0.00000000000E+00 0.  1.
         11    1    3    3    0    0 -0.14290571651E+02  0.11409489144E+02  0.12524347077E+02  0.22164299010E+02  0.51100000000E-03 0. -1.
        -11    1    3    3    0    0 -0.32714852076E+01  0.10343225827E+02 -0.22110308432E+01  0.11071295933E+02  0.51100000000E-03 0.  1.
         12    1    3    3    0    0 -0.27320178567E+01  0.13067811334E+02  0.57896213109E+01  0.14551677895E+02  0.00000000000E+00 0. -1.
</event>
<event>
 7    1  0.2740409E-010  0.4778727E+02  0.7816164E-02  0.1312668E+00
        -11   -1    0    0    0    0  0.00000000000E+00  0.00000000000E+00  0.45593999997E+02  0.45594000000E+02  0.51100000000E-03 0.  1.
         11   -1    0    0    0    0 -0.00000000000E+00 -0.00000000000E+00 -0.45593999997E+02  0.45594000000E+02  0.51100000000E-03 0. -1.
    9900012    2    1    2    0    0  0.11507951057E+02  0.20173485685E+02 -0.36663622271E+02  0.47787266593E+02  0.19999979704E+02 0.  0.
        -12    1    1    2    0    0 -0.11507951057E+02 -0.20173485685E+02  0.36663622271E+02  0.43400733407E+02  0.00000000000E+00 0.  1.
         11    1    3    3    0    0 -0.19258145529E+01  0.89044580642E+01 -0.24805567282E+02  0.26425637240E+02  0.51100000000E-03 0. -1.
        -11    1    3    3    0    0  0.11204585777E+02  0.92201441062E+01 -0.11018060273E+02  0.18219534907E+02  0.51100000000E-03 0.  1.
        -12    1    3    3    0    0  0.22291798336E+01  0.20488835143E+01 -0.83999471590E+00  0.31420944461E+01  0.00000000000E+00 0.  1.
</event>
<event>
 7    1  0.2740409E-010  0.4778725E+02  0.7816164E-02  0.1312668E+00
        -11   -1    0    0    0    0  0.00000000000E+00  0.00000000000E+00  0.45593999997E+02  0.45594000000E+02  0.51100000000E-03 0.  1.
         11   -1    0    0    0    0 -0.00000000000E+00 -0.00000000000E+00 -0.45593999997E+02  0.45594000000E+02  0.51100000000E-03 0. -1.
    9900012    2    1    2    0    0  0.23728596653E+02  0.28403975808E+02 -0.22667010682E+02  0.47787245236E+02  0.19999882328E+02 0.  0.
        -12    1    1    2    0    0 -0.23728596653E+02 -0.28403975808E+02  0.22667010682E+02  0.43400754764E+02  0.00000000000E+00 0.  1.
         11    1    3    3    0    0  0.66896110428E+01  0.20785883872E+01  0.11539651295E+01  0.70995113471E+01  0.51100000000E-03 0. -1.
        -11    1    3    3    0    0  0.42099843375E+01  0.85069183332E+00 -0.45980341534E+01  0.62920237646E+01  0.51100000000E-03 0.  1.
         12    1    3    3    0    0  0.12829001272E+02  0.25474695588E+02 -0.19222941658E+02  0.34395710124E+02  0.00000000000E+00 0. -1.
</event>
<event>
 7    1  0.2740409E-010  0.4778727E+02  0.7816164E-02  0.1312668E+00
        -11   -1    0    0    0    0  0.00000000000E+00  0.00000000000E+00  0.45593999997E+02  0.45594000000E+02  0.51100000000E-03 0.  1.
         11   -1    0    0    0    0 -0.00000000000E+00 -0.00000000000E+00 -0.45593999997E+02  0.45594000000E+02  0.51100000000E-03 0. -1.
    9900012    2    1    2    0    0 -0.62357453114E+01 -0.53555842279E+01 -0.42615215093E+02  0.47787270059E+02  0.19999995506E+02 0.  0.
        -12    1    1    2    0    0  0.62357453114E+01  0.53555842279E+01  0.42615215093E+02  0.43400729941E+02  0.00000000000E+00 0.  1.
         11    1    3    3    0    0 -0.16191398649E+01 -0.58492821931E+01 -0.32983652106E+02  0.33537397374E+02  0.51100000000E-03 0. -1.
        -11    1    3    3    0    0 -0.48643453885E+01  0.34311675020E+01 -0.23599566677E+01  0.64034492440E+01  0.51100000000E-03 0.  1.
        -12    1    3    3    0    0  0.24773994212E+00 -0.29374695368E+01 -0.72716063187E+01  0.78464234409E+01  0.00000000000E+00 0.  1.
</event>
<event>
 7    1  0.2740409E-010  0.4778727E+02  0.7816164E-02  0.1312668E+00
        -11   -1    0    0    0    0  0.00000000000E+00  0.00000000000E+00  0.45593999997E+02  0.45594000000E+02  0.51100000000E-03 0. -1.
         11   -1    0    0    0    0 -0.00000000000E+00 -0.00000000000E+00 -0.45593999997E+02  0.45594000000E+02  0.51100000000E-03 0.  1.
    9900012    2    1    2    0    0 -0.18550593502E+01  0.15787138769E+02  0.40384999535E+02  0.47787272089E+02  0.20000004763E+02 0.  0.
        -12    1    1    2    0    0  0.18550593502E+01 -0.15787138769E+02 -0.40384999535E+02  0.43400727911E+02  0.00000000000E+00 0.  1.
         11    1    3    3    0    0  0.42244612181E+01  0.51817745451E+01  0.21375924486E+02  0.22397031230E+02  0.51100000000E-03 0. -1.
        -11    1    3    3    0    0 -0.32677524954E+01  0.12827657595E+02  0.14579153879E+02  0.19692098258E+02  0.51100000000E-03 0.  1.
         12    1    3    3    0    0 -0.28117680729E+01 -0.22222933705E+01  0.44299211710E+01  0.56981426010E+01  0.00000000000E+00 0. -1.
</event>
<event>
 7    1  0.2740409E-010  0.4778727E+02  0.7816164E-02  0.1312668E+00
        -11   -1    0    0    0    0  0.00000000000E+00  0.00000000000E+00  0.45593999997E+02  0.45594000000E+02  0.51100000000E-03 0.  1.
         11   -1    0    0    0    0 -0.00000000000E+00 -0.00000000000E+00 -0.45593999997E+02  0.45594000000E+02  0.51100000000E-03 0. -1.
    9900012    2    1    2    0    0  0.15825709383E+02 -0.28907500920E+02 -0.28240512087E+02  0.47787271782E+02  0.20000003362E+02 0.  0.
        -12    1    1    2    0    0 -0.15825709383E+02  0.28907500920E+02  0.28240512087E+02  0.43400728218E+02  0.00000000000E+00 0.  1.
         11    1    3    3    0    0  0.46946590550E+01 -0.13452693810E+02 -0.10404992556E+02  0.17643091133E+02  0.51100000000E-03 0. -1.
        -11    1    3    3    0    0  0.63610550108E+01  0.15012925867E+01 -0.33822219052E+01  0.73590981485E+01  0.51100000000E-03 0.  1.
        -12    1    3    3    0    0  0.47699953168E+01 -0.16956099697E+02 -0.14453297626E+02  0.22785082500E+02  0.00000000000E+00 0.  1.
</event>
<event>
 7    1  0.2740409E-010  0.4778727E+02  0.7816164E-02  0.1312668E+00
        -11   -1    0    0    0    0  0.00000000000E+00  0.00000000000E+00  0.45593999997E+02  0.45594000000E+02  0.51100000000E-03 0.  1.
         11   -1    0    0    0    0 -0.00000000000E+00 -0.00000000000E+00 -0.45593999997E+02  0.45594000000E+02  0.51100000000E-03 0. -1.
    9900012    2    1    2    0    0 -0.73748268743E+00  0.59435939821E+01 -0.42985496091E+02  0.47787273459E+02  0.20000011008E+02 0.  0.
        -12    1    1    2    0    0  0.73748268743E+00 -0.59435939821E+01  0.42985496091E+02  0.43400726541E+02  0.00000000000E+00 0.  1.
         11    1    3    3    0    0  0.85546117004E+01  0.33259120905E+01 -0.13509038189E+02  0.16332090670E+02  0.51100000000E-03 0.  1.
        -11    1    3    3    0    0 -0.58508903476E+01  0.75973172344E+00 -0.10177682861E+02  0.11764154828E+02  0.51100000000E-03 0. -1.
        -12    1    3    3    0    0 -0.34412040402E+01  0.18579501682E+01 -0.19298775041E+02  0.19691027961E+02  0.00000000000E+00 0.  1.
</event>
<event>
 7    1  0.2740409E-010  0.4778727E+02  0.7816164E-02  0.1312668E+00
        -11   -1    0    0    0    0  0.00000000000E+00  0.00000000000E+00  0.45593999997E+02  0.45594000000E+02  0.51100000000E-03 0.  1.
         11   -1    0    0    0    0 -0.00000000000E+00 -0.00000000000E+00 -0.45593999997E+02  0.45594000000E+02  0.51100000000E-03 0. -1.
    9900012    2    1    2    0    0 -0.29013298314E+02 -0.20098131050E+02 -0.25257019550E+02  0.47787269737E+02  0.19999994040E+02 0.  0.
        -12    1    1    2    0    0  0.29013298314E+02  0.20098131050E+02  0.25257019550E+02  0.43400730263E+02  0.00000000000E+00 0.  1.
         11    1    3    3    0    0 -0.24320593459E+02 -0.12903753659E+02 -0.24985134031E+02  0.37178690772E+02  0.51100000000E-03 0. -1.
        -11    1    3    3    0    0 -0.14405159088E+01 -0.71590665643E+01  0.28860418287E+00  0.73082564810E+01  0.51100000000E-03 0.  1.
        -12    1    3    3    0    0 -0.32521889458E+01 -0.35310827057E-01 -0.56048970184E+00  0.33003224842E+01  0.00000000000E+00 0.  1.
</event>
<event>
 7    1  0.2740409E-010  0.4778728E+02  0.7816164E-02  0.1312668E+00
        -11   -1    0    0    0    0  0.00000000000E+00  0.00000000000E+00  0.45593999997E+02  0.45594000000E+02  0.51100000000E-03 0. -1.
         11   -1    0    0    0    0 -0.00000000000E+00 -0.00000000000E+00 -0.45593999997E+02  0.45594000000E+02  0.51100000000E-03 0.  1.
    9900012    2    1    2    0    0 -0.33348091068E+02  0.20050258858E+01  0.27703924740E+02  0.47787277049E+02  0.20000027376E+02 0.  0.
        -12    1    1    2    0    0  0.33348091068E+02 -0.20050258858E+01 -0.27703924740E+02  0.43400722951E+02  0.00000000000E+00 0.  1.
         11    1    3    3    0    0 -0.20495734290E+02  0.33216729389E+00  0.14685242820E+02  0.25215904031E+02  0.51100000000E-03 0. -1.
        -11    1    3    3    0    0  0.17330504678E+01  0.32695439167E+01  0.34138861837E+01  0.50346797797E+01  0.51100000000E-03 0.  1.
        -12    1    3    3    0    0 -0.14585407246E+02 -0.15966853249E+01  0.96047957364E+01  0.17536693238E+02  0.00000000000E+00 0.  1.
</event>
<event>
 7    1  0.2740409E-010  0.4778727E+02  0.7816164E-02  0.1312668E+00
        -11   -1    0    0    0    0  0.00000000000E+00  0.00000000000E+00  0.45593999997E+02  0.45594000000E+02  0.51100000000E-03 0.  1.
         11   -1    0    0    0    0 -0.00000000000E+00 -0.00000000000E+00 -0.45593999997E+02  0.45594000000E+02  0.51100000000E-03 0. -1.
    9900012    2    1    2    0    0 -0.31947370006E+00 -0.24707781329E+02 -0.35679780697E+02  0.47787271064E+02  0.20000000089E+02 0.  0.
        -12    1    1    2    0    0  0.31947370006E+00  0.24707781329E+02  0.35679780697E+02  0.43400728936E+02  0.00000000000E+00 0.  1.
         11    1    3    3    0    0 -0.16169622130E+01 -0.22482244096E+02 -0.25017126885E+02  0.33673765816E+02  0.51100000000E-03 0. -1.
        -11    1    3    3    0    0  0.45531620882E+01 -0.28140498101E+01 -0.88454200190E+01  0.10338840211E+02  0.51100000000E-03 0.  1.
         12    1    3    3    0    0 -0.32556735752E+01  0.58851257749E+00 -0.18172337923E+01  0.37746650365E+01  0.00000000000E+00 0. -1.
</event>
<event>
 7    1  0.2740409E-010  0.4778727E+02  0.7816164E-02  0.1312668E+00
        -11   -1    0    0    0    0  0.00000000000E+00  0.00000000000E+00  0.45593999997E+02  0.45594000000E+02  0.51100000000E-03 0.  1.
         11   -1    0    0    0    0 -0.00000000000E+00 -0.00000000000E+00 -0.45593999997E+02  0.45594000000E+02  0.51100000000E-03 0. -1.
    9900012    2    1    2    0    0  0.11842135179E+02  0.39106847149E+02 -0.14630159310E+02  0.47787271654E+02  0.20000002779E+02 0.  0.
        -12    1    1    2    0    0 -0.11842135179E+02 -0.39106847149E+02  0.14630159310E+02  0.43400728346E+02  0.00000000000E+00 0.  1.
         11    1    3    3    0    0 -0.20458060443E+00  0.78512576197E+01 -0.44273182722E+01  0.90158331162E+01  0.51100000000E-03 0. -1.
        -11    1    3    3    0    0  0.78303738474E+01  0.11425357207E+02 -0.12123141848E+02  0.18407175514E+02  0.51100000000E-03 0.  1.
        -12    1    3    3    0    0  0.42163419364E+01  0.19830232323E+02  0.19203008099E+01  0.20364263024E+02  0.00000000000E+00 0.  1.
</event>
<event>
 7    1  0.2740409E-010  0.4778727E+02  0.7816164E-02  0.1312668E+00
        -11   -1    0    0    0    0  0.00000000000E+00  0.00000000000E+00  0.45593999997E+02  0.45594000000E+02  0.51100000000E-03 0.  1.
         11   -1    0    0    0    0 -0.00000000000E+00 -0.00000000000E+00 -0.45593999997E+02  0.45594000000E+02  0.51100000000E-03 0. -1.
    9900012    2    1    2    0    0 -0.23444020187E+02  0.31442831776E+02 -0.18583581503E+02  0.47787271272E+02  0.20000001039E+02 0.  0.
        -12    1    1    2    0    0  0.23444020187E+02 -0.31442831776E+02  0.18583581503E+02  0.43400728728E+02  0.00000000000E+00 0.  1.
         11    1    3    3    0    0 -0.40527876031E+01  0.33777695275E+01  0.30662990403E+01  0.61021802990E+01  0.51100000000E-03 0. -1.
        -11    1    3    3    0    0 -0.29197963440E+01  0.41608333282E+01  0.58767857786E+00  0.51169435259E+01  0.51100000000E-03 0.  1.
         12    1    3    3    0    0 -0.16471436240E+02  0.23904228920E+02 -0.22237559121E+02  0.36568147447E+02  0.00000000000E+00 0. -1.
</event>
<event>
 7    1  0.2740409E-010  0.4778727E+02  0.7816164E-02  0.1312668E+00
        -11   -1    0    0    0    0  0.00000000000E+00  0.00000000000E+00  0.45593999997E+02  0.45594000000E+02  0.51100000000E-03 0. -1.
         11   -1    0    0    0    0 -0.00000000000E+00 -0.00000000000E+00 -0.45593999997E+02  0.45594000000E+02  0.51100000000E-03 0.  1.
    9900012    2    1    2    0    0 -0.15298501391E+02 -0.40027887514E+02 -0.68809389429E+01  0.47787271384E+02  0.20000001549E+02 0.  0.
        -12    1    1    2    0    0  0.15298501391E+02  0.40027887514E+02  0.68809389429E+01  0.43400728616E+02  0.00000000000E+00 0.  1.
         11    1    3    3    0    0 -0.69643902762E+01 -0.13817637694E+02 -0.98706417860E+01  0.18353730218E+02  0.51100000000E-03 0. -1.
        -11    1    3    3    0    0 -0.41384168355E+00 -0.76825725239E+01  0.50127824372E+01  0.91826561271E+01  0.51100000000E-03 0.  1.
        -12    1    3    3    0    0 -0.79202694313E+01 -0.18527677296E+02 -0.20230795941E+01  0.20250885039E+02  0.00000000000E+00 0.  1.
</event>
<event>
 7    1  0.2740409E-010  0.4778728E+02  0.7816164E-02  0.1312668E+00
        -11   -1    0    0    0    0  0.00000000000E+00  0.00000000000E+00  0.45593999997E+02  0.45594000000E+02  0.51100000000E-03 0.  1.
         11   -1    0    0    0    0 -0.00000000000E+00 -0.00000000000E+00 -0.45593999997E+02  0.45594000000E+02  0.51100000000E-03 0. -1.
    9900012    2    1    2    0    0 -0.14637970001E+02  0.98516898118E+01 -0.39652195062E+02  0.47787279601E+02  0.20000039013E+02 0.  0.
        -12    1    1    2    0    0  0.14637970001E+02 -0.98516898118E+01  0.39652195062E+02  0.43400720399E+02  0.00000000000E+00 0.  1.
         11    1    3    3    0    0  0.17814516206E+01  0.12297093328E+01 -0.15619481292E+02  0.15768765044E+02  0.51100000000E-03 0. -1.
        -11    1    3    3    0    0 -0.13211563432E+02  0.10968921860E+02 -0.19112026876E+02  0.25693038487E+02  0.51100000000E-03 0.  1.
        -12    1    3    3    0    0 -0.32078581895E+01 -0.23469413811E+01 -0.49206868934E+01  0.63254760701E+01  0.00000000000E+00 0.  1.
</event>
<event>
 7    1  0.2740409E-010  0.4778727E+02  0.7816164E-02  0.1312668E+00
        -11   -1    0    0    0    0  0.00000000000E+00  0.00000000000E+00  0.45593999997E+02  0.45594000000E+02  0.51100000000E-03 0.  1.
         11   -1    0    0    0    0 -0.00000000000E+00 -0.00000000000E+00 -0.45593999997E+02  0.45594000000E+02  0.51100000000E-03 0. -1.
    9900012    2    1    2    0    0  0.13877478848E+02 -0.21219356233E+02 -0.35224678852E+02  0.47787268458E+02  0.19999988209E+02 0.  0.
        -12    1    1    2    0    0 -0.13877478848E+02  0.21219356233E+02  0.35224678852E+02  0.43400731542E+02  0.00000000000E+00 0.  1.
         11    1    3    3    0    0  0.11722647076E+02 -0.13433268956E+02 -0.96013618793E+01  0.20249921469E+02  0.51100000000E-03 0. -1.
        -11    1    3    3    0    0 -0.23711221498E+00 -0.34689705491E+01 -0.18784440839E+02  0.19103538855E+02  0.51100000000E-03 0.  1.
        -12    1    3    3    0    0  0.23919439875E+01 -0.43171167280E+01 -0.68388761334E+01  0.84338081346E+01  0.00000000000E+00 0.  1.
</event>
<event>
 7    1  0.2740409E-010  0.4778727E+02  0.7816164E-02  0.1312668E+00
        -11   -1    0    0    0    0  0.00000000000E+00  0.00000000000E+00  0.45593999997E+02  0.45594000000E+02  0.51100000000E-03 0.  1.
         11   -1    0    0    0    0 -0.00000000000E+00 -0.00000000000E+00 -0.45593999997E+02  0.45594000000E+02  0.51100000000E-03 0. -1.
    9900012    2    1    2    0    0 -0.32969527640E+02  0.28009401489E+02  0.34794994963E+01  0.47787271419E+02  0.20000001707E+02 0.  0.
        -12    1    1    2    0    0  0.32969527640E+02 -0.28009401489E+02 -0.34794994963E+01  0.43400728581E+02  0.00000000000E+00 0.  1.
         11    1    3    3    0    0 -0.70409576209E+01  0.52499944181E+01 -0.73297804130E+01  0.11439545742E+02  0.51100000000E-03 0. -1.
        -11    1    3    3    0    0 -0.13346884378E+02  0.13965507752E+02  0.52084288326E+01  0.20007560085E+02  0.51100000000E-03 0.  1.
         12    1    3    3    0    0 -0.12581685641E+02  0.87938993195E+01  0.56008510766E+01  0.16340165593E+02  0.00000000000E+00 0. -1.
</event>
<event>
 7    1  0.2740409E-010  0.4778727E+02  0.7816164E-02  0.1312668E+00
        -11   -1    0    0    0    0  0.00000000000E+00  0.00000000000E+00  0.45593999997E+02  0.45594000000E+02  0.51100000000E-03 0. -1.
         11   -1    0    0    0    0 -0.00000000000E+00 -0.00000000000E+00 -0.45593999997E+02  0.45594000000E+02  0.51100000000E-03 0.  1.
    9900012    2    1    2    0    0  0.24621653396E+02 -0.18115398006E+02  0.30809568512E+02  0.47787274514E+02  0.20000015817E+02 0.  0.
        -12    1    1    2    0    0 -0.24621653396E+02  0.18115398006E+02 -0.30809568512E+02  0.43400725486E+02  0.00000000000E+00 0.  1.
         11    1    3    3    0    0  0.11663088626E+02 -0.17198015388E+02  0.22239118025E+02  0.30436454136E+02  0.51100000000E-03 0. -1.
        -11    1    3    3    0    0  0.15028586888E+01 -0.40576980943E+00 -0.14462931445E+01  0.21248523473E+01  0.51100000000E-03 0.  1.
         12    1    3    3    0    0  0.11455706080E+02 -0.51161280838E+00  0.10016743632E+02  0.15225968030E+02  0.00000000000E+00 0. -1.
</event>
<event>
 7    1  0.2740409E-010  0.4778728E+02  0.7816164E-02  0.1312668E+00
        -11   -1    0    0    0    0  0.00000000000E+00  0.00000000000E+00  0.45593999997E+02  0.45594000000E+02  0.51100000000E-03 0.  1.
         11   -1    0    0    0    0 -0.00000000000E+00 -0.00000000000E+00 -0.45593999997E+02  0.45594000000E+02  0.51100000000E-03 0. -1.
    9900012    2    1    2    0    0 -0.11753646274E+02 -0.25135690819E+02 -0.33371717884E+02  0.47787277561E+02  0.20000029713E+02 0.  0.
        -12    1    1    2    0    0  0.11753646274E+02  0.25135690819E+02  0.33371717884E+02  0.43400722439E+02  0.00000000000E+00 0.  1.
         11    1    3    3    0    0 -0.45993891063E+01 -0.18323620123E+02 -0.11517669988E+02  0.22126141931E+02  0.51100000000E-03 0. -1.
        -11    1    3    3    0    0 -0.84934090916E+01 -0.59767605284E+01 -0.21722300446E+02  0.24077333767E+02  0.51100000000E-03 0.  1.
         12    1    3    3    0    0  0.13391519235E+01 -0.83531016778E+00 -0.13174744991E+00  0.15838018630E+01  0.00000000000E+00 0. -1.
</event>
<event>
 7    1  0.2740409E-010  0.4778727E+02  0.7816164E-02  0.1312668E+00
        -11   -1    0    0    0    0  0.00000000000E+00  0.00000000000E+00  0.45593999997E+02  0.45594000000E+02  0.51100000000E-03 0.  1.
         11   -1    0    0    0    0 -0.00000000000E+00 -0.00000000000E+00 -0.45593999997E+02  0.45594000000E+02  0.51100000000E-03 0. -1.
    9900012    2    1    2    0    0 -0.25751821346E+02  0.23534546392E+02 -0.25818447203E+02  0.47787269678E+02  0.19999993772E+02 0.  0.
        -12    1    1    2    0    0  0.25751821346E+02 -0.23534546392E+02  0.25818447203E+02  0.43400730322E+02  0.00000000000E+00 0.  1.
         11    1    3    3    0    0 -0.47696324497E+01  0.28224471488E+01 -0.21646034461E+01  0.59498831881E+01  0.51100000000E-03 0. -1.
        -11    1    3    3    0    0 -0.19478571789E+02  0.18592939972E+02 -0.26640152206E+02  0.37878884429E+02  0.51100000000E-03 0.  1.
        -12    1    3    3    0    0 -0.15036171069E+01  0.21191592711E+01  0.29863084491E+01  0.39585020618E+01  0.00000000000E+00 0.  1.
</event>
<event>
 7    1  0.2740409E-010  0.4778727E+02  0.7816164E-02  0.1312668E+00
        -11   -1    0    0    0    0  0.00000000000E+00  0.00000000000E+00  0.45593999997E+02  0.45594000000E+02  0.51100000000E-03 0.  1.
         11   -1    0    0    0    0 -0.00000000000E+00 -0.00000000000E+00 -0.45593999997E+02  0.45594000000E+02  0.51100000000E-03 0. -1.
    9900012    2    1    2    0    0  0.13163881992E+02  0.14239965383E+02 -0.38827293114E+02  0.47787273120E+02  0.20000009461E+02 0.  0.
        -12    1    1    2    0    0 -0.13163881992E+02 -0.14239965383E+02  0.38827293114E+02  0.43400726880E+02  0.00000000000E+00 0.  1.
         11    1    3    3    0    0  0.10839140117E+01  0.11384483652E+02 -0.27523547746E+02  0.29804815356E+02  0.51100000000E-03 0. -1.
        -11    1    3    3    0    0  0.12736182880E+02  0.20710028510E+01 -0.10869090660E+02  0.16871174802E+02  0.51100000000E-03 0.  1.
        -12    1    3    3    0    0 -0.65621489908E+00  0.78447887983E+00 -0.43465470768E+00  0.11112829620E+01  0.00000000000E+00 0.  1.
</event>
<event>
 7    1  0.2740409E-010  0.4778727E+02  0.7816164E-02  0.1312668E+00
        -11   -1    0    0    0    0  0.00000000000E+00  0.00000000000E+00  0.45593999997E+02  0.45594000000E+02  0.51100000000E-03 0.  1.
         11   -1    0    0    0    0 -0.00000000000E+00 -0.00000000000E+00 -0.45593999997E+02  0.45594000000E+02  0.51100000000E-03 0. -1.
    9900012    2    1    2    0    0 -0.11899680080E+02 -0.32868092206E+02 -0.25723711652E+02  0.47787271752E+02  0.20000003228E+02 0.  0.
        -12    1    1    2    0    0  0.11899680080E+02  0.32868092206E+02  0.25723711652E+02  0.43400728248E+02  0.00000000000E+00 0.  1.
         11    1    3    3    0    0 -0.13064961936E+02 -0.25376206392E+02 -0.17274693791E+02  0.33362555764E+02  0.51100000000E-03 0. -1.
        -11    1    3    3    0    0 -0.57256841843E+00 -0.40721459152E+01  0.99543689136E+00  0.42309693705E+01  0.51100000000E-03 0.  1.
         12    1    3    3    0    0  0.17378502744E+01 -0.34197398982E+01 -0.94444547519E+01  0.10193746618E+02  0.00000000000E+00 0. -1.
</event>
<event>
 7    1  0.2740409E-010  0.4778727E+02  0.7816164E-02  0.1312668E+00
        -11   -1    0    0    0    0  0.00000000000E+00  0.00000000000E+00  0.45593999997E+02  0.45594000000E+02  0.51100000000E-03 0.  1.
         11   -1    0    0    0    0 -0.00000000000E+00 -0.00000000000E+00 -0.45593999997E+02  0.45594000000E+02  0.51100000000E-03 0. -1.
    9900012    2    1    2    0    0 -0.28939353415E+02  0.79163295461E+01 -0.31360304824E+02  0.47787272261E+02  0.20000005549E+02 0.  0.
        -12    1    1    2    0    0  0.28939353415E+02 -0.79163295461E+01  0.31360304824E+02  0.43400727739E+02  0.00000000000E+00 0.  1.
         11    1    3    3    0    0 -0.19450976779E+02  0.69670119558E+01 -0.27300440398E+02  0.34237315891E+02  0.51100000000E-03 0. -1.
        -11    1    3    3    0    0  0.13590386592E+01  0.53350705076E+00  0.79046285451E+00  0.16602552924E+01  0.51100000000E-03 0.  1.
        -12    1    3    3    0    0 -0.10847415295E+02  0.41581053953E+00 -0.48503272807E+01  0.11889701078E+02  0.00000000000E+00 0.  1.
</event>
<event>
 7    1  0.2740409E-010  0.4778727E+02  0.7816164E-02  0.1312668E+00
        -11   -1    0    0    0    0  0.00000000000E+00  0.00000000000E+00  0.45593999997E+02  0.45594000000E+02  0.51100000000E-03 0.  1.
         11   -1    0    0    0    0 -0.00000000000E+00 -0.00000000000E+00 -0.45593999997E+02  0.45594000000E+02  0.51100000000E-03 0. -1.
    9900012    2    1    2    0    0  0.12805772661E+02  0.93896123766E+01 -0.40391469210E+02  0.47787269373E+02  0.19999992379E+02 0.  0.
        -12    1    1    2    0    0 -0.12805772661E+02 -0.93896123766E+01  0.40391469210E+02  0.43400730627E+02  0.00000000000E+00 0.  1.
         11    1    3    3    0    0  0.13244540447E+02  0.99486694406E+01 -0.35506017754E+02  0.39179984332E+02  0.51100000000E-03 0. -1.
        -11    1    3    3    0    0 -0.21712642765E+01  0.96700533513E+00  0.77019844792E+00  0.24985383301E+01  0.51100000000E-03 0.  1.
         12    1    3    3    0    0  0.17324964906E+01 -0.15260623992E+01 -0.56556499042E+01  0.61087467106E+01  0.00000000000E+00 0. -1.
</event>
<event>
 7    1  0.2740409E-010  0.4778727E+02  0.7816164E-02  0.1312668E+00
        -11   -1    0    0    0    0  0.00000000000E+00  0.00000000000E+00  0.45593999997E+02  0.45594000000E+02  0.51100000000E-03 0.  1.
         11   -1    0    0    0    0 -0.00000000000E+00 -0.00000000000E+00 -0.45593999997E+02  0.45594000000E+02  0.51100000000E-03 0. -1.
    9900012    2    1    2    0    0 -0.17725186299E+01  0.29493325934E+02 -0.31790332265E+02  0.47787270485E+02  0.19999997448E+02 0.  0.
        -12    1    1    2    0    0  0.17725186299E+01 -0.29493325934E+02  0.31790332265E+02  0.43400729515E+02  0.00000000000E+00 0.  1.
         11    1    3    3    0    0  0.18521526484E+01  0.97604494849E+01 -0.10749502904E+02  0.14637235276E+02  0.51100000000E-03 0. -1.
        -11    1    3    3    0    0  0.19968138073E+01  0.16545570394E+02 -0.77668198259E+01  0.18386589013E+02  0.51100000000E-03 0.  1.
        -12    1    3    3    0    0 -0.56214850855E+01  0.31873060550E+01 -0.13274009535E+02  0.14763446196E+02  0.00000000000E+00 0.  1.
</event>
<event>
 7    1  0.2740409E-010  0.4778727E+02  0.7816164E-02  0.1312668E+00
        -11   -1    0    0    0    0  0.00000000000E+00  0.00000000000E+00  0.45593999997E+02  0.45594000000E+02  0.51100000000E-03 0. -1.
         11   -1    0    0    0    0 -0.00000000000E+00 -0.00000000000E+00 -0.45593999997E+02  0.45594000000E+02  0.51100000000E-03 0.  1.
    9900012    2    1    2    0    0  0.40114722088E+02 -0.12866902565E+02 -0.10434331876E+02  0.47787269689E+02  0.19999993820E+02 0.  0.
        -12    1    1    2    0    0 -0.40114722088E+02  0.12866902565E+02  0.10434331876E+02  0.43400730311E+02  0.00000000000E+00 0.  1.
         11    1    3    3    0    0  0.14272203072E+01 -0.14884392599E+01  0.37125395520E+01  0.42468057905E+01  0.51100000000E-03 0. -1.
        -11    1    3    3    0    0  0.36526991350E+00 -0.15169180307E+01 -0.95200780990E+00  0.18277804991E+01  0.51100000000E-03 0.  1.
         12    1    3    3    0    0  0.38322231867E+02 -0.98615452746E+01 -0.13194863618E+02  0.41712683400E+02  0.00000000000E+00 0. -1.
</event>
<event>
 7    1  0.2740409E-010  0.4778727E+02  0.7816164E-02  0.1312668E+00
        -11   -1    0    0    0    0  0.00000000000E+00  0.00000000000E+00  0.45593999997E+02  0.45594000000E+02  0.51100000000E-03 0. -1.
         11   -1    0    0    0    0 -0.00000000000E+00 -0.00000000000E+00 -0.45593999997E+02  0.45594000000E+02  0.51100000000E-03 0.  1.
    9900012    2    1    2    0    0 -0.69957106659E+00  0.41655039833E+02  0.12165179135E+02  0.47787270438E+02  0.19999997234E+02 0.  0.
        -12    1    1    2    0    0  0.69957106659E+00 -0.41655039833E+02 -0.12165179135E+02  0.43400729562E+02  0.00000000000E+00 0.  1.
         11    1    3    3    0    0  0.65504716239E+01  0.31590694012E+02  0.10541861483E+02  0.33941294472E+02  0.51100000000E-03 0. -1.
        -11    1    3    3    0    0 -0.58211920723E+01  0.10443385997E+02  0.46030911680E+00  0.11965052151E+02  0.51100000000E-03 0.  1.
         12    1    3    3    0    0 -0.14288506182E+01 -0.37904017621E+00  0.11630085350E+01  0.18809238147E+01  0.00000000000E+00 0. -1.
</event>
<event>
 7    1  0.2740409E-010  0.4778727E+02  0.7816164E-02  0.1312668E+00
        -11   -1    0    0    0    0  0.00000000000E+00  0.00000000000E+00  0.45593999997E+02  0.45594000000E+02  0.51100000000E-03 0. -1.
         11   -1    0    0    0    0 -0.00000000000E+00 -0.00000000000E+00 -0.45593999997E+02  0.45594000000E+02  0.51100000000E-03 0.  1.
    9900012    2    1    2    0    0  0.11025866525E+02  0.39704746258E+02  0.13623022782E+02  0.47787270078E+02  0.19999995595E+02 0.  0.
        -12    1    1    2    0    0 -0.11025866525E+02 -0.39704746258E+02 -0.13623022782E+02  0.43400729922E+02  0.00000000000E+00 0.  1.
         11    1    3    3    0    0  0.55563098777E+01  0.22252968043E+02  0.17297651511E+02  0.28727615881E+02  0.51100000000E-03 0. -1.
        -11    1    3    3    0    0  0.12476414161E+01  0.10349120177E+02 -0.24324457620E+01  0.10704096888E+02  0.51100000000E-03 0.  1.
         12    1    3    3    0    0  0.42219152310E+01  0.71026580378E+01 -0.12421829663E+01  0.83555573089E+01  0.00000000000E+00 0. -1.
</event>
<event>
 7    1  0.2740409E-010  0.4778727E+02  0.7816164E-02  0.1312668E+00
        -11   -1    0    0    0    0  0.00000000000E+00  0.00000000000E+00  0.45593999997E+02  0.45594000000E+02  0.51100000000E-03 0.  1.
         11   -1    0    0    0    0 -0.00000000000E+00 -0.00000000000E+00 -0.45593999997E+02  0.45594000000E+02  0.51100000000E-03 0. -1.
    9900012    2    1    2    0    0  0.19463743971E+02  0.30690623769E+02 -0.23724920520E+02  0.47787267629E+02  0.19999984426E+02 0.  0.
        -12    1    1    2    0    0 -0.19463743971E+02 -0.30690623769E+02  0.23724920520E+02  0.43400732371E+02  0.00000000000E+00 0.  1.
         11    1    3    3    0    0  0.60588609661E+01  0.80529291702E+01 -0.23292209965E+01  0.10343342552E+02  0.51100000000E-03 0. -1.
        -11    1    3    3    0    0  0.11928274490E+02  0.18777149261E+02 -0.83532439790E+01  0.23762191648E+02  0.51100000000E-03 0.  1.
        -12    1    3    3    0    0  0.14766085153E+01  0.38605453382E+01 -0.13042455544E+02  0.13681733429E+02  0.00000000000E+00 0.  1.
</event>
<event>
 7    1  0.2740409E-010  0.4778727E+02  0.7816164E-02  0.1312668E+00
        -11   -1    0    0    0    0  0.00000000000E+00  0.00000000000E+00  0.45593999997E+02  0.45594000000E+02  0.51100000000E-03 0.  1.
         11   -1    0    0    0    0 -0.00000000000E+00 -0.00000000000E+00 -0.45593999997E+02  0.45594000000E+02  0.51100000000E-03 0. -1.
    9900012    2    1    2    0    0 -0.90198968422E+01  0.63461850502E+01 -0.41976074123E+02  0.47787269563E+02  0.19999993244E+02 0.  0.
        -12    1    1    2    0    0  0.90198968422E+01 -0.63461850502E+01  0.41976074123E+02  0.43400730437E+02  0.00000000000E+00 0.  1.
         11    1    3    3    0    0 -0.41469705072E+00 -0.32523058750E+01 -0.24050480019E+02  0.24272928471E+02  0.51100000000E-03 0. -1.
        -11    1    3    3    0    0 -0.52986480014E+01  0.61282739500E+01 -0.45186364825E+01  0.92762863351E+01  0.51100000000E-03 0.  1.
         12    1    3    3    0    0 -0.33065517900E+01  0.34702169752E+01 -0.13406957621E+02  0.14238054757E+02  0.00000000000E+00 0. -1.
</event>
<event>
 7    1  0.2740409E-010  0.4778727E+02  0.7816164E-02  0.1312668E+00
        -11   -1    0    0    0    0  0.00000000000E+00  0.00000000000E+00  0.45593999997E+02  0.45594000000E+02  0.51100000000E-03 0.  1.
         11   -1    0    0    0    0 -0.00000000000E+00 -0.00000000000E+00 -0.45593999997E+02  0.45594000000E+02  0.51100000000E-03 0. -1.
    9900012    2    1    2    0    0  0.14857616718E+02  0.39935366016E+02 -0.82486900411E+01  0.47787272808E+02  0.20000008042E+02 0.  0.
        -12    1    1    2    0    0 -0.14857616718E+02 -0.39935366016E+02  0.82486900411E+01  0.43400727192E+02  0.00000000000E+00 0.  1.
         11    1    3    3    0    0  0.27066339581E+01  0.10987355227E+02  0.53094819786E+01  0.12499537648E+02  0.51100000000E-03 0.  1.
        -11    1    3    3    0    0  0.12823689345E+02  0.27413895934E+02 -0.14278775065E+02  0.33464191553E+02  0.51100000000E-03 0. -1.
         12    1    3    3    0    0 -0.67270658567E+00  0.15341148552E+01  0.72060304494E+00  0.18235436073E+01  0.00000000000E+00 0. -1.
</event>
<event>
 7    1  0.2740409E-010  0.4778727E+02  0.7816164E-02  0.1312668E+00
        -11   -1    0    0    0    0  0.00000000000E+00  0.00000000000E+00  0.45593999997E+02  0.45594000000E+02  0.51100000000E-03 0.  1.
         11   -1    0    0    0    0 -0.00000000000E+00 -0.00000000000E+00 -0.45593999997E+02  0.45594000000E+02  0.51100000000E-03 0. -1.
    9900012    2    1    2    0    0  0.18628860514E+02  0.72241377692E+01 -0.38527921363E+02  0.47787270339E+02  0.19999996782E+02 0.  0.
        -12    1    1    2    0    0 -0.18628860514E+02 -0.72241377692E+01  0.38527921363E+02  0.43400729661E+02  0.00000000000E+00 0.  1.
         11    1    3    3    0    0  0.10882764706E+02  0.50032832521E-01 -0.11269765172E+02  0.15666674127E+02  0.51100000000E-03 0. -1.
        -11    1    3    3    0    0  0.41202586221E+01  0.84083030649E+01 -0.26644121364E+02  0.28241552632E+02  0.51100000000E-03 0.  1.
        -12    1    3    3    0    0  0.36258371862E+01 -0.12341981282E+01 -0.61403482774E+00  0.38790435793E+01  0.00000000000E+00 0.  1.
</event>
<event>
 7    1  0.2740409E-010  0.4778727E+02  0.7816164E-02  0.1312668E+00
        -11   -1    0    0    0    0  0.00000000000E+00  0.00000000000E+00  0.45593999997E+02  0.45594000000E+02  0.51100000000E-03 0.  1.
         11   -1    0    0    0    0 -0.00000000000E+00 -0.00000000000E+00 -0.45593999997E+02  0.45594000000E+02  0.51100000000E-03 0. -1.
    9900012    2    1    2    0    0  0.36192814473E+02  0.78109778977E+01 -0.22642707543E+02  0.47787269591E+02  0.19999993373E+02 0.  0.
        -12    1    1    2    0    0 -0.36192814473E+02 -0.78109778977E+01  0.22642707543E+02  0.43400730409E+02  0.00000000000E+00 0.  1.
         11    1    3    3    0    0  0.71199544365E+01 -0.24612997125E+01 -0.47605426339E+01  0.89114821372E+01  0.51100000000E-03 0. -1.
        -11    1    3    3    0    0  0.11613241660E+02  0.12329476021E+02 -0.89133941788E+01  0.19139800335E+02  0.51100000000E-03 0.  1.
        -12    1    3    3    0    0  0.17459618376E+02 -0.20571984109E+01 -0.89687707304E+01  0.19735987118E+02  0.00000000000E+00 0.  1.
</event>
<event>
 7    1  0.2740409E-010  0.4778727E+02  0.7816164E-02  0.1312668E+00
        -11   -1    0    0    0    0  0.00000000000E+00  0.00000000000E+00  0.45593999997E+02  0.45594000000E+02  0.51100000000E-03 0.  1.
         11   -1    0    0    0    0 -0.00000000000E+00 -0.00000000000E+00 -0.45593999997E+02  0.45594000000E+02  0.51100000000E-03 0. -1.
    9900012    2    1    2    0    0  0.29785904868E+01 -0.34189219068E+02 -0.26567811380E+02  0.47787270706E+02  0.19999998455E+02 0.  0.
        -12    1    1    2    0    0 -0.29785904868E+01  0.34189219068E+02  0.26567811380E+02  0.43400729294E+02  0.00000000000E+00 0.  1.
         11    1    3    3    0    0  0.23093854882E+01 -0.30050456816E+02 -0.23722162632E+02  0.38354976423E+02  0.51100000000E-03 0. -1.
        -11    1    3    3    0    0 -0.15552662349E+01 -0.20827459293E+01  0.22937214988E+01  0.34666759645E+01  0.51100000000E-03 0.  1.
        -12    1    3    3    0    0  0.22244712335E+01 -0.20560163229E+01 -0.51393702464E+01  0.59656183182E+01  0.00000000000E+00 0.  1.
</event>
<event>
 7    1  0.2740409E-010  0.4778727E+02  0.7816164E-02  0.1312668E+00
        -11   -1    0    0    0    0  0.00000000000E+00  0.00000000000E+00  0.45593999997E+02  0.45594000000E+02  0.51100000000E-03 0.  1.
         11   -1    0    0    0    0 -0.00000000000E+00 -0.00000000000E+00 -0.45593999997E+02  0.45594000000E+02  0.51100000000E-03 0. -1.
    9900012    2    1    2    0    0 -0.22709685847E+02 -0.34262857000E+02 -0.13926606097E+02  0.47787267766E+02  0.19999985052E+02 0.  0.
        -12    1    1    2    0    0  0.22709685847E+02  0.34262857000E+02  0.13926606097E+02  0.43400732234E+02  0.00000000000E+00 0.  1.
         11    1    3    3    0    0 -0.13726489847E+02 -0.26540981752E+02 -0.87039449405E+01  0.31122321470E+02  0.51100000000E-03 0. -1.
        -11    1    3    3    0    0 -0.89644604710E+01 -0.45178785229E+01  0.55977387764E+00  0.10054159584E+02  0.51100000000E-03 0.  1.
         12    1    3    3    0    0 -0.18735529745E-01 -0.32039967245E+01 -0.57824350342E+01  0.66107867123E+01  0.00000000000E+00 0. -1.
</event>
<event>
 7    1  0.2740409E-010  0.4778730E+02  0.7816164E-02  0.1312668E+00
        -11   -1    0    0    0    0  0.00000000000E+00  0.00000000000E+00  0.45593999997E+02  0.45594000000E+02  0.51100000000E-03 0.  1.
         11   -1    0    0    0    0 -0.00000000000E+00 -0.00000000000E+00 -0.45593999997E+02  0.45594000000E+02  0.51100000000E-03 0. -1.
    9900012    2    1    2    0    0  0.19408161748E+02  0.38794968206E+02  0.13763820666E+01  0.47787300373E+02  0.20000133719E+02 0.  0.
        -12    1    1    2    0    0 -0.19408161748E+02 -0.38794968206E+02 -0.13763820666E+01  0.43400699627E+02  0.00000000000E+00 0.  1.
         11    1    3    3    0    0  0.17743134623E+01  0.13902800871E+02  0.17238995928E+01  0.14121185871E+02  0.51100000000E-03 0. -1.
        -11    1    3    3    0    0  0.82795053462E+01  0.21672123673E+02  0.25956265208E+01  0.23344558907E+02  0.51100000000E-03 0.  1.
         12    1    3    3    0    0  0.93543429397E+01  0.32200436613E+01 -0.29431440470E+01  0.10321555595E+02  0.00000000000E+00 0. -1.
</event>
<event>
 7    1  0.2740409E-010  0.4778727E+02  0.7816164E-02  0.1312668E+00
        -11   -1    0    0    0    0  0.00000000000E+00  0.00000000000E+00  0.45593999997E+02  0.45594000000E+02  0.51100000000E-03 0.  1.
         11   -1    0    0    0    0 -0.00000000000E+00 -0.00000000000E+00 -0.45593999997E+02  0.45594000000E+02  0.51100000000E-03 0. -1.
    9900012    2    1    2    0    0  0.31736119899E+02 -0.29202624987E+02 -0.48630219348E+01  0.47787267349E+02  0.19999983149E+02 0.  0.
        -12    1    1    2    0    0 -0.31736119899E+02  0.29202624987E+02  0.48630219348E+01  0.43400732651E+02  0.00000000000E+00 0.  1.
         11    1    3    3    0    0  0.22633520085E+02 -0.29379403517E+02 -0.64772677103E+01  0.37648115221E+02  0.51100000000E-03 0. -1.
        -11    1    3    3    0    0  0.58065475886E+01  0.11483140404E+01 -0.75258155248E+00  0.59666572960E+01  0.51100000000E-03 0.  1.
         12    1    3    3    0    0  0.32960522254E+01 -0.97153551058E+00  0.23668273280E+01  0.41724948318E+01  0.00000000000E+00 0. -1.
</event>
<event>
 7    1  0.2740409E-010  0.4778727E+02  0.7816164E-02  0.1312668E+00
        -11   -1    0    0    0    0  0.00000000000E+00  0.00000000000E+00  0.45593999997E+02  0.45594000000E+02  0.51100000000E-03 0.  1.
         11   -1    0    0    0    0 -0.00000000000E+00 -0.00000000000E+00 -0.45593999997E+02  0.45594000000E+02  0.51100000000E-03 0. -1.
    9900012    2    1    2    0    0  0.21413562441E+02 -0.36168840438E+02 -0.10811940515E+02  0.47787265758E+02  0.19999975898E+02 0.  0.
        -12    1    1    2    0    0 -0.21413562441E+02  0.36168840438E+02  0.10811940515E+02  0.43400734242E+02  0.00000000000E+00 0.  1.
         11    1    3    3    0    0  0.92853224775E+01 -0.24173744190E+02 -0.78795533784E+01  0.27067960458E+02  0.51100000000E-03 0. -1.
        -11    1    3    3    0    0  0.12428563297E+02 -0.80753364578E+01  0.13778697937E+01  0.14885522160E+02  0.51100000000E-03 0.  1.
         12    1    3    3    0    0 -0.30032333442E+00 -0.39197597908E+01 -0.43102569301E+01  0.58337831402E+01  0.00000000000E+00 0. -1.
</event>
<event>
 7    1  0.2740409E-010  0.4778727E+02  0.7816164E-02  0.1312668E+00
        -11   -1    0    0    0    0  0.00000000000E+00  0.00000000000E+00  0.45593999997E+02  0.45594000000E+02  0.51100000000E-03 0. -1.
         11   -1    0    0    0    0 -0.00000000000E+00 -0.00000000000E+00 -0.45593999997E+02  0.45594000000E+02  0.51100000000E-03 0.  1.
    9900012    2    1    2    0    0  0.28752247622E+02  0.20591951934E+02 -0.25157568773E+02  0.47787268505E+02  0.19999988420E+02 0.  0.
        -12    1    1    2    0    0 -0.28752247622E+02 -0.20591951934E+02  0.25157568773E+02  0.43400731495E+02  0.00000000000E+00 0.  1.
         11    1    3    3    0    0  0.56059490834E+01  0.24775961983E+01 -0.13946033088E+02  0.15233416793E+02  0.51100000000E-03 0.  1.
        -11    1    3    3    0    0  0.14881376331E+01  0.48624965066E+01 -0.28063917663E+01  0.58081202552E+01  0.51100000000E-03 0. -1.
         12    1    3    3    0    0  0.21658160905E+02  0.13251859229E+02 -0.84051439193E+01  0.26745731456E+02  0.00000000000E+00 0. -1.
</event>
<event>
 7    1  0.2944476E-010  0.4778727E+02  0.7816164E-02  0.1312668E+00
        -11   -1    0    0    0    0  0.00000000000E+00  0.00000000000E+00  0.45593999997E+02  0.45594000000E+02  0.51100000000E-03 0.  1.
         11   -1    0    0    0    0 -0.00000000000E+00 -0.00000000000E+00 -0.45593999997E+02  0.45594000000E+02  0.51100000000E-03 0. -1.
    9900012    2    1    2    0    0 -0.23143566167E+02 -0.12457806224E+02 -0.34536957678E+02  0.47787273779E+02  0.20000012467E+02 0.  0.
        -12    1    1    2    0    0  0.23143566167E+02  0.12457806224E+02  0.34536957678E+02  0.43400726221E+02  0.00000000000E+00 0.  1.
         11    1    3    3    0    0 -0.70362364326E+01 -0.11213004809E+02 -0.17526149832E+02  0.21963743492E+02  0.51100000000E-03 0. -1.
        -11    1    3    3    0    0 -0.74073765128E+01 -0.43664608122E+01 -0.31374471833E+01  0.91530749979E+01  0.51100000000E-03 0.  1.
         12    1    3    3    0    0 -0.86999532221E+01  0.31216593974E+01 -0.13873360662E+02  0.16670455289E+02  0.00000000000E+00 0. -1.
</event>
<event>
 7    1  0.2740409E-010  0.4778727E+02  0.7816164E-02  0.1312668E+00
        -11   -1    0    0    0    0  0.00000000000E+00  0.00000000000E+00  0.45593999997E+02  0.45594000000E+02  0.51100000000E-03 0.  1.
         11   -1    0    0    0    0 -0.00000000000E+00 -0.00000000000E+00 -0.45593999997E+02  0.45594000000E+02  0.51100000000E-03 0. -1.
    9900012    2    1    2    0    0 -0.39837102970E+00 -0.40040578366E+02 -0.16739676694E+02  0.47787269693E+02  0.19999993838E+02 0.  0.
        -12    1    1    2    0    0  0.39837102970E+00  0.40040578366E+02  0.16739676694E+02  0.43400730307E+02  0.00000000000E+00 0.  1.
         11    1    3    3    0    0 -0.91865011261E+00 -0.19306111923E+02 -0.90879980525E+01  0.21357939612E+02  0.51100000000E-03 0. -1.
        -11    1    3    3    0    0 -0.16501001423E+01 -0.77739678546E+00  0.31447842885E+01  0.36354978647E+01  0.51100000000E-03 0.  1.
        -12    1    3    3    0    0  0.21703792252E+01 -0.19957069658E+02 -0.10796462930E+02  0.22793832216E+02  0.00000000000E+00 0.  1.
</event>
<event>
 7    1  0.2740409E-010  0.4778727E+02  0.7816164E-02  0.1312668E+00
        -11   -1    0    0    0    0  0.00000000000E+00  0.00000000000E+00  0.45593999997E+02  0.45594000000E+02  0.51100000000E-03 0.  1.
         11   -1    0    0    0    0 -0.00000000000E+00 -0.00000000000E+00 -0.45593999997E+02  0.45594000000E+02  0.51100000000E-03 0. -1.
    9900012    2    1    2    0    0 -0.32087609506E+02  0.28375976522E+02 -0.69865739513E+01  0.47787274856E+02  0.20000017380E+02 0.  0.
        -12    1    1    2    0    0  0.32087609506E+02 -0.28375976522E+02  0.69865739513E+01  0.43400725144E+02  0.00000000000E+00 0.  1.
         11    1    3    3    0    0 -0.53723301763E+01 -0.14063788710E+01 -0.30151517134E+01  0.63190959138E+01  0.51100000000E-03 0. -1.
        -11    1    3    3    0    0  0.20193333792E+00  0.17686541707E+01  0.13789044740E+01  0.22517309915E+01  0.51100000000E-03 0.  1.
         12    1    3    3    0    0 -0.26917212668E+02  0.28013701222E+02 -0.53503267118E+01  0.39216447951E+02  0.00000000000E+00 0. -1.
</event>
<event>
 7    1  0.2740409E-010  0.4778728E+02  0.7816164E-02  0.1312668E+00
        -11   -1    0    0    0    0  0.00000000000E+00  0.00000000000E+00  0.45593999997E+02  0.45594000000E+02  0.51100000000E-03 0.  1.
         11   -1    0    0    0    0 -0.00000000000E+00 -0.00000000000E+00 -0.45593999997E+02  0.45594000000E+02  0.51100000000E-03 0. -1.
    9900012    2    1    2    0    0  0.41126700122E+02 -0.13850092302E+02  0.62627672289E+00  0.47787277169E+02  0.20000027923E+02 0.  0.
        -12    1    1    2    0    0 -0.41126700122E+02  0.13850092302E+02 -0.62627672289E+00  0.43400722831E+02  0.00000000000E+00 0.  1.
         11    1    3    3    0    0  0.15074910988E+02 -0.25972051781E+00  0.16433328649E+01  0.15166441217E+02  0.51100000000E-03 0. -1.
        -11    1    3    3    0    0  0.10278360527E+02 -0.88335681339E+01  0.58634169821E+01  0.14766728821E+02  0.51100000000E-03 0.  1.
        -12    1    3    3    0    0  0.15773428608E+02 -0.47568036505E+01 -0.68804731241E+01  0.17854107131E+02  0.00000000000E+00 0.  1.
</event>
<event>
 7    1  0.2740409E-010  0.4778727E+02  0.7816164E-02  0.1312668E+00
        -11   -1    0    0    0    0  0.00000000000E+00  0.00000000000E+00  0.45593999997E+02  0.45594000000E+02  0.51100000000E-03 0.  1.
         11   -1    0    0    0    0 -0.00000000000E+00 -0.00000000000E+00 -0.45593999997E+02  0.45594000000E+02  0.51100000000E-03 0. -1.
    9900012    2    1    2    0    0  0.14180717258E+02 -0.34253235035E+02 -0.22566490419E+02  0.47787270258E+02  0.19999996414E+02 0.  0.
        -12    1    1    2    0    0 -0.14180717258E+02  0.34253235035E+02  0.22566490419E+02  0.43400729742E+02  0.00000000000E+00 0.  1.
         11    1    3    3    0    0  0.55568239163E+01 -0.19616547768E+02 -0.13543292160E+02  0.24476682805E+02  0.51100000000E-03 0. -1.
        -11    1    3    3    0    0  0.17104746061E+01 -0.86936326167E+01  0.19214673263E+01  0.90662565814E+01  0.51100000000E-03 0.  1.
        -12    1    3    3    0    0  0.69134187352E+01 -0.59430546507E+01 -0.10944665586E+02  0.14244330871E+02  0.00000000000E+00 0.  1.
</event>
<event>
 7    1  0.2740409E-010  0.4778727E+02  0.7816164E-02  0.1312668E+00
        -11   -1    0    0    0    0  0.00000000000E+00  0.00000000000E+00  0.45593999997E+02  0.45594000000E+02  0.51100000000E-03 0.  1.
         11   -1    0    0    0    0 -0.00000000000E+00 -0.00000000000E+00 -0.45593999997E+02  0.45594000000E+02  0.51100000000E-03 0. -1.
    9900012    2    1    2    0    0 -0.39814102781E+02  0.16804902795E+02 -0.40069987280E+01  0.47787267552E+02  0.19999984075E+02 0.  0.
        -12    1    1    2    0    0  0.39814102781E+02 -0.16804902795E+02  0.40069987280E+01  0.43400732448E+02  0.00000000000E+00 0.  1.
         11    1    3    3    0    0 -0.15415643628E+02  0.69838101215E+01  0.71222300987E+01  0.18361422443E+02  0.51100000000E-03 0. -1.
        -11    1    3    3    0    0 -0.11192711690E+02  0.16451507057E+01 -0.71824300492E+01  0.13400396169E+02  0.51100000000E-03 0.  1.
         12    1    3    3    0    0 -0.13205747463E+02  0.81759419678E+01 -0.39467987774E+01  0.16025448940E+02  0.00000000000E+00 0. -1.
</event>
<event>
 7    1  0.2740409E-010  0.4778728E+02  0.7816164E-02  0.1312668E+00
        -11   -1    0    0    0    0  0.00000000000E+00  0.00000000000E+00  0.45593999997E+02  0.45594000000E+02  0.51100000000E-03 0.  1.
         11   -1    0    0    0    0 -0.00000000000E+00 -0.00000000000E+00 -0.45593999997E+02  0.45594000000E+02  0.51100000000E-03 0. -1.
    9900012    2    1    2    0    0 -0.32428812846E+02 -0.17412010994E+02 -0.22996008446E+02  0.47787280722E+02  0.20000044122E+02 0.  0.
        -12    1    1    2    0    0  0.32428812846E+02  0.17412010994E+02  0.22996008446E+02  0.43400719278E+02  0.00000000000E+00 0.  1.
         11    1    3    3    0    0 -0.21235314080E+01  0.52386310587E+00 -0.81075377839E+01  0.83973797921E+01  0.51100000000E-03 0. -1.
        -11    1    3    3    0    0 -0.22603926326E+02 -0.82219556915E+01 -0.92276176917E+01  0.25762122763E+02  0.51100000000E-03 0.  1.
        -12    1    3    3    0    0 -0.77013551119E+01 -0.97139184081E+01 -0.56608529702E+01  0.13627778166E+02  0.00000000000E+00 0.  1.
</event>
<event>
 7    1  0.2740409E-010  0.4778727E+02  0.7816164E-02  0.1312668E+00
        -11   -1    0    0    0    0  0.00000000000E+00  0.00000000000E+00  0.45593999997E+02  0.45594000000E+02  0.51100000000E-03 0.  1.
         11   -1    0    0    0    0 -0.00000000000E+00 -0.00000000000E+00 -0.45593999997E+02  0.45594000000E+02  0.51100000000E-03 0. -1.
    9900012    2    1    2    0    0 -0.24630442402E+02 -0.33414235168E+01 -0.35578076823E+02  0.47787270116E+02  0.19999995768E+02 0.  0.
        -12    1    1    2    0    0  0.24630442402E+02  0.33414235168E+01  0.35578076823E+02  0.43400729884E+02  0.00000000000E+00 0.  1.
         11    1    3    3    0    0 -0.34372348922E+01  0.10105839993E+01 -0.19126323103E+02  0.19458985056E+02  0.51100000000E-03 0. -1.
        -11    1    3    3    0    0 -0.45644890768E+01 -0.28308664074E+01 -0.77926809595E+00  0.54273035824E+01  0.51100000000E-03 0.  1.
         12    1    3    3    0    0 -0.16628718433E+02 -0.15211411087E+01 -0.15672485624E+02  0.22900981477E+02  0.00000000000E+00 0. -1.
</event>
<event>
 7    1  0.2740409E-010  0.4778727E+02  0.7816164E-02  0.1312668E+00
        -11   -1    0    0    0    0  0.00000000000E+00  0.00000000000E+00  0.45593999997E+02  0.45594000000E+02  0.51100000000E-03 0.  1.
         11   -1    0    0    0    0 -0.00000000000E+00 -0.00000000000E+00 -0.45593999997E+02  0.45594000000E+02  0.51100000000E-03 0. -1.
    9900012    2    1    2    0    0 -0.31038275969E+02  0.28921141483E+02 -0.91551267170E+01  0.47787270225E+02  0.19999996263E+02 0.  0.
        -12    1    1    2    0    0  0.31038275969E+02 -0.28921141483E+02  0.91551267170E+01  0.43400729775E+02  0.00000000000E+00 0.  1.
         11    1    3    3    0    0 -0.21141991448E+01  0.26670282412E+01  0.31193090432E+00  0.34176276587E+01  0.51100000000E-03 0. -1.
        -11    1    3    3    0    0 -0.30768758980E+02  0.21629630699E+02 -0.10954385900E+02  0.39173409656E+02  0.51100000000E-03 0.  1.
        -12    1    3    3    0    0  0.18446821562E+01  0.46244825433E+01  0.14873282789E+01  0.51962329105E+01  0.00000000000E+00 0.  1.
</event>
<event>
 7    1  0.2740409E-010  0.4778727E+02  0.7816164E-02  0.1312668E+00
        -11   -1    0    0    0    0  0.00000000000E+00  0.00000000000E+00  0.45593999997E+02  0.45594000000E+02  0.51100000000E-03 0.  1.
         11   -1    0    0    0    0 -0.00000000000E+00 -0.00000000000E+00 -0.45593999997E+02  0.45594000000E+02  0.51100000000E-03 0. -1.
    9900012    2    1    2    0    0  0.24350459562E+02 -0.60145227211E+01 -0.35418983939E+02  0.47787265125E+02  0.19999973010E+02 0.  0.
        -12    1    1    2    0    0 -0.24350459562E+02  0.60145227211E+01  0.35418983939E+02  0.43400734875E+02  0.00000000000E+00 0.  1.
         11    1    3    3    0    0  0.30445272532E+01  0.41310207826E+01 -0.84458315142E+01  0.98826387736E+01  0.51100000000E-03 0. -1.
        -11    1    3    3    0    0  0.16791637352E+02 -0.12129771896E+02 -0.25297900876E+02  0.32696700754E+02  0.51100000000E-03 0.  1.
        -12    1    3    3    0    0  0.45142949570E+01  0.19842283928E+01 -0.16752515489E+01  0.52079255972E+01  0.00000000000E+00 0.  1.
</event>
<event>
 7    1  0.2740409E-010  0.4778727E+02  0.7816164E-02  0.1312668E+00
        -11   -1    0    0    0    0  0.00000000000E+00  0.00000000000E+00  0.45593999997E+02  0.45594000000E+02  0.51100000000E-03 0.  1.
         11   -1    0    0    0    0 -0.00000000000E+00 -0.00000000000E+00 -0.45593999997E+02  0.45594000000E+02  0.51100000000E-03 0. -1.
    9900012    2    1    2    0    0  0.14451998505E+02 -0.10344581311E+01 -0.40910789775E+02  0.47787273227E+02  0.20000009953E+02 0.  0.
        -12    1    1    2    0    0 -0.14451998505E+02  0.10344581311E+01  0.40910789775E+02  0.43400726773E+02  0.00000000000E+00 0.  1.
         11    1    3    3    0    0  0.26614420752E+01 -0.84561821825E+01 -0.80908288719E+01  0.12002158269E+02  0.51100000000E-03 0.  1.
        -11    1    3    3    0    0  0.55082842019E+01  0.51656733072E+01 -0.18685709297E+02  0.20153935292E+02  0.51100000000E-03 0. -1.
        -12    1    3    3    0    0  0.62822722278E+01  0.22560507442E+01 -0.14134251606E+02  0.15631179666E+02  0.00000000000E+00 0.  1.
</event>
<event>
 7    1  0.2740409E-010  0.4778727E+02  0.7816164E-02  0.1312668E+00
        -11   -1    0    0    0    0  0.00000000000E+00  0.00000000000E+00  0.45593999997E+02  0.45594000000E+02  0.51100000000E-03 0. -1.
         11   -1    0    0    0    0 -0.00000000000E+00 -0.00000000000E+00 -0.45593999997E+02  0.45594000000E+02  0.51100000000E-03 0.  1.
    9900012    2    1    2    0    0 -0.21050494845E+02  0.18936192676E+02  0.32892560237E+02  0.47787271375E+02  0.20000001507E+02 0.  0.
        -12    1    1    2    0    0  0.21050494845E+02 -0.18936192676E+02 -0.32892560237E+02  0.43400728625E+02  0.00000000000E+00 0.  1.
         11    1    3    3    0    0 -0.15128624853E+02  0.63161455291E+01  0.24860100398E+02  0.29779079508E+02  0.51100000000E-03 0. -1.
        -11    1    3    3    0    0  0.99549808442E+00  0.32597262290E+01 -0.67246070747E+00  0.34740516963E+01  0.51100000000E-03 0.  1.
         12    1    3    3    0    0 -0.69173680763E+01  0.93603209174E+01  0.87049205463E+01  0.14534140171E+02  0.00000000000E+00 0. -1.
</event>
<event>
 7    1  0.2740409E-010  0.4778727E+02  0.7816164E-02  0.1312668E+00
        -11   -1    0    0    0    0  0.00000000000E+00  0.00000000000E+00  0.45593999997E+02  0.45594000000E+02  0.51100000000E-03 0. -1.
         11   -1    0    0    0    0 -0.00000000000E+00 -0.00000000000E+00 -0.45593999997E+02  0.45594000000E+02  0.51100000000E-03 0.  1.
    9900012    2    1    2    0    0 -0.18969572766E+02 -0.15468429881E+01  0.39004942585E+02  0.47787274658E+02  0.20000016474E+02 0.  0.
        -12    1    1    2    0    0  0.18969572766E+02  0.15468429881E+01 -0.39004942585E+02  0.43400725342E+02  0.00000000000E+00 0.  1.
         11    1    3    3    0    0 -0.51993470639E+01 -0.14757253413E+01  0.23356180576E+00  0.54097621530E+01  0.51100000000E-03 0. -1.
        -11    1    3    3    0    0  0.44012350117E+00 -0.88836759786E+00 -0.86033707307E-01  0.99514207283E+00  0.51100000000E-03 0.  1.
         12    1    3    3    0    0 -0.14210349204E+02  0.81724995105E+00  0.38857414487E+02  0.41382370432E+02  0.00000000000E+00 0. -1.
</event>
<event>
 7    1  0.2740409E-010  0.4778727E+02  0.7816164E-02  0.1312668E+00
        -11   -1    0    0    0    0  0.00000000000E+00  0.00000000000E+00  0.45593999997E+02  0.45594000000E+02  0.51100000000E-03 0.  1.
         11   -1    0    0    0    0 -0.00000000000E+00 -0.00000000000E+00 -0.45593999997E+02  0.45594000000E+02  0.51100000000E-03 0. -1.
    9900012    2    1    2    0    0  0.15929704641E+01 -0.26381315833E+02 -0.34425456088E+02  0.47787269513E+02  0.19999993016E+02 0.  0.
        -12    1    1    2    0    0 -0.15929704641E+01  0.26381315833E+02  0.34425456088E+02  0.43400730487E+02  0.00000000000E+00 0.  1.
         11    1    3    3    0    0 -0.25449434243E+01 -0.13453112152E+02 -0.13541748482E+02  0.19257256186E+02  0.51100000000E-03 0. -1.
        -11    1    3    3    0    0  0.44120009237E+01  0.17466355492E+01 -0.46232023013E+01  0.66249896357E+01  0.51100000000E-03 0.  1.
        -12    1    3    3    0    0 -0.27408703531E+00 -0.14674839230E+02 -0.16260505305E+02  0.21905023691E+02  0.00000000000E+00 0.  1.
</event>
<event>
 7    1  0.2740409E-010  0.4778727E+02  0.7816164E-02  0.1312668E+00
        -11   -1    0    0    0    0  0.00000000000E+00  0.00000000000E+00  0.45593999997E+02  0.45594000000E+02  0.51100000000E-03 0. -1.
         11   -1    0    0    0    0 -0.00000000000E+00 -0.00000000000E+00 -0.45593999997E+02  0.45594000000E+02  0.51100000000E-03 0.  1.
    9900012    2    1    2    0    0 -0.31238474356E+02 -0.20291502808E+02  0.22271867460E+02  0.47787269056E+02  0.19999990935E+02 0.  0.
        -12    1    1    2    0    0  0.31238474356E+02  0.20291502808E+02 -0.22271867460E+02  0.43400730944E+02  0.00000000000E+00 0.  1.
         11    1    3    3    0    0 -0.10320888819E+02 -0.24816673966E-01  0.87407915424E+01  0.13524895524E+02  0.51100000000E-03 0. -1.
        -11    1    3    3    0    0 -0.18764219220E+02 -0.16504759930E+02  0.62031960996E+01  0.25748449767E+02  0.51100000000E-03 0.  1.
         12    1    3    3    0    0 -0.21533663170E+01 -0.37619262039E+01  0.73278798181E+01  0.85139237656E+01  0.00000000000E+00 0. -1.
</event>
<event>
 7    1  0.2740409E-010  0.4778727E+02  0.7816164E-02  0.1312668E+00
        -11   -1    0    0    0    0  0.00000000000E+00  0.00000000000E+00  0.45593999997E+02  0.45594000000E+02  0.51100000000E-03 0.  1.
         11   -1    0    0    0    0 -0.00000000000E+00 -0.00000000000E+00 -0.45593999997E+02  0.45594000000E+02  0.51100000000E-03 0. -1.
    9900012    2    1    2    0    0  0.22955656435E+02 -0.36828054807E+02  0.59611848169E+00  0.47787272581E+02  0.20000007007E+02 0.  0.
        -12    1    1    2    0    0 -0.22955656435E+02  0.36828054807E+02 -0.59611848169E+00  0.43400727419E+02  0.00000000000E+00 0.  1.
         11    1    3    3    0    0 -0.21215422909E+01 -0.80320192799E+01  0.21176030884E+01  0.85731276968E+01  0.51100000000E-03 0. -1.
        -11    1    3    3    0    0  0.11177999702E+02 -0.67772962698E+01  0.62599193904E+00  0.13087065685E+02  0.51100000000E-03 0.  1.
         12    1    3    3    0    0  0.13899199024E+02 -0.22018739257E+02 -0.21474765457E+01  0.26127079200E+02  0.00000000000E+00 0. -1.
</event>
<event>
 7    1  0.2740409E-010  0.4778727E+02  0.7816164E-02  0.1312668E+00
        -11   -1    0    0    0    0  0.00000000000E+00  0.00000000000E+00  0.45593999997E+02  0.45594000000E+02  0.51100000000E-03 0.  1.
         11   -1    0    0    0    0 -0.00000000000E+00 -0.00000000000E+00 -0.45593999997E+02  0.45594000000E+02  0.51100000000E-03 0. -1.
    9900012    2    1    2    0    0  0.17626648860E+02  0.20295231559E+02 -0.34073864131E+02  0.47787269696E+02  0.19999993853E+02 0.  0.
        -12    1    1    2    0    0 -0.17626648860E+02 -0.20295231559E+02  0.34073864131E+02  0.43400730304E+02  0.00000000000E+00 0.  1.
         11    1    3    3    0    0  0.69479106950E+01  0.18497887266E+02 -0.13708567327E+02  0.24049326701E+02  0.51100000000E-03 0. -1.
        -11    1    3    3    0    0  0.63560722461E+01  0.37726101630E+01 -0.11306041540E+02  0.13507731764E+02  0.51100000000E-03 0.  1.
         12    1    3    3    0    0  0.43226659190E+01 -0.19752658702E+01 -0.90592552641E+01  0.10230211232E+02  0.00000000000E+00 0. -1.
</event>
<event>
 7    1  0.2740409E-010  0.4778727E+02  0.7816164E-02  0.1312668E+00
        -11   -1    0    0    0    0  0.00000000000E+00  0.00000000000E+00  0.45593999997E+02  0.45594000000E+02  0.51100000000E-03 0. -1.
         11   -1    0    0    0    0 -0.00000000000E+00 -0.00000000000E+00 -0.45593999997E+02  0.45594000000E+02  0.51100000000E-03 0.  1.
    9900012    2    1    2    0    0 -0.35118645599E+02 -0.57873352393E+01  0.24835673141E+02  0.47787272146E+02  0.20000005022E+02 0.  0.
        -12    1    1    2    0    0  0.35118645599E+02  0.57873352393E+01 -0.24835673141E+02  0.43400727854E+02  0.00000000000E+00 0.  1.
         11    1    3    3    0    0 -0.28994322806E+02 -0.64493022267E+01  0.14308769948E+02  0.32969761174E+02  0.51100000000E-03 0. -1.
        -11    1    3    3    0    0  0.10843847933E+01  0.23549437708E+01  0.10656918649E+01  0.28030964942E+01  0.51100000000E-03 0.  1.
        -12    1    3    3    0    0 -0.72087075867E+01 -0.16929767834E+01  0.94612113273E+01  0.12014414478E+02  0.00000000000E+00 0.  1.
</event>
<event>
 7    1  0.2740409E-010  0.4778727E+02  0.7816164E-02  0.1312668E+00
        -11   -1    0    0    0    0  0.00000000000E+00  0.00000000000E+00  0.45593999997E+02  0.45594000000E+02  0.51100000000E-03 0.  1.
         11   -1    0    0    0    0 -0.00000000000E+00 -0.00000000000E+00 -0.45593999997E+02  0.45594000000E+02  0.51100000000E-03 0. -1.
    9900012    2    1    2    0    0  0.20758318613E+02  0.16269069483E+02 -0.34467855097E+02  0.47787269033E+02  0.19999990828E+02 0.  0.
        -12    1    1    2    0    0 -0.20758318613E+02 -0.16269069483E+02  0.34467855097E+02  0.43400730967E+02  0.00000000000E+00 0.  1.
         11    1    3    3    0    0  0.24368326265E+01  0.59443815728E+01 -0.49744359703E+01  0.81251977832E+01  0.51100000000E-03 0.  1.
        -11    1    3    3    0    0  0.12722467041E+02  0.14282471056E+02 -0.24944544434E+02  0.31433746903E+02  0.51100000000E-03 0. -1.
        -12    1    3    3    0    0  0.55990189454E+01 -0.39577831458E+01 -0.45488746932E+01  0.82283243467E+01  0.00000000000E+00 0.  1.
</event>
<event>
 7    1  0.2740409E-010  0.4778724E+02  0.7816164E-02  0.1312668E+00
        -11   -1    0    0    0    0  0.00000000000E+00  0.00000000000E+00  0.45593999997E+02  0.45594000000E+02  0.51100000000E-03 0.  1.
         11   -1    0    0    0    0 -0.00000000000E+00 -0.00000000000E+00 -0.45593999997E+02  0.45594000000E+02  0.51100000000E-03 0. -1.
    9900012    2    1    2    0    0  0.65431238495E+01  0.42167638078E+02 -0.79185814036E+01  0.47787238460E+02  0.19999851436E+02 0.  0.
        -12    1    1    2    0    0 -0.65431238495E+01 -0.42167638078E+02  0.79185814036E+01  0.43400761540E+02  0.00000000000E+00 0.  1.
         11    1    3    3    0    0  0.31021055773E+01  0.23753105193E+02 -0.64956212582E+01  0.24819874317E+02  0.51100000000E-03 0. -1.
        -11    1    3    3    0    0 -0.22089003375E+01 -0.90103972728E+00  0.12031187995E+01  0.26718174335E+01  0.51100000000E-03 0.  1.
         12    1    3    3    0    0  0.56499186097E+01  0.19315572612E+02 -0.26260789450E+01  0.20295546710E+02  0.00000000000E+00 0. -1.
</event>
<event>
 7    1  0.2740409E-010  0.4778727E+02  0.7816164E-02  0.1312668E+00
        -11   -1    0    0    0    0  0.00000000000E+00  0.00000000000E+00  0.45593999997E+02  0.45594000000E+02  0.51100000000E-03 0.  1.
         11   -1    0    0    0    0 -0.00000000000E+00 -0.00000000000E+00 -0.45593999997E+02  0.45594000000E+02  0.51100000000E-03 0. -1.
    9900012    2    1    2    0    0 -0.37978997629E+02  0.53424344185E+01 -0.20314463791E+02  0.47787270680E+02  0.19999998338E+02 0.  0.
        -12    1    1    2    0    0  0.37978997629E+02 -0.53424344185E+01  0.20314463791E+02  0.43400729320E+02  0.00000000000E+00 0.  1.
         11    1    3    3    0    0 -0.56869269545E+01 -0.54065045748E+01 -0.35755809318E+01  0.86230046483E+01  0.51100000000E-03 0. -1.
        -11    1    3    3    0    0 -0.19520247950E+02  0.45613119922E+01 -0.47858827582E+01  0.20609471637E+02  0.51100000000E-03 0.  1.
         12    1    3    3    0    0 -0.12771822724E+02  0.61876270011E+01 -0.11953000101E+02  0.18554794395E+02  0.00000000000E+00 0. -1.
</event>
<event>
 7    1  0.2740409E-010  0.4778727E+02  0.7816164E-02  0.1312668E+00
        -11   -1    0    0    0    0  0.00000000000E+00  0.00000000000E+00  0.45593999997E+02  0.45594000000E+02  0.51100000000E-03 0.  1.
         11   -1    0    0    0    0 -0.00000000000E+00 -0.00000000000E+00 -0.45593999997E+02  0.45594000000E+02  0.51100000000E-03 0. -1.
    9900012    2    1    2    0    0 -0.11763744435E+02 -0.35460228952E+02 -0.22086415414E+02  0.47787271132E+02  0.20000000397E+02 0.  0.
        -12    1    1    2    0    0  0.11763744435E+02  0.35460228952E+02  0.22086415414E+02  0.43400728868E+02  0.00000000000E+00 0.  1.
         11    1    3    3    0    0  0.43697018726E+01 -0.10497979566E+02 -0.95484010674E+01  0.14848361277E+02  0.51100000000E-03 0. -1.
        -11    1    3    3    0    0 -0.12937174375E+02 -0.14246508156E+02 -0.86654581114E+01  0.21105061952E+02  0.51100000000E-03 0.  1.
         12    1    3    3    0    0 -0.31962719329E+01 -0.10715741230E+02 -0.38725562358E+01  0.11833847902E+02  0.00000000000E+00 0. -1.
</event>
<event>
 7    1  0.2740409E-010  0.4778726E+02  0.7816164E-02  0.1312668E+00
        -11   -1    0    0    0    0  0.00000000000E+00  0.00000000000E+00  0.45593999997E+02  0.45594000000E+02  0.51100000000E-03 0.  1.
         11   -1    0    0    0    0 -0.00000000000E+00 -0.00000000000E+00 -0.45593999997E+02  0.45594000000E+02  0.51100000000E-03 0. -1.
    9900012    2    1    2    0    0 -0.40483721568E+02 -0.14894143232E+02 -0.47808964310E+01  0.47787260544E+02  0.19999952125E+02 0.  0.
        -12    1    1    2    0    0  0.40483721568E+02  0.14894143232E+02  0.47808964310E+01  0.43400739456E+02  0.00000000000E+00 0.  1.
         11    1    3    3    0    0 -0.13712886030E+02 -0.12162113632E+02 -0.88121962697E+01  0.20337528233E+02  0.51100000000E-03 0. -1.
        -11    1    3    3    0    0 -0.19321595420E+02 -0.29122726044E+01  0.15720535353E+01  0.19602977679E+02  0.51100000000E-03 0.  1.
        -12    1    3    3    0    0 -0.74492401182E+01  0.18024300389E+00  0.24592463034E+01  0.78467546323E+01  0.00000000000E+00 0.  1.
</event>
<event>
 7    1  0.2740409E-010  0.4778727E+02  0.7816164E-02  0.1312668E+00
        -11   -1    0    0    0    0  0.00000000000E+00  0.00000000000E+00  0.45593999997E+02  0.45594000000E+02  0.51100000000E-03 0. -1.
         11   -1    0    0    0    0 -0.00000000000E+00 -0.00000000000E+00 -0.45593999997E+02  0.45594000000E+02  0.51100000000E-03 0.  1.
    9900012    2    1    2    0    0 -0.38512921772E+02  0.16922592840E+02  0.10677268548E+02  0.47787270104E+02  0.19999995711E+02 0.  0.
        -12    1    1    2    0    0  0.38512921772E+02 -0.16922592840E+02 -0.10677268548E+02  0.43400729896E+02  0.00000000000E+00 0.  1.
         11    1    3    3    0    0 -0.37326297157E+02  0.16044737935E+02  0.10634929676E+02  0.41997473785E+02  0.51100000000E-03 0. -1.
        -11    1    3    3    0    0  0.94077795510E-01 -0.17611668910E+01 -0.16399079526E+01  0.24082893937E+01  0.51100000000E-03 0.  1.
         12    1    3    3    0    0 -0.12807024114E+01  0.26390217963E+01  0.16822468244E+01  0.33815069253E+01  0.00000000000E+00 0. -1.
</event>
<event>
 7    1  0.2740409E-010  0.4778727E+02  0.7816164E-02  0.1312668E+00
        -11   -1    0    0    0    0  0.00000000000E+00  0.00000000000E+00  0.45593999997E+02  0.45594000000E+02  0.51100000000E-03 0.  1.
         11   -1    0    0    0    0 -0.00000000000E+00 -0.00000000000E+00 -0.45593999997E+02  0.45594000000E+02  0.51100000000E-03 0. -1.
    9900012    2    1    2    0    0 -0.79532630339E+01 -0.33267127784E+02 -0.26714548114E+02  0.47787271149E+02  0.20000000477E+02 0.  0.
        -12    1    1    2    0    0  0.79532630339E+01  0.33267127784E+02  0.26714548114E+02  0.43400728851E+02  0.00000000000E+00 0.  1.
         11    1    3    3    0    0  0.37212292055E+01 -0.46629935640E+01 -0.60973841228E+01  0.85304835255E+01  0.51100000000E-03 0. -1.
        -11    1    3    3    0    0 -0.13805880829E+02 -0.27193314597E+02 -0.17277542747E+02  0.35051279404E+02  0.51100000000E-03 0.  1.
        -12    1    3    3    0    0  0.21313885900E+01 -0.14108196230E+01 -0.33396212437E+01  0.42055082192E+01  0.00000000000E+00 0.  1.
</event>
<event>
 7    1  0.2740409E-010  0.4778727E+02  0.7816164E-02  0.1312668E+00
        -11   -1    0    0    0    0  0.00000000000E+00  0.00000000000E+00  0.45593999997E+02  0.45594000000E+02  0.51100000000E-03 0. -1.
         11   -1    0    0    0    0 -0.00000000000E+00 -0.00000000000E+00 -0.45593999997E+02  0.45594000000E+02  0.51100000000E-03 0.  1.
    9900012    2    1    2    0    0 -0.15125999350E+02  0.32425722497E+02  0.24564202092E+02  0.47787270050E+02  0.19999995465E+02 0.  0.
        -12    1    1    2    0    0  0.15125999350E+02 -0.32425722497E+02 -0.24564202092E+02  0.43400729950E+02  0.00000000000E+00 0.  1.
         11    1    3    3    0    0 -0.82452639927E+01  0.66009436103E+01  0.13676159277E+02  0.17279877536E+02  0.51100000000E-03 0. -1.
        -11    1    3    3    0    0 -0.10410077044E+01  0.16647889620E+02  0.27110703734E+01  0.16899284857E+02  0.51100000000E-03 0.  1.
         12    1    3    3    0    0 -0.58397276532E+01  0.91768892664E+01  0.81769724416E+01  0.13608107656E+02  0.00000000000E+00 0. -1.
</event>
<event>
 7    1  0.2740409E-010  0.4778727E+02  0.7816164E-02  0.1312668E+00
        -11   -1    0    0    0    0  0.00000000000E+00  0.00000000000E+00  0.45593999997E+02  0.45594000000E+02  0.51100000000E-03 0. -1.
         11   -1    0    0    0    0 -0.00000000000E+00 -0.00000000000E+00 -0.45593999997E+02  0.45594000000E+02  0.51100000000E-03 0.  1.
    9900012    2    1    2    0    0  0.52523353404E+01  0.42180556355E+02  0.87656696599E+01  0.47787270450E+02  0.19999997288E+02 0.  0.
        -12    1    1    2    0    0 -0.52523353404E+01 -0.42180556355E+02 -0.87656696599E+01  0.43400729550E+02  0.00000000000E+00 0.  1.
         11    1    3    3    0    0 -0.12760686732E+01  0.32436568599E+02  0.12419251592E+02  0.34756253309E+02  0.51100000000E-03 0. -1.
        -11    1    3    3    0    0  0.15848116360E+01  0.25943879732E+01  0.96274986007E+00  0.31889440935E+01  0.51100000000E-03 0.  1.
         12    1    3    3    0    0  0.49435923776E+01  0.71495997826E+01 -0.46163317922E+01  0.98420730470E+01  0.00000000000E+00 0. -1.
</event>
<event>
 7    1  0.2740409E-010  0.4778727E+02  0.7816164E-02  0.1312668E+00
        -11   -1    0    0    0    0  0.00000000000E+00  0.00000000000E+00  0.45593999997E+02  0.45594000000E+02  0.51100000000E-03 0.  1.
         11   -1    0    0    0    0 -0.00000000000E+00 -0.00000000000E+00 -0.45593999997E+02  0.45594000000E+02  0.51100000000E-03 0. -1.
    9900012    2    1    2    0    0  0.21157600785E+02  0.33804250509E+02 -0.17124596497E+02  0.47787271566E+02  0.20000002376E+02 0.  0.
        -12    1    1    2    0    0 -0.21157600785E+02 -0.33804250509E+02  0.17124596497E+02  0.43400728434E+02  0.00000000000E+00 0.  1.
         11    1    3    3    0    0  0.58220657652E+01  0.39872506901E+01  0.24461134984E+01  0.74684730266E+01  0.51100000000E-03 0.  1.
        -11    1    3    3    0    0  0.20737861060E+01  0.12777298262E+02 -0.11346064499E+02  0.17213167041E+02  0.51100000000E-03 0. -1.
        -12    1    3    3    0    0  0.13261748914E+02  0.17039701557E+02 -0.82246454957E+01  0.23105631498E+02  0.00000000000E+00 0.  1.
</event>
<event>
 7    1  0.2740409E-010  0.4778727E+02  0.7816164E-02  0.1312668E+00
        -11   -1    0    0    0    0  0.00000000000E+00  0.00000000000E+00  0.45593999997E+02  0.45594000000E+02  0.51100000000E-03 0.  1.
         11   -1    0    0    0    0 -0.00000000000E+00 -0.00000000000E+00 -0.45593999997E+02  0.45594000000E+02  0.51100000000E-03 0. -1.
    9900012    2    1    2    0    0 -0.35088199713E+02 -0.23982102429E+02 -0.87920659184E+01  0.47787269371E+02  0.19999992370E+02 0.  0.
        -12    1    1    2    0    0  0.35088199713E+02  0.23982102429E+02  0.87920659184E+01  0.43400730629E+02  0.00000000000E+00 0.  1.
         11    1    3    3    0    0 -0.19578614047E+01 -0.24730848546E+01 -0.51366787200E+01  0.60278386269E+01  0.51100000000E-03 0. -1.
        -11    1    3    3    0    0 -0.86625812224E+01 -0.25555324441E+01  0.39982317631E+01  0.98770905129E+01  0.51100000000E-03 0.  1.
        -12    1    3    3    0    0 -0.24467757086E+02 -0.18953485131E+02 -0.76536189615E+01  0.31882340231E+02  0.00000000000E+00 0.  1.
</event>
<event>
 7    1  0.2740409E-010  0.4778727E+02  0.7816164E-02  0.1312668E+00
        -11   -1    0    0    0    0  0.00000000000E+00  0.00000000000E+00  0.45593999997E+02  0.45594000000E+02  0.51100000000E-03 0. -1.
         11   -1    0    0    0    0 -0.00000000000E+00 -0.00000000000E+00 -0.45593999997E+02  0.45594000000E+02  0.51100000000E-03 0.  1.
    9900012    2    1    2    0    0  0.19347749244E+02  0.35785887225E+02 -0.15121453430E+02  0.47787268680E+02  0.19999989219E+02 0.  0.
        -12    1    1    2    0    0 -0.19347749244E+02 -0.35785887225E+02  0.15121453430E+02  0.43400731320E+02  0.00000000000E+00 0.  1.
         11    1    3    3    0    0  0.15073127204E+02  0.21618118485E+02 -0.13330207782E+01  0.26387859996E+02  0.51100000000E-03 0. -1.
        -11    1    3    3    0    0 -0.28402139602E+00  0.39197119840E+01 -0.76813773508E+01  0.86283467975E+01  0.51100000000E-03 0.  1.
         12    1    3    3    0    0  0.45586434367E+01  0.10248056756E+02 -0.61070553010E+01  0.12771061886E+02  0.00000000000E+00 0. -1.
</event>
<event>
 7    1  0.2740409E-010  0.4778728E+02  0.7816164E-02  0.1312668E+00
        -11   -1    0    0    0    0  0.00000000000E+00  0.00000000000E+00  0.45593999997E+02  0.45594000000E+02  0.51100000000E-03 0. -1.
         11   -1    0    0    0    0 -0.00000000000E+00 -0.00000000000E+00 -0.45593999997E+02  0.45594000000E+02  0.51100000000E-03 0.  1.
    9900012    2    1    2    0    0  0.94042191833E+00 -0.20814967222E+02  0.38071972634E+02  0.47787281641E+02  0.20000048312E+02 0.  0.
        -12    1    1    2    0    0 -0.94042191833E+00  0.20814967222E+02 -0.38071972634E+02  0.43400718359E+02  0.00000000000E+00 0.  1.
         11    1    3    3    0    0 -0.71688851686E+00 -0.21957464172E+02  0.37735257064E+02  0.43664559862E+02  0.51100000000E-03 0. -1.
        -11    1    3    3    0    0 -0.90487793278E+00  0.53510799863E+00 -0.73190372923E+00  0.12809480760E+01  0.51100000000E-03 0.  1.
         12    1    3    3    0    0  0.25621883680E+01  0.60738895051E+00  0.10686192993E+01  0.28417737026E+01  0.00000000000E+00 0. -1.
</event>
<event>
 7    1  0.2740409E-010  0.4778726E+02  0.7816164E-02  0.1312668E+00
        -11   -1    0    0    0    0  0.00000000000E+00  0.00000000000E+00  0.45593999997E+02  0.45594000000E+02  0.51100000000E-03 0. -1.
         11   -1    0    0    0    0 -0.00000000000E+00 -0.00000000000E+00 -0.45593999997E+02  0.45594000000E+02  0.51100000000E-03 0.  1.
    9900012    2    1    2    0    0  0.38288009914E+01 -0.42693111188E+02 -0.68016922674E+01  0.47787257176E+02  0.19999936769E+02 0.  0.
        -12    1    1    2    0    0 -0.38288009914E+01  0.42693111188E+02  0.68016922674E+01  0.43400742824E+02  0.00000000000E+00 0.  1.
         11    1    3    3    0    0  0.98083644591E+00 -0.94890862623E+01  0.45802736094E+01  0.10582235342E+02  0.51100000000E-03 0. -1.
        -11    1    3    3    0    0  0.58949036282E+01 -0.21094428811E+02 -0.11456131371E+02  0.24717762073E+02  0.51100000000E-03 0.  1.
        -12    1    3    3    0    0 -0.30469390827E+01 -0.12109596114E+02  0.74165493865E-01  0.12487259761E+02  0.00000000000E+00 0.  1.
</event>
<event>
 7    1  0.2740409E-010  0.4778727E+02  0.7816164E-02  0.1312668E+00
        -11   -1    0    0    0    0  0.00000000000E+00  0.00000000000E+00  0.45593999997E+02  0.45594000000E+02  0.51100000000E-03 0.  1.
         11   -1    0    0    0    0 -0.00000000000E+00 -0.00000000000E+00 -0.45593999997E+02  0.45594000000E+02  0.51100000000E-03 0. -1.
    9900012    2    1    2    0    0  0.17902295010E+02 -0.14467463312E+02 -0.36794338210E+02  0.47787274365E+02  0.20000015140E+02 0.  0.
        -12    1    1    2    0    0 -0.17902295010E+02  0.14467463312E+02  0.36794338210E+02  0.43400725635E+02  0.00000000000E+00 0.  1.
         11    1    3    3    0    0  0.10235945838E+02 -0.14680856886E+02 -0.26292713753E+02  0.31805800459E+02  0.51100000000E-03 0. -1.
        -11    1    3    3    0    0 -0.37315244023E+00 -0.23538590574E+01  0.15442276073E+00  0.23882507942E+01  0.51100000000E-03 0.  1.
         12    1    3    3    0    0  0.80395016127E+01  0.25672526312E+01 -0.10656047218E+02  0.13593223112E+02  0.00000000000E+00 0. -1.
</event>
<event>
 7    1  0.2740409E-010  0.4778727E+02  0.7816164E-02  0.1312668E+00
        -11   -1    0    0    0    0  0.00000000000E+00  0.00000000000E+00  0.45593999997E+02  0.45594000000E+02  0.51100000000E-03 0.  1.
         11   -1    0    0    0    0 -0.00000000000E+00 -0.00000000000E+00 -0.45593999997E+02  0.45594000000E+02  0.51100000000E-03 0. -1.
    9900012    2    1    2    0    0 -0.36199168036E+02 -0.13594528272E+02 -0.19708684088E+02  0.47787271965E+02  0.20000004198E+02 0.  0.
        -12    1    1    2    0    0  0.36199168036E+02  0.13594528272E+02  0.19708684088E+02  0.43400728035E+02  0.00000000000E+00 0.  1.
         11    1    3    3    0    0 -0.24700190896E+02 -0.17376269473E+02 -0.11305706191E+02  0.32246754315E+02  0.51100000000E-03 0. -1.
        -11    1    3    3    0    0 -0.11238829550E+02  0.40487944972E+01 -0.64968560400E+01  0.13598278024E+02  0.51100000000E-03 0.  1.
         12    1    3    3    0    0 -0.26014759005E+00 -0.26705329605E+00 -0.19061218577E+01  0.19422396268E+01  0.00000000000E+00 0. -1.
</event>
<event>
 7    1  0.2740409E-010  0.4778727E+02  0.7816164E-02  0.1312668E+00
        -11   -1    0    0    0    0  0.00000000000E+00  0.00000000000E+00  0.45593999997E+02  0.45594000000E+02  0.51100000000E-03 0.  1.
         11   -1    0    0    0    0 -0.00000000000E+00 -0.00000000000E+00 -0.45593999997E+02  0.45594000000E+02  0.51100000000E-03 0. -1.
    9900012    2    1    2    0    0  0.16113186848E+02  0.36369198800E+02 -0.17357134027E+02  0.47787268285E+02  0.19999987420E+02 0.  0.
        -12    1    1    2    0    0 -0.16113186848E+02 -0.36369198800E+02  0.17357134027E+02  0.43400731715E+02  0.00000000000E+00 0.  1.
         11    1    3    3    0    0  0.10272036641E+02  0.82521694820E+01 -0.12982086412E+01  0.13240029602E+02  0.51100000000E-03 0. -1.
        -11    1    3    3    0    0  0.56440849649E+01  0.27121732394E+02 -0.11700619154E+02  0.30072388531E+02  0.51100000000E-03 0.  1.
        -12    1    3    3    0    0  0.19706524211E+00  0.99529692395E+00 -0.43583062315E+01  0.44748501521E+01  0.00000000000E+00 0.  1.
</event>
<event>
 7    1  0.2740409E-010  0.4778727E+02  0.7816164E-02  0.1312668E+00
        -11   -1    0    0    0    0  0.00000000000E+00  0.00000000000E+00  0.45593999997E+02  0.45594000000E+02  0.51100000000E-03 0.  1.
         11   -1    0    0    0    0 -0.00000000000E+00 -0.00000000000E+00 -0.45593999997E+02  0.45594000000E+02  0.51100000000E-03 0. -1.
    9900012    2    1    2    0    0  0.10584198234E+02 -0.19622462925E+02 -0.37236498062E+02  0.47787273146E+02  0.20000009581E+02 0.  0.
        -12    1    1    2    0    0 -0.10584198234E+02  0.19622462925E+02  0.37236498062E+02  0.43400726854E+02  0.00000000000E+00 0.  1.
         11    1    3    3    0    0  0.11323561851E+02 -0.59068496492E+01 -0.29183269447E+02  0.31855566887E+02  0.51100000000E-03 0.  1.
        -11    1    3    3    0    0 -0.30506153372E+00 -0.91783736401E+01 -0.55838431937E+01  0.10747786297E+02  0.51100000000E-03 0. -1.
        -12    1    3    3    0    0 -0.43430208326E+00 -0.45372396359E+01 -0.24693854214E+01  0.51839199620E+01  0.00000000000E+00 0.  1.
</event>
<event>
 7    1  0.2740409E-010  0.4778727E+02  0.7816164E-02  0.1312668E+00
        -11   -1    0    0    0    0  0.00000000000E+00  0.00000000000E+00  0.45593999997E+02  0.45594000000E+02  0.51100000000E-03 0.  1.
         11   -1    0    0    0    0 -0.00000000000E+00 -0.00000000000E+00 -0.45593999997E+02  0.45594000000E+02  0.51100000000E-03 0. -1.
    9900012    2    1    2    0    0  0.34690162805E+02 -0.24335276962E+02 -0.93813896994E+01  0.47787267599E+02  0.19999984290E+02 0.  0.
        -12    1    1    2    0    0 -0.34690162805E+02  0.24335276962E+02  0.93813896994E+01  0.43400732401E+02  0.00000000000E+00 0.  1.
         11    1    3    3    0    0  0.11896514129E+02 -0.73287762953E+01 -0.11565373114E+01  0.14020541688E+02  0.51100000000E-03 0. -1.
        -11    1    3    3    0    0  0.23415240768E+02 -0.19272441506E+02 -0.82052981179E+01  0.31416992525E+02  0.51100000000E-03 0.  1.
        -12    1    3    3    0    0 -0.62159209163E+00  0.22659408397E+01 -0.19554270103E-01  0.23497333863E+01  0.00000000000E+00 0.  1.
</event>
<event>
 7    1  0.2740409E-010  0.4778727E+02  0.7816164E-02  0.1312668E+00
        -11   -1    0    0    0    0  0.00000000000E+00  0.00000000000E+00  0.45593999997E+02  0.45594000000E+02  0.51100000000E-03 0.  1.
         11   -1    0    0    0    0 -0.00000000000E+00 -0.00000000000E+00 -0.45593999997E+02  0.45594000000E+02  0.51100000000E-03 0. -1.
    9900012    2    1    2    0    0 -0.55074997998E+01  0.35862662485E+02 -0.23815134591E+02  0.47787265557E+02  0.19999974981E+02 0.  0.
        -12    1    1    2    0    0  0.55074997998E+01 -0.35862662485E+02  0.23815134591E+02  0.43400734443E+02  0.00000000000E+00 0.  1.
         11    1    3    3    0    0 -0.71753489716E+01  0.18111273623E+02 -0.76691698527E+01  0.20936093991E+02  0.51100000000E-03 0.  1.
        -11    1    3    3    0    0  0.64741278188E+01  0.72536265995E+01 -0.91511129273E+01  0.13351864961E+02  0.51100000000E-03 0. -1.
         12    1    3    3    0    0 -0.48062786471E+01  0.10497762263E+02 -0.69948518111E+01  0.13499306605E+02  0.00000000000E+00 0. -1.
</event>
<event>
 7    1  0.2740409E-010  0.4778727E+02  0.7816164E-02  0.1312668E+00
        -11   -1    0    0    0    0  0.00000000000E+00  0.00000000000E+00  0.45593999997E+02  0.45594000000E+02  0.51100000000E-03 0.  1.
         11   -1    0    0    0    0 -0.00000000000E+00 -0.00000000000E+00 -0.45593999997E+02  0.45594000000E+02  0.51100000000E-03 0. -1.
    9900012    2    1    2    0    0  0.19612720271E+02  0.17856409445E+02 -0.34352773256E+02  0.47787272068E+02  0.20000004665E+02 0.  0.
        -12    1    1    2    0    0 -0.19612720271E+02 -0.17856409445E+02  0.34352773256E+02  0.43400727932E+02  0.00000000000E+00 0.  1.
         11    1    3    3    0    0  0.52207038383E+01  0.55051609607E+01 -0.74794523573E+01  0.10653860971E+02  0.51100000000E-03 0.  1.
        -11    1    3    3    0    0  0.17271641548E+02  0.11671330867E+02 -0.17223956370E+02  0.27040603530E+02  0.51100000000E-03 0. -1.
        -12    1    3    3    0    0 -0.28796251152E+01  0.67991761704E+00 -0.96493645281E+01  0.10092807566E+02  0.00000000000E+00 0.  1.
</event>
<event>
 7    1  0.2740409E-010  0.4778727E+02  0.7816164E-02  0.1312668E+00
        -11   -1    0    0    0    0  0.00000000000E+00  0.00000000000E+00  0.45593999997E+02  0.45594000000E+02  0.51100000000E-03 0.  1.
         11   -1    0    0    0    0 -0.00000000000E+00 -0.00000000000E+00 -0.45593999997E+02  0.45594000000E+02  0.51100000000E-03 0. -1.
    9900012    2    1    2    0    0  0.27775082073E+02  0.30168429559E+02 -0.14213857775E+02  0.47787273288E+02  0.20000010231E+02 0.  0.
        -12    1    1    2    0    0 -0.27775082073E+02 -0.30168429559E+02  0.14213857775E+02  0.43400726712E+02  0.00000000000E+00 0.  1.
         11    1    3    3    0    0  0.12409794159E+02  0.15446938877E+02 -0.41721822946E+01  0.20248901627E+02  0.51100000000E-03 0.  1.
        -11    1    3    3    0    0  0.12528729392E+02  0.99352068434E+01 -0.13551619707E+02  0.20960052294E+02  0.51100000000E-03 0. -1.
        -12    1    3    3    0    0  0.28365585219E+01  0.47862838388E+01  0.35099442264E+01  0.65783193679E+01  0.00000000000E+00 0.  1.
</event>
<event>
 7    1  0.2740409E-010  0.4778727E+02  0.7816164E-02  0.1312668E+00
        -11   -1    0    0    0    0  0.00000000000E+00  0.00000000000E+00  0.45593999997E+02  0.45594000000E+02  0.51100000000E-03 0.  1.
         11   -1    0    0    0    0 -0.00000000000E+00 -0.00000000000E+00 -0.45593999997E+02  0.45594000000E+02  0.51100000000E-03 0. -1.
    9900012    2    1    2    0    0 -0.38318838370E+02 -0.12218267872E+02 -0.16309632008E+02  0.47787267978E+02  0.19999986018E+02 0.  0.
        -12    1    1    2    0    0  0.38318838370E+02  0.12218267872E+02  0.16309632008E+02  0.43400732022E+02  0.00000000000E+00 0.  1.
         11    1    3    3    0    0 -0.54285740048E+01  0.34848583865E+01  0.10316159487E+01  0.65328313484E+01  0.51100000000E-03 0. -1.
        -11    1    3    3    0    0 -0.14082018309E+02 -0.72582630034E+01 -0.29589289977E+01  0.16116478602E+02  0.51100000000E-03 0.  1.
         12    1    3    3    0    0 -0.18808246057E+02 -0.84448632546E+01 -0.14382318959E+02  0.25137958027E+02  0.00000000000E+00 0. -1.
</event>
<event>
 7    1  0.2740409E-010  0.4778727E+02  0.7816164E-02  0.1312668E+00
        -11   -1    0    0    0    0  0.00000000000E+00  0.00000000000E+00  0.45593999997E+02  0.45594000000E+02  0.51100000000E-03 0.  1.
         11   -1    0    0    0    0 -0.00000000000E+00 -0.00000000000E+00 -0.45593999997E+02  0.45594000000E+02  0.51100000000E-03 0. -1.
    9900012    2    1    2    0    0 -0.43127623332E+01  0.40771904371E+01 -0.42993020288E+02  0.47787271961E+02  0.20000004180E+02 0.  0.
        -12    1    1    2    0    0  0.43127623332E+01 -0.40771904371E+01  0.42993020288E+02  0.43400728039E+02  0.00000000000E+00 0.  1.
         11    1    3    3    0    0  0.49646953838E+00  0.12889065144E+01 -0.47883573944E+01  0.49835859382E+01  0.51100000000E-03 0. -1.
        -11    1    3    3    0    0 -0.32579723280E+01  0.22513557861E+01  0.56413137499E+00  0.40001538764E+01  0.51100000000E-03 0.  1.
        -12    1    3    3    0    0 -0.15512595435E+01  0.53692813655E+00 -0.38768794269E+02  0.38803532147E+02  0.00000000000E+00 0.  1.
</event>
<event>
 7    1  0.2740409E-010  0.4778727E+02  0.7816164E-02  0.1312668E+00
        -11   -1    0    0    0    0  0.00000000000E+00  0.00000000000E+00  0.45593999997E+02  0.45594000000E+02  0.51100000000E-03 0.  1.
         11   -1    0    0    0    0 -0.00000000000E+00 -0.00000000000E+00 -0.45593999997E+02  0.45594000000E+02  0.51100000000E-03 0. -1.
    9900012    2    1    2    0    0 -0.29438685118E+02  0.31490166461E+02 -0.50355245755E+01  0.47787271055E+02  0.20000000046E+02 0.  0.
        -12    1    1    2    0    0  0.29438685118E+02 -0.31490166461E+02  0.50355245755E+01  0.43400728945E+02  0.00000000000E+00 0.  1.
         11    1    3    3    0    0 -0.61968588507E+01  0.14010995979E+02 -0.39326617853E+01  0.15816918060E+02  0.51100000000E-03 0. -1.
        -11    1    3    3    0    0 -0.17581296187E+02  0.11149236220E+02  0.51245798286E+01  0.21439887187E+02  0.51100000000E-03 0.  1.
        -12    1    3    3    0    0 -0.56605300800E+01  0.63299342625E+01 -0.62274426188E+01  0.10530465808E+02  0.00000000000E+00 0.  1.
</event>
<event>
 7    1  0.2740409E-010  0.4778727E+02  0.7816164E-02  0.1312668E+00
        -11   -1    0    0    0    0  0.00000000000E+00  0.00000000000E+00  0.45593999997E+02  0.45594000000E+02  0.51100000000E-03 0.  1.
         11   -1    0    0    0    0 -0.00000000000E+00 -0.00000000000E+00 -0.45593999997E+02  0.45594000000E+02  0.51100000000E-03 0. -1.
    9900012    2    1    2    0    0 -0.14747910977E+02 -0.23337103722E+02 -0.33488838243E+02  0.47787267573E+02  0.19999984173E+02 0.  0.
        -12    1    1    2    0    0  0.14747910977E+02  0.23337103722E+02  0.33488838243E+02  0.43400732427E+02  0.00000000000E+00 0.  1.
         11    1    3    3    0    0 -0.13124704228E+02 -0.22359342609E+02 -0.24486088381E+02  0.35661836568E+02  0.51100000000E-03 0. -1.
        -11    1    3    3    0    0 -0.26724299731E+01  0.55603382726E+00  0.19995062954E+00  0.27369757203E+01  0.51100000000E-03 0.  1.
         12    1    3    3    0    0  0.10492232238E+01 -0.15337949405E+01 -0.92027004916E+01  0.93884552846E+01  0.00000000000E+00 0. -1.
</event>
<event>
 7    1  0.2740409E-010  0.4778726E+02  0.7816164E-02  0.1312668E+00
        -11   -1    0    0    0    0  0.00000000000E+00  0.00000000000E+00  0.45593999997E+02  0.45594000000E+02  0.51100000000E-03 0.  1.
         11   -1    0    0    0    0 -0.00000000000E+00 -0.00000000000E+00 -0.45593999997E+02  0.45594000000E+02  0.51100000000E-03 0. -1.
    9900012    2    1    2    0    0  0.58829045838E+01  0.19583451911E+02 -0.38281902508E+02  0.47787260205E+02  0.19999950579E+02 0.  0.
        -12    1    1    2    0    0 -0.58829045838E+01 -0.19583451911E+02  0.38281902508E+02  0.43400739795E+02  0.00000000000E+00 0.  1.
         11    1    3    3    0    0  0.18716841730E+01  0.22909706648E+01  0.13721204867E+01  0.32610524561E+01  0.51100000000E-03 0.  1.
        -11    1    3    3    0    0 -0.26334300485E+01  0.88823753002E+01 -0.22030960662E+02  0.23899681436E+02  0.51100000000E-03 0. -1.
         12    1    3    3    0    0  0.66446504594E+01  0.84101059458E+01 -0.17623062333E+02  0.20626526313E+02  0.00000000000E+00 0. -1.
</event>
<event>
 7    1  0.2740409E-010  0.4778726E+02  0.7816164E-02  0.1312668E+00
        -11   -1    0    0    0    0  0.00000000000E+00  0.00000000000E+00  0.45593999997E+02  0.45594000000E+02  0.51100000000E-03 0. -1.
         11   -1    0    0    0    0 -0.00000000000E+00 -0.00000000000E+00 -0.45593999997E+02  0.45594000000E+02  0.51100000000E-03 0.  1.
    9900012    2    1    2    0    0  0.23651464665E+01  0.15909617318E+02  0.40310223414E+02  0.47787263224E+02  0.19999964345E+02 0.  0.
        -12    1    1    2    0    0 -0.23651464665E+01 -0.15909617318E+02 -0.40310223414E+02  0.43400736776E+02  0.00000000000E+00 0.  1.
         11    1    3    3    0    0  0.81656357131E+01  0.14565429027E+01  0.21652171676E+02  0.23186540543E+02  0.51100000000E-03 0. -1.
        -11    1    3    3    0    0 -0.32805300132E+01  0.12174791451E+02  0.15266963490E+02  0.19800696919E+02  0.51100000000E-03 0.  1.
         12    1    3    3    0    0 -0.25199592335E+01  0.22782829643E+01  0.33910882485E+01  0.48000257617E+01  0.00000000000E+00 0. -1.
</event>
<event>
 7    1  0.2740409E-010  0.4778726E+02  0.7816164E-02  0.1312668E+00
        -11   -1    0    0    0    0  0.00000000000E+00  0.00000000000E+00  0.45593999997E+02  0.45594000000E+02  0.51100000000E-03 0.  1.
         11   -1    0    0    0    0 -0.00000000000E+00 -0.00000000000E+00 -0.45593999997E+02  0.45594000000E+02  0.51100000000E-03 0. -1.
    9900012    2    1    2    0    0  0.23534334952E+02  0.29728062594E+02 -0.21118745699E+02  0.47787262136E+02  0.19999959385E+02 0.  0.
        -12    1    1    2    0    0 -0.23534334952E+02 -0.29728062594E+02  0.21118745699E+02  0.43400737864E+02  0.00000000000E+00 0.  1.
         11    1    3    3    0    0  0.11771257662E+02  0.12357394695E+02 -0.67307924851E+01  0.18345879056E+02  0.51100000000E-03 0. -1.
        -11    1    3    3    0    0 -0.20386893584E+01  0.83981830748E+01 -0.80220570772E+01  0.11791485626E+02  0.51100000000E-03 0.  1.
         12    1    3    3    0    0  0.13801766649E+02  0.89724848234E+01 -0.63658961369E+01  0.17649897454E+02  0.00000000000E+00 0. -1.
</event>
<event>
 7    1  0.2740409E-010  0.4778727E+02  0.7816164E-02  0.1312668E+00
        -11   -1    0    0    0    0  0.00000000000E+00  0.00000000000E+00  0.45593999997E+02  0.45594000000E+02  0.51100000000E-03 0. -1.
         11   -1    0    0    0    0 -0.00000000000E+00 -0.00000000000E+00 -0.45593999997E+02  0.45594000000E+02  0.51100000000E-03 0.  1.
    9900012    2    1    2    0    0 -0.32137261275E+02 -0.27651220057E+02  0.92860049671E+01  0.47787269348E+02  0.19999992264E+02 0.  0.
        -12    1    1    2    0    0  0.32137261275E+02  0.27651220057E+02 -0.92860049671E+01  0.43400730652E+02  0.00000000000E+00 0.  1.
         11    1    3    3    0    0 -0.15554613365E+02 -0.11964922725E+02 -0.21564999342E+01  0.19742235562E+02  0.51100000000E-03 0. -1.
        -11    1    3    3    0    0 -0.27954136814E+01  0.37384225361E+00  0.53028266308E+01  0.60061690135E+01  0.51100000000E-03 0.  1.
         12    1    3    3    0    0 -0.13787234228E+02 -0.16060139586E+02  0.61396782706E+01  0.22038864772E+02  0.00000000000E+00 0. -1.
</event>
<event>
 7    1  0.2740409E-010  0.4778727E+02  0.7816164E-02  0.1312668E+00
        -11   -1    0    0    0    0  0.00000000000E+00  0.00000000000E+00  0.45593999997E+02  0.45594000000E+02  0.51100000000E-03 0.  1.
         11   -1    0    0    0    0 -0.00000000000E+00 -0.00000000000E+00 -0.45593999997E+02  0.45594000000E+02  0.51100000000E-03 0. -1.
    9900012    2    1    2    0    0  0.29960964206E+02  0.27385310114E+02  0.15362571971E+02  0.47787271852E+02  0.20000003682E+02 0.  0.
        -12    1    1    2    0    0 -0.29960964206E+02 -0.27385310114E+02 -0.15362571971E+02  0.43400728148E+02  0.00000000000E+00 0.  1.
         11    1    3    3    0    0  0.63558473528E+01  0.30473120001E+01 -0.36235108693E+01  0.79254487115E+01  0.51100000000E-03 0. -1.
        -11    1    3    3    0    0  0.57469521358E+01  0.82838856757E+01  0.10060936175E+02  0.14243337309E+02  0.51100000000E-03 0.  1.
         12    1    3    3    0    0  0.17858164718E+02  0.16054112438E+02  0.89251466656E+01  0.25618485831E+02  0.00000000000E+00 0. -1.
</event>
<event>
 7    1  0.2740409E-010  0.4778727E+02  0.7816164E-02  0.1312668E+00
        -11   -1    0    0    0    0  0.00000000000E+00  0.00000000000E+00  0.45593999997E+02  0.45594000000E+02  0.51100000000E-03 0. -1.
         11   -1    0    0    0    0 -0.00000000000E+00 -0.00000000000E+00 -0.45593999997E+02  0.45594000000E+02  0.51100000000E-03 0.  1.
    9900012    2    1    2    0    0 -0.33898923985E+02  0.31910979322E+01  0.26912878735E+02  0.47787271951E+02  0.20000004135E+02 0.  0.
        -12    1    1    2    0    0  0.33898923985E+02 -0.31910979322E+01 -0.26912878735E+02  0.43400728049E+02  0.00000000000E+00 0.  1.
         11    1    3    3    0    0 -0.16595277522E+02  0.76480076597E+01  0.16421924857E+02  0.24567760856E+02  0.51100000000E-03 0. -1.
        -11    1    3    3    0    0 -0.18320582840E+02 -0.36910816824E+01  0.78164118195E+01  0.20257446374E+02  0.51100000000E-03 0.  1.
        -12    1    3    3    0    0  0.10169363776E+01 -0.76582804513E+00  0.26745420589E+01  0.29620647217E+01  0.00000000000E+00 0.  1.
</event>
<event>
 7    1  0.2740409E-010  0.4778727E+02  0.7816164E-02  0.1312668E+00
        -11   -1    0    0    0    0  0.00000000000E+00  0.00000000000E+00  0.45593999997E+02  0.45594000000E+02  0.51100000000E-03 0.  1.
         11   -1    0    0    0    0 -0.00000000000E+00 -0.00000000000E+00 -0.45593999997E+02  0.45594000000E+02  0.51100000000E-03 0. -1.
    9900012    2    1    2    0    0 -0.32292108612E+01  0.12499033817E+02 -0.41436329669E+02  0.47787273444E+02  0.20000010942E+02 0.  0.
        -12    1    1    2    0    0  0.32292108612E+01 -0.12499033817E+02  0.41436329669E+02  0.43400726556E+02  0.00000000000E+00 0.  1.
         11    1    3    3    0    0 -0.39356366727E+01  0.13771998674E+02 -0.13675797263E+02  0.19803651545E+02  0.51100000000E-03 0. -1.
        -11    1    3    3    0    0  0.30069085931E+00 -0.23512406405E+01 -0.19294362838E+02  0.19439423477E+02  0.51100000000E-03 0.  1.
         12    1    3    3    0    0  0.40573495212E+00  0.10782757839E+01 -0.84661695682E+01  0.85441984221E+01  0.00000000000E+00 0. -1.
</event>
<event>
 7    1  0.2740409E-010  0.4778727E+02  0.7816164E-02  0.1312668E+00
        -11   -1    0    0    0    0  0.00000000000E+00  0.00000000000E+00  0.45593999997E+02  0.45594000000E+02  0.51100000000E-03 0.  1.
         11   -1    0    0    0    0 -0.00000000000E+00 -0.00000000000E+00 -0.45593999997E+02  0.45594000000E+02  0.51100000000E-03 0. -1.
    9900012    2    1    2    0    0  0.39215269285E+02  0.11906132961E+02 -0.14283903311E+02  0.47787271423E+02  0.20000001728E+02 0.  0.
        -12    1    1    2    0    0 -0.39215269285E+02 -0.11906132961E+02  0.14283903311E+02  0.43400728577E+02  0.00000000000E+00 0.  1.
         11    1    3    3    0    0  0.10659268301E+02  0.21614912586E+01 -0.59060146430E+01  0.12376310210E+02  0.51100000000E-03 0. -1.
        -11    1    3    3    0    0  0.22362783262E+02  0.10735098942E+01 -0.92525591245E+00  0.22407645961E+02  0.51100000000E-03 0.  1.
        -12    1    3    3    0    0  0.61932177211E+01  0.86711318078E+01 -0.74526327560E+01  0.13003315253E+02  0.00000000000E+00 0.  1.
</event>
<event>
 7    1  0.2740409E-010  0.4778727E+02  0.7816164E-02  0.1312668E+00
        -11   -1    0    0    0    0  0.00000000000E+00  0.00000000000E+00  0.45593999997E+02  0.45594000000E+02  0.51100000000E-03 0.  1.
         11   -1    0    0    0    0 -0.00000000000E+00 -0.00000000000E+00 -0.45593999997E+02  0.45594000000E+02  0.51100000000E-03 0. -1.
    9900012    2    1    2    0    0  0.22636693480E+02  0.26555097045E+01 -0.36934420286E+02  0.47787273908E+02  0.20000013054E+02 0.  0.
        -12    1    1    2    0    0 -0.22636693480E+02 -0.26555097045E+01  0.36934420286E+02  0.43400726092E+02  0.00000000000E+00 0.  1.
         11    1    3    3    0    0  0.83602618958E+01 -0.30110884894E+01 -0.29310467403E+02  0.30627832644E+02  0.51100000000E-03 0. -1.
        -11    1    3    3    0    0  0.74628166693E+01  0.30525173378E+01 -0.36640323565E+01  0.88564455686E+01  0.51100000000E-03 0.  1.
         12    1    3    3    0    0  0.68136149150E+01  0.26140808561E+01 -0.39599205264E+01  0.83029956948E+01  0.00000000000E+00 0. -1.
</event>
<event>
 7    1  0.2740409E-010  0.4778731E+02  0.7816164E-02  0.1312668E+00
        -11   -1    0    0    0    0  0.00000000000E+00  0.00000000000E+00  0.45593999997E+02  0.45594000000E+02  0.51100000000E-03 0.  1.
         11   -1    0    0    0    0 -0.00000000000E+00 -0.00000000000E+00 -0.45593999997E+02  0.45594000000E+02  0.51100000000E-03 0. -1.
    9900012    2    1    2    0    0 -0.70812912023E+01 -0.17202802885E+02 -0.39211465755E+02  0.47787306931E+02  0.20000163621E+02 0.  0.
        -12    1    1    2    0    0  0.70812912023E+01  0.17202802885E+02  0.39211465755E+02  0.43400693069E+02  0.00000000000E+00 0.  1.
         11    1    3    3    0    0 -0.11102092413E+01  0.12920457641E+01 -0.15555091454E+02  0.15648093086E+02  0.51100000000E-03 0. -1.
        -11    1    3    3    0    0 -0.11081591179E+01 -0.42080694008E+01 -0.33988740424E+00  0.43647896194E+01  0.51100000000E-03 0.  1.
         12    1    3    3    0    0 -0.48629228431E+01 -0.14286779248E+02 -0.23316486897E+02  0.27774424226E+02  0.00000000000E+00 0. -1.
</event>
<event>
 7    1  0.2740409E-010  0.4778727E+02  0.7816164E-02  0.1312668E+00
        -11   -1    0    0    0    0  0.00000000000E+00  0.00000000000E+00  0.45593999997E+02  0.45594000000E+02  0.51100000000E-03 0.  1.
         11   -1    0    0    0    0 -0.00000000000E+00 -0.00000000000E+00 -0.45593999997E+02  0.45594000000E+02  0.51100000000E-03 0. -1.
    9900012    2    1    2    0    0 -0.18778477041E+02 -0.36944930722E+01 -0.38953082102E+02  0.47787273229E+02  0.20000009959E+02 0.  0.
        -12    1    1    2    0    0  0.18778477041E+02  0.36944930722E+01  0.38953082102E+02  0.43400726771E+02  0.00000000000E+00 0.  1.
         11    1    3    3    0    0 -0.30677388937E+01 -0.25386226029E+01 -0.64319185564E+01  0.75647341802E+01  0.51100000000E-03 0. -1.
        -11    1    3    3    0    0 -0.69444358136E+01 -0.68024808931E+01 -0.52988480197E+01  0.11071437380E+02  0.51100000000E-03 0.  1.
        -12    1    3    3    0    0 -0.87663023339E+01  0.56466104238E+01 -0.27222315526E+02  0.29151101668E+02  0.00000000000E+00 0.  1.
</event>
<event>
 7    1  0.2740409E-010  0.4778727E+02  0.7816164E-02  0.1312668E+00
        -11   -1    0    0    0    0  0.00000000000E+00  0.00000000000E+00  0.45593999997E+02  0.45594000000E+02  0.51100000000E-03 0.  1.
         11   -1    0    0    0    0 -0.00000000000E+00 -0.00000000000E+00 -0.45593999997E+02  0.45594000000E+02  0.51100000000E-03 0. -1.
    9900012    2    1    2    0    0 -0.19531783030E+02 -0.33562618288E+02 -0.19382563576E+02  0.47787266534E+02  0.19999979433E+02 0.  0.
        -12    1    1    2    0    0  0.19531783030E+02  0.33562618288E+02  0.19382563576E+02  0.43400733466E+02  0.00000000000E+00 0.  1.
         11    1    3    3    0    0 -0.17104753595E+00 -0.34062227720E+01 -0.27051194700E+01  0.43530773529E+01  0.51100000000E-03 0. -1.
        -11    1    3    3    0    0 -0.12518083155E+02 -0.58936739209E+01 -0.10791749643E+02  0.17547069806E+02  0.51100000000E-03 0.  1.
        -12    1    3    3    0    0 -0.68426523395E+01 -0.24262721595E+02 -0.58856944627E+01  0.25887119375E+02  0.00000000000E+00 0.  1.
</event>
<event>
 7    1  0.2740409E-010  0.4778732E+02  0.7816164E-02  0.1312668E+00
        -11   -1    0    0    0    0  0.00000000000E+00  0.00000000000E+00  0.45593999997E+02  0.45594000000E+02  0.51100000000E-03 0. -1.
         11   -1    0    0    0    0 -0.00000000000E+00 -0.00000000000E+00 -0.45593999997E+02  0.45594000000E+02  0.51100000000E-03 0.  1.
    9900012    2    1    2    0    0  0.35578345072E+02 -0.13965118917E+02 -0.20561519047E+02  0.47787317402E+02  0.20000211364E+02 0.  0.
        -12    1    1    2    0    0 -0.35578345072E+02  0.13965118917E+02  0.20561519047E+02  0.43400682598E+02  0.00000000000E+00 0.  1.
         11    1    3    3    0    0  0.19901889965E+02 -0.61278040975E+00 -0.16369020698E+02  0.25776065698E+02  0.51100000000E-03 0.  1.
        -11    1    3    3    0    0  0.22149599417E+01 -0.56580673105E+01 -0.68918802633E+00  0.61151249889E+01  0.51100000000E-03 0. -1.
         12    1    3    3    0    0  0.13461495165E+02 -0.76942711964E+01 -0.35033103225E+01  0.15896126715E+02  0.00000000000E+00 0. -1.
</event>
<event>
 7    1  0.2740409E-010  0.4778727E+02  0.7816164E-02  0.1312668E+00
        -11   -1    0    0    0    0  0.00000000000E+00  0.00000000000E+00  0.45593999997E+02  0.45594000000E+02  0.51100000000E-03 0.  1.
         11   -1    0    0    0    0 -0.00000000000E+00 -0.00000000000E+00 -0.45593999997E+02  0.45594000000E+02  0.51100000000E-03 0. -1.
    9900012    2    1    2    0    0  0.16924445574E+02  0.18805368136E+02 -0.35263926486E+02  0.47787271436E+02  0.20000001783E+02 0.  0.
        -12    1    1    2    0    0 -0.16924445574E+02 -0.18805368136E+02  0.35263926486E+02  0.43400728564E+02  0.00000000000E+00 0.  1.
         11    1    3    3    0    0  0.34431272114E-01  0.13120180188E+02 -0.13801415636E+02  0.19042567776E+02  0.51100000000E-03 0. -1.
        -11    1    3    3    0    0  0.60835332243E+01 -0.64670119241E+00 -0.42151082702E+01  0.74293160462E+01  0.51100000000E-03 0.  1.
         12    1    3    3    0    0  0.10806481078E+02  0.63318891404E+01 -0.17247402580E+02  0.21315387614E+02  0.00000000000E+00 0. -1.
</event>
<event>
 7    1  0.2740409E-010  0.4778727E+02  0.7816164E-02  0.1312668E+00
        -11   -1    0    0    0    0  0.00000000000E+00  0.00000000000E+00  0.45593999997E+02  0.45594000000E+02  0.51100000000E-03 0.  1.
         11   -1    0    0    0    0 -0.00000000000E+00 -0.00000000000E+00 -0.45593999997E+02  0.45594000000E+02  0.51100000000E-03 0. -1.
    9900012    2    1    2    0    0  0.27238801938E+02 -0.78555765135E+01 -0.32862755064E+02  0.47787273234E+02  0.20000009985E+02 0.  0.
        -12    1    1    2    0    0 -0.27238801938E+02  0.78555765135E+01  0.32862755064E+02  0.43400726766E+02  0.00000000000E+00 0.  1.
         11    1    3    3    0    0  0.21816379172E+02 -0.67324765640E+01 -0.27834069380E+02  0.36000223046E+02  0.51100000000E-03 0. -1.
        -11    1    3    3    0    0 -0.83041362588E+00  0.28892819960E+01 -0.39770442406E+00  0.30324423016E+01  0.51100000000E-03 0.  1.
        -12    1    3    3    0    0  0.62528363917E+01 -0.40123819454E+01 -0.46309812600E+01  0.87546078866E+01  0.00000000000E+00 0.  1.
</event>
<event>
 7    1  0.2740409E-010  0.4778728E+02  0.7816164E-02  0.1312668E+00
        -11   -1    0    0    0    0  0.00000000000E+00  0.00000000000E+00  0.45593999997E+02  0.45594000000E+02  0.51100000000E-03 0. -1.
         11   -1    0    0    0    0 -0.00000000000E+00 -0.00000000000E+00 -0.45593999997E+02  0.45594000000E+02  0.51100000000E-03 0.  1.
    9900012    2    1    2    0    0 -0.18700039112E+02 -0.33608257194E+02  0.20110100263E+02  0.47787279418E+02  0.20000038178E+02 0.  0.
        -12    1    1    2    0    0  0.18700039112E+02  0.33608257194E+02 -0.20110100263E+02  0.43400720582E+02  0.00000000000E+00 0.  1.
         11    1    3    3    0    0 -0.10563084235E+02 -0.30071866031E+02  0.98865480483E+01  0.33371240728E+02  0.51100000000E-03 0. -1.
        -11    1    3    3    0    0 -0.83639246705E+01 -0.23736491944E+01  0.76410095677E+01  0.11574734289E+02  0.51100000000E-03 0.  1.
        -12    1    3    3    0    0  0.22696979338E+00 -0.11627419690E+01  0.25825426474E+01  0.28413044010E+01  0.00000000000E+00 0.  1.
</event>
<event>
 7    1  0.2740409E-010  0.4778727E+02  0.7816164E-02  0.1312668E+00
        -11   -1    0    0    0    0  0.00000000000E+00  0.00000000000E+00  0.45593999997E+02  0.45594000000E+02  0.51100000000E-03 0.  1.
         11   -1    0    0    0    0 -0.00000000000E+00 -0.00000000000E+00 -0.45593999997E+02  0.45594000000E+02  0.51100000000E-03 0. -1.
    9900012    2    1    2    0    0 -0.11710225440E+02 -0.12784011272E+02 -0.39787723382E+02  0.47787271251E+02  0.20000000942E+02 0.  0.
        -12    1    1    2    0    0  0.11710225440E+02  0.12784011272E+02  0.39787723382E+02  0.43400728749E+02  0.00000000000E+00 0.  1.
         11    1    3    3    0    0  0.36663020370E+01 -0.42258036664E+01 -0.15000927520E+02  0.16010215926E+02  0.51100000000E-03 0. -1.
        -11    1    3    3    0    0 -0.90393429332E+01 -0.93672302991E+01 -0.13159213339E+02  0.18509987037E+02  0.51100000000E-03 0.  1.
        -12    1    3    3    0    0 -0.63371845435E+01  0.80902269387E+00 -0.11627582523E+02  0.13267068289E+02  0.00000000000E+00 0.  1.
</event>
<event>
 7    1  0.2740409E-010  0.4778727E+02  0.7816164E-02  0.1312668E+00
        -11   -1    0    0    0    0  0.00000000000E+00  0.00000000000E+00  0.45593999997E+02  0.45594000000E+02  0.51100000000E-03 0.  1.
         11   -1    0    0    0    0 -0.00000000000E+00 -0.00000000000E+00 -0.45593999997E+02  0.45594000000E+02  0.51100000000E-03 0. -1.
    9900012    2    1    2    0    0  0.30607125446E+02  0.30252309864E+02 -0.56235865320E+01  0.47787272982E+02  0.20000008835E+02 0.  0.
        -12    1    1    2    0    0 -0.30607125446E+02 -0.30252309864E+02  0.56235865320E+01  0.43400727018E+02  0.00000000000E+00 0.  1.
         11    1    3    3    0    0  0.68387066318E+01  0.70448638622E+01  0.55139107852E+01  0.11260605119E+02  0.51100000000E-03 0. -1.
        -11    1    3    3    0    0  0.10593454981E+02  0.92255756682E+01  0.51641414311E+00  0.14056998921E+02  0.51100000000E-03 0.  1.
         12    1    3    3    0    0  0.13174963833E+02  0.13981870334E+02 -0.11653911460E+02  0.22469668942E+02  0.00000000000E+00 0. -1.
</event>
<event>
 7    1  0.2740409E-010  0.4778727E+02  0.7816164E-02  0.1312668E+00
        -11   -1    0    0    0    0  0.00000000000E+00  0.00000000000E+00  0.45593999997E+02  0.45594000000E+02  0.51100000000E-03 0.  1.
         11   -1    0    0    0    0 -0.00000000000E+00 -0.00000000000E+00 -0.45593999997E+02  0.45594000000E+02  0.51100000000E-03 0. -1.
    9900012    2    1    2    0    0 -0.90640174126E+00  0.96548966250E+01 -0.42303482943E+02  0.47787271181E+02  0.20000000621E+02 0.  0.
        -12    1    1    2    0    0  0.90640174126E+00 -0.96548966250E+01  0.42303482943E+02  0.43400728819E+02  0.00000000000E+00 0.  1.
         11    1    3    3    0    0 -0.61122147354E+01 -0.24192809799E+01 -0.12378093015E+02  0.14015322913E+02  0.51100000000E-03 0. -1.
        -11    1    3    3    0    0 -0.17518100684E+00 -0.40074389612E+00 -0.77728710899E+01  0.77851659775E+01  0.51100000000E-03 0.  1.
         12    1    3    3    0    0  0.53809940010E+01  0.12474921501E+02 -0.22152518838E+02  0.25986782290E+02  0.00000000000E+00 0. -1.
</event>
<event>
 7    1  0.2740409E-010  0.4778727E+02  0.7816164E-02  0.1312668E+00
        -11   -1    0    0    0    0  0.00000000000E+00  0.00000000000E+00  0.45593999997E+02  0.45594000000E+02  0.51100000000E-03 0. -1.
         11   -1    0    0    0    0 -0.00000000000E+00 -0.00000000000E+00 -0.45593999997E+02  0.45594000000E+02  0.51100000000E-03 0.  1.
    9900012    2    1    2    0    0 -0.27399601540E+02 -0.61696580240E+01  0.33088075371E+02  0.47787267559E+02  0.19999984109E+02 0.  0.
        -12    1    1    2    0    0  0.27399601540E+02  0.61696580240E+01 -0.33088075371E+02  0.43400732441E+02  0.00000000000E+00 0.  1.
         11    1    3    3    0    0 -0.17196834509E+02 -0.76980423790E+01  0.31450752348E+02  0.36662525787E+02  0.51100000000E-03 0. -1.
        -11    1    3    3    0    0 -0.27455984530E+01 -0.38834680425E+00 -0.10567431445E+01  0.29674619526E+01  0.51100000000E-03 0.  1.
         12    1    3    3    0    0 -0.74571685780E+01  0.19167311592E+01  0.26940661678E+01  0.81572798195E+01  0.00000000000E+00 0. -1.
</event>
<event>
 7    1  0.2740409E-010  0.4778725E+02  0.7816164E-02  0.1312668E+00
        -11   -1    0    0    0    0  0.00000000000E+00  0.00000000000E+00  0.45593999997E+02  0.45594000000E+02  0.51100000000E-03 0.  1.
         11   -1    0    0    0    0 -0.00000000000E+00 -0.00000000000E+00 -0.45593999997E+02  0.45594000000E+02  0.51100000000E-03 0. -1.
    9900012    2    1    2    0    0  0.41808820106E+02  0.11238504481E+02 -0.30567715465E+01  0.47787248003E+02  0.19999894945E+02 0.  0.
        -12    1    1    2    0    0 -0.41808820106E+02 -0.11238504481E+02  0.30567715465E+01  0.43400751997E+02  0.00000000000E+00 0.  1.
         11    1    3    3    0    0  0.27787151547E+02  0.13186116178E+01  0.30048697984E+00  0.27820043501E+02  0.51100000000E-03 0. -1.
        -11    1    3    3    0    0  0.47652059088E+01 -0.11500868314E+01 -0.25226191252E+01  0.55130295288E+01  0.51100000000E-03 0.  1.
         12    1    3    3    0    0  0.92564626501E+01  0.11069979695E+02 -0.83463940116E+00  0.14454174974E+02  0.00000000000E+00 0. -1.
</event>
<event>
 7    1  0.2740409E-010  0.4778728E+02  0.7816164E-02  0.1312668E+00
        -11   -1    0    0    0    0  0.00000000000E+00  0.00000000000E+00  0.45593999997E+02  0.45594000000E+02  0.51100000000E-03 0.  1.
         11   -1    0    0    0    0 -0.00000000000E+00 -0.00000000000E+00 -0.45593999997E+02  0.45594000000E+02  0.51100000000E-03 0. -1.
    9900012    2    1    2    0    0 -0.25565563829E+02 -0.11489614245E+02 -0.33136288461E+02  0.47787275324E+02  0.20000019514E+02 0.  0.
        -12    1    1    2    0    0  0.25565563829E+02  0.11489614245E+02  0.33136288461E+02  0.43400724676E+02  0.00000000000E+00 0.  1.
         11    1    3    3    0    0 -0.20434219016E+02 -0.94557330885E+01 -0.34322555729E+02  0.41048824916E+02  0.51100000000E-03 0. -1.
        -11    1    3    3    0    0 -0.10424190536E+01  0.95965350197E+00  0.86634896207E+00  0.16607628104E+01  0.51100000000E-03 0.  1.
         12    1    3    3    0    0 -0.40889257596E+01 -0.29935346582E+01  0.31991830530E+00  0.50776875977E+01  0.00000000000E+00 0. -1.
</event>
<event>
 7    1  0.2740409E-010  0.4778727E+02  0.7816164E-02  0.1312668E+00
        -11   -1    0    0    0    0  0.00000000000E+00  0.00000000000E+00  0.45593999997E+02  0.45594000000E+02  0.51100000000E-03 0.  1.
         11   -1    0    0    0    0 -0.00000000000E+00 -0.00000000000E+00 -0.45593999997E+02  0.45594000000E+02  0.51100000000E-03 0. -1.
    9900012    2    1    2    0    0 -0.27923643592E+02 -0.33215016420E+02 -0.80979750660E+00  0.47787274670E+02  0.20000016529E+02 0.  0.
        -12    1    1    2    0    0  0.27923643592E+02  0.33215016420E+02  0.80979750660E+00  0.43400725330E+02  0.00000000000E+00 0.  1.
         11    1    3    3    0    0 -0.11576296672E+02 -0.98338185984E+01 -0.83205788094E+01  0.17318968354E+02  0.51100000000E-03 0. -1.
        -11    1    3    3    0    0 -0.75851146443E+01 -0.16925400656E+02  0.35348973403E+01  0.18881171865E+02  0.51100000000E-03 0.  1.
        -12    1    3    3    0    0 -0.87622322754E+01 -0.64557971653E+01  0.39758839626E+01  0.11587134450E+02  0.00000000000E+00 0.  1.
</event>
<event>
 7    1  0.2895184E-010  0.4778726E+02  0.7816164E-02  0.1312668E+00
        -11   -1    0    0    0    0  0.00000000000E+00  0.00000000000E+00  0.45593999997E+02  0.45594000000E+02  0.51100000000E-03 0.  1.
         11   -1    0    0    0    0 -0.00000000000E+00 -0.00000000000E+00 -0.45593999997E+02  0.45594000000E+02  0.51100000000E-03 0. -1.
    9900012    2    1    2    0    0  0.38471981408E+02 -0.77520750072E+01 -0.18532026432E+02  0.47787262402E+02  0.19999960596E+02 0.  0.
        -12    1    1    2    0    0 -0.38471981408E+02  0.77520750072E+01  0.18532026432E+02  0.43400737598E+02  0.00000000000E+00 0.  1.
         11    1    3    3    0    0  0.27180119468E+02 -0.92534477616E+01 -0.97321217992E+01  0.30316651938E+02  0.51100000000E-03 0. -1.
        -11    1    3    3    0    0 -0.11107400146E+01 -0.19227081483E+01 -0.11310412957E+01  0.24919479684E+01  0.51100000000E-03 0.  1.
         12    1    3    3    0    0  0.12402601955E+02  0.34240809027E+01 -0.76688633371E+01  0.14978662496E+02  0.00000000000E+00 0. -1.
</event>
<event>
 7    1  0.2740409E-010  0.4778727E+02  0.7816164E-02  0.1312668E+00
        -11   -1    0    0    0    0  0.00000000000E+00  0.00000000000E+00  0.45593999997E+02  0.45594000000E+02  0.51100000000E-03 0.  1.
         11   -1    0    0    0    0 -0.00000000000E+00 -0.00000000000E+00 -0.45593999997E+02  0.45594000000E+02  0.51100000000E-03 0. -1.
    9900012    2    1    2    0    0 -0.54437864066E+01  0.37394578242E+02 -0.21345587053E+02  0.47787269834E+02  0.19999994481E+02 0.  0.
        -12    1    1    2    0    0  0.54437864066E+01 -0.37394578242E+02  0.21345587053E+02  0.43400730166E+02  0.00000000000E+00 0.  1.
         11    1    3    3    0    0 -0.47726194727E+01  0.26335138301E+02 -0.87193062643E+01  0.28148600462E+02  0.51100000000E-03 0. -1.
        -11    1    3    3    0    0 -0.94067616141E+00 -0.18773296715E+01 -0.16437637735E+01  0.26666829471E+01  0.51100000000E-03 0.  1.
         12    1    3    3    0    0  0.26950922744E+00  0.12936769612E+02 -0.10982517015E+02  0.16971986425E+02  0.00000000000E+00 0. -1.
</event>
<event>
 7    1  0.2740409E-010  0.4778727E+02  0.7816164E-02  0.1312668E+00
        -11   -1    0    0    0    0  0.00000000000E+00  0.00000000000E+00  0.45593999997E+02  0.45594000000E+02  0.51100000000E-03 0.  1.
         11   -1    0    0    0    0 -0.00000000000E+00 -0.00000000000E+00 -0.45593999997E+02  0.45594000000E+02  0.51100000000E-03 0. -1.
    9900012    2    1    2    0    0  0.18010496859E+02  0.35489758497E+02 -0.17312485314E+02  0.47787273013E+02  0.20000008974E+02 0.  0.
        -12    1    1    2    0    0 -0.18010496859E+02 -0.35489758497E+02  0.17312485314E+02  0.43400726987E+02  0.00000000000E+00 0.  1.
         11    1    3    3    0    0  0.52486494620E+01  0.44494538039E+01 -0.63767596566E+01  0.93813125045E+01  0.51100000000E-03 0. -1.
        -11    1    3    3    0    0  0.92737250820E+01  0.16946223860E+02 -0.13625516890E+02  0.23639610632E+02  0.51100000000E-03 0.  1.
        -12    1    3    3    0    0  0.34881223147E+01  0.14094080833E+02  0.26897912329E+01  0.14766349877E+02  0.00000000000E+00 0.  1.
</event>
<event>
 7    1  0.2740409E-010  0.4778728E+02  0.7816164E-02  0.1312668E+00
        -11   -1    0    0    0    0  0.00000000000E+00  0.00000000000E+00  0.45593999997E+02  0.45594000000E+02  0.51100000000E-03 0.  1.
         11   -1    0    0    0    0 -0.00000000000E+00 -0.00000000000E+00 -0.45593999997E+02  0.45594000000E+02  0.51100000000E-03 0. -1.
    9900012    2    1    2    0    0  0.29383086677E+02 -0.82030806591E+01 -0.30870152909E+02  0.47787278168E+02  0.20000032477E+02 0.  0.
        -12    1    1    2    0    0 -0.29383086677E+02  0.82030806591E+01  0.30870152909E+02  0.43400721832E+02  0.00000000000E+00 0.  1.
         11    1    3    3    0    0  0.18414873383E+02 -0.66556714926E+01 -0.12006991694E+02  0.22968965465E+02  0.51100000000E-03 0. -1.
        -11    1    3    3    0    0 -0.18534623567E+01  0.12820204563E+01 -0.61274078259E+00  0.23354551346E+01  0.51100000000E-03 0.  1.
         12    1    3    3    0    0  0.12821675651E+02 -0.28294296228E+01 -0.18250420432E+02  0.22482857568E+02  0.00000000000E+00 0. -1.
</event>
<event>
 7    1  0.2740409E-010  0.4778727E+02  0.7816164E-02  0.1312668E+00
        -11   -1    0    0    0    0  0.00000000000E+00  0.00000000000E+00  0.45593999997E+02  0.45594000000E+02  0.51100000000E-03 0. -1.
         11   -1    0    0    0    0 -0.00000000000E+00 -0.00000000000E+00 -0.45593999997E+02  0.45594000000E+02  0.51100000000E-03 0.  1.
    9900012    2    1    2    0    0 -0.86446155589E+01  0.41850168075E+02  0.75800470136E+01  0.47787273522E+02  0.20000011296E+02 0.  0.
        -12    1    1    2    0    0  0.86446155589E+01 -0.41850168075E+02 -0.75800470136E+01  0.43400726478E+02  0.00000000000E+00 0.  1.
         11    1    3    3    0    0 -0.10295373951E+02  0.15073550862E+02 -0.29647084486E+00  0.18256356580E+02  0.51100000000E-03 0. -1.
        -11    1    3    3    0    0  0.50464043261E+01  0.88174771571E+01  0.34012010278E+01  0.10713648712E+02  0.51100000000E-03 0.  1.
         12    1    3    3    0    0 -0.33956459344E+01  0.17959140056E+02  0.44753168306E+01  0.18817268229E+02  0.00000000000E+00 0. -1.
</event>
<event>
 7    1  0.2740409E-010  0.4778727E+02  0.7816164E-02  0.1312668E+00
        -11   -1    0    0    0    0  0.00000000000E+00  0.00000000000E+00  0.45593999997E+02  0.45594000000E+02  0.51100000000E-03 0. -1.
         11   -1    0    0    0    0 -0.00000000000E+00 -0.00000000000E+00 -0.45593999997E+02  0.45594000000E+02  0.51100000000E-03 0.  1.
    9900012    2    1    2    0    0 -0.32202490055E+02  0.21973888972E+02  0.19072795982E+02  0.47787266033E+02  0.19999977150E+02 0.  0.
        -12    1    1    2    0    0  0.32202490055E+02 -0.21973888972E+02 -0.19072795982E+02  0.43400733967E+02  0.00000000000E+00 0.  1.
         11    1    3    3    0    0 -0.20072052195E+02  0.18792208416E+02  0.18054512088E+02  0.32893765115E+02  0.51100000000E-03 0. -1.
        -11    1    3    3    0    0 -0.14554053892E+01 -0.23873595390E+01  0.51189585347E+00  0.28424862429E+01  0.51100000000E-03 0.  1.
         12    1    3    3    0    0 -0.10675032471E+02  0.55690400951E+01  0.50638804081E+00  0.12051014675E+02  0.00000000000E+00 0. -1.
</event>
<event>
 7    1  0.2740409E-010  0.4778727E+02  0.7816164E-02  0.1312668E+00
        -11   -1    0    0    0    0  0.00000000000E+00  0.00000000000E+00  0.45593999997E+02  0.45594000000E+02  0.51100000000E-03 0.  1.
         11   -1    0    0    0    0 -0.00000000000E+00 -0.00000000000E+00 -0.45593999997E+02  0.45594000000E+02  0.51100000000E-03 0. -1.
    9900012    2    1    2    0    0 -0.43757674153E+01 -0.39151224669E+02  0.18211472775E+02  0.47787268737E+02  0.19999989477E+02 0.  0.
        -12    1    1    2    0    0  0.43757674153E+01  0.39151224669E+02 -0.18211472775E+02  0.43400731263E+02  0.00000000000E+00 0.  1.
         11    1    3    3    0    0 -0.61621707373E+01 -0.28941718550E+02  0.10766897078E+02  0.31488434285E+02  0.51100000000E-03 0. -1.
        -11    1    3    3    0    0 -0.11719079413E+01 -0.10912682281E+01  0.64677852205E+01  0.66630683989E+01  0.51100000000E-03 0.  1.
         12    1    3    3    0    0  0.29583112633E+01 -0.91182378916E+01  0.97679047634E+00  0.96357660522E+01  0.00000000000E+00 0. -1.
</event>
<event>
 7    1  0.2740409E-010  0.4778727E+02  0.7816164E-02  0.1312668E+00
        -11   -1    0    0    0    0  0.00000000000E+00  0.00000000000E+00  0.45593999997E+02  0.45594000000E+02  0.51100000000E-03 0.  1.
         11   -1    0    0    0    0 -0.00000000000E+00 -0.00000000000E+00 -0.45593999997E+02  0.45594000000E+02  0.51100000000E-03 0. -1.
    9900012    2    1    2    0    0  0.39448246132E+02  0.67701305271E+01 -0.16781665595E+02  0.47787273159E+02  0.20000009640E+02 0.  0.
        -12    1    1    2    0    0 -0.39448246132E+02 -0.67701305271E+01  0.16781665595E+02  0.43400726841E+02  0.00000000000E+00 0.  1.
         11    1    3    3    0    0  0.29576656149E+02  0.27865630005E+01 -0.29423723136E+01  0.29852991096E+02  0.51100000000E-03 0. -1.
        -11    1    3    3    0    0  0.79928032975E+01  0.37103304267E+01 -0.84041039546E+01  0.12177044796E+02  0.51100000000E-03 0.  1.
         12    1    3    3    0    0  0.18787866851E+01  0.27323709991E+00 -0.54351893267E+01  0.57572372661E+01  0.00000000000E+00 0. -1.
</event>
<event>
 7    1  0.2740409E-010  0.4778726E+02  0.7816164E-02  0.1312668E+00
        -11   -1    0    0    0    0  0.00000000000E+00  0.00000000000E+00  0.45593999997E+02  0.45594000000E+02  0.51100000000E-03 0.  1.
         11   -1    0    0    0    0 -0.00000000000E+00 -0.00000000000E+00 -0.45593999997E+02  0.45594000000E+02  0.51100000000E-03 0. -1.
    9900012    2    1    2    0    0  0.28454399769E+02 -0.25890028758E+02 -0.20091723710E+02  0.47787264788E+02  0.19999971474E+02 0.  0.
        -12    1    1    2    0    0 -0.28454399769E+02  0.25890028758E+02  0.20091723710E+02  0.43400735212E+02  0.00000000000E+00 0.  1.
         11    1    3    3    0    0  0.30907808025E+02 -0.26383140408E+02 -0.18457646677E+02  0.44632358394E+02  0.51100000000E-03 0. -1.
        -11    1    3    3    0    0 -0.16055556333E+01  0.51703514204E+00 -0.54109000487E+00  0.17714155030E+01  0.51100000000E-03 0.  1.
         12    1    3    3    0    0 -0.84785262240E+00 -0.23923492198E-01 -0.10929870280E+01  0.13834908913E+01  0.00000000000E+00 0. -1.
</event>
<event>
 7    1  0.2740409E-010  0.4778727E+02  0.7816164E-02  0.1312668E+00
        -11   -1    0    0    0    0  0.00000000000E+00  0.00000000000E+00  0.45593999997E+02  0.45594000000E+02  0.51100000000E-03 0.  1.
         11   -1    0    0    0    0 -0.00000000000E+00 -0.00000000000E+00 -0.45593999997E+02  0.45594000000E+02  0.51100000000E-03 0. -1.
    9900012    2    1    2    0    0 -0.10021438128E+02  0.14373553874E+02 -0.39706362300E+02  0.47787268667E+02  0.19999989162E+02 0.  0.
        -12    1    1    2    0    0  0.10021438128E+02 -0.14373553874E+02  0.39706362300E+02  0.43400731333E+02  0.00000000000E+00 0.  1.
         11    1    3    3    0    0 -0.53462719668E+01  0.41963612148E+01 -0.83659258709E+00  0.68477703529E+01  0.51100000000E-03 0.  1.
        -11    1    3    3    0    0 -0.60928925569E+01  0.74303977473E+01 -0.26467202659E+02  0.28157538374E+02  0.51100000000E-03 0. -1.
        -12    1    3    3    0    0  0.14177263954E+01  0.27467949123E+01 -0.12402567053E+02  0.12781959941E+02  0.00000000000E+00 0.  1.
</event>
<event>
 7    1  0.2740409E-010  0.4778727E+02  0.7816164E-02  0.1312668E+00
        -11   -1    0    0    0    0  0.00000000000E+00  0.00000000000E+00  0.45593999997E+02  0.45594000000E+02  0.51100000000E-03 0.  1.
         11   -1    0    0    0    0 -0.00000000000E+00 -0.00000000000E+00 -0.45593999997E+02  0.45594000000E+02  0.51100000000E-03 0. -1.
    9900012    2    1    2    0    0 -0.32254261777E+02  0.29038365319E+02  0.24338324482E+00  0.47787270760E+02  0.19999998704E+02 0.  0.
        -12    1    1    2    0    0  0.32254261777E+02 -0.29038365319E+02 -0.24338324482E+00  0.43400729240E+02  0.00000000000E+00 0.  1.
         11    1    3    3    0    0 -0.11906513819E+02  0.83301373617E+01  0.16862918934E+01  0.14628733383E+02  0.51100000000E-03 0. -1.
        -11    1    3    3    0    0 -0.87151026508E+01  0.93788763580E+01  0.72778124517E+01  0.14726944364E+02  0.51100000000E-03 0.  1.
        -12    1    3    3    0    0 -0.11632645307E+02  0.11329351599E+02 -0.87207211002E+01  0.18431593013E+02  0.00000000000E+00 0.  1.
</event>
<event>
 7    1  0.2740409E-010  0.4778727E+02  0.7816164E-02  0.1312668E+00
        -11   -1    0    0    0    0  0.00000000000E+00  0.00000000000E+00  0.45593999997E+02  0.45594000000E+02  0.51100000000E-03 0.  1.
         11   -1    0    0    0    0 -0.00000000000E+00 -0.00000000000E+00 -0.45593999997E+02  0.45594000000E+02  0.51100000000E-03 0. -1.
    9900012    2    1    2    0    0 -0.24688745118E+02  0.15163055971E+02 -0.32313637412E+02  0.47787267694E+02  0.19999984725E+02 0.  0.
        -12    1    1    2    0    0  0.24688745118E+02 -0.15163055971E+02  0.32313637412E+02  0.43400732306E+02  0.00000000000E+00 0.  1.
         11    1    3    3    0    0 -0.79529611068E+01  0.25538214520E+01 -0.52183909103E+01  0.98490201710E+01  0.51100000000E-03 0. -1.
        -11    1    3    3    0    0 -0.19652680704E+02  0.83153918255E+01 -0.21132770039E+02  0.30032774928E+02  0.51100000000E-03 0.  1.
        -12    1    3    3    0    0  0.29168966928E+01  0.42938426931E+01 -0.59624764624E+01  0.79054725953E+01  0.00000000000E+00 0.  1.
</event>
<event>
 7    1  0.2740409E-010  0.4778727E+02  0.7816164E-02  0.1312668E+00
        -11   -1    0    0    0    0  0.00000000000E+00  0.00000000000E+00  0.45593999997E+02  0.45594000000E+02  0.51100000000E-03 0. -1.
         11   -1    0    0    0    0 -0.00000000000E+00 -0.00000000000E+00 -0.45593999997E+02  0.45594000000E+02  0.51100000000E-03 0.  1.
    9900012    2    1    2    0    0  0.17252268527E+02  0.94594882159E+01  0.38684630867E+02  0.47787270145E+02  0.19999995900E+02 0.  0.
        -12    1    1    2    0    0 -0.17252268527E+02 -0.94594882159E+01 -0.38684630867E+02  0.43400729855E+02  0.00000000000E+00 0.  1.
         11    1    3    3    0    0  0.66365765017E+01  0.13046760814E+02  0.29137233973E+02  0.32607369095E+02  0.51100000000E-03 0. -1.
        -11    1    3    3    0    0  0.32242302637E+01 -0.69775552271E+00  0.85151629870E+00  0.34069933711E+01  0.51100000000E-03 0.  1.
         12    1    3    3    0    0  0.73914617617E+01 -0.28895170758E+01  0.86958805946E+01  0.11772907679E+02  0.00000000000E+00 0. -1.
</event>
<event>
 7    1  0.2740409E-010  0.4778727E+02  0.7816164E-02  0.1312668E+00
        -11   -1    0    0    0    0  0.00000000000E+00  0.00000000000E+00  0.45593999997E+02  0.45594000000E+02  0.51100000000E-03 0.  1.
         11   -1    0    0    0    0 -0.00000000000E+00 -0.00000000000E+00 -0.45593999997E+02  0.45594000000E+02  0.51100000000E-03 0. -1.
    9900012    2    1    2    0    0  0.32308713606E+02 -0.85904056456E+01 -0.27676255412E+02  0.47787272383E+02  0.20000006103E+02 0.  0.
        -12    1    1    2    0    0 -0.32308713606E+02  0.85904056456E+01  0.27676255412E+02  0.43400727617E+02  0.00000000000E+00 0.  1.
         11    1    3    3    0    0  0.31612539429E+02 -0.69689382006E+01 -0.26549070303E+02  0.41866118557E+02  0.51100000000E-03 0. -1.
        -11    1    3    3    0    0 -0.12397086598E+01 -0.25335277292E+01  0.91283112868E+00  0.29646081101E+01  0.51100000000E-03 0.  1.
         12    1    3    3    0    0  0.19358828373E+01  0.91206028421E+00 -0.20400162377E+01  0.29565457162E+01  0.00000000000E+00 0. -1.
</event>
<event>
 7    1  0.2740409E-010  0.4778727E+02  0.7816164E-02  0.1312668E+00
        -11   -1    0    0    0    0  0.00000000000E+00  0.00000000000E+00  0.45593999997E+02  0.45594000000E+02  0.51100000000E-03 0.  1.
         11   -1    0    0    0    0 -0.00000000000E+00 -0.00000000000E+00 -0.45593999997E+02  0.45594000000E+02  0.51100000000E-03 0. -1.
    9900012    2    1    2    0    0 -0.37850375381E+01 -0.19295888806E+02 -0.38690638234E+02  0.47787270502E+02  0.19999997526E+02 0.  0.
        -12    1    1    2    0    0  0.37850375381E+01  0.19295888806E+02  0.38690638234E+02  0.43400729498E+02  0.00000000000E+00 0.  1.
         11    1    3    3    0    0 -0.16590947721E+00 -0.38146394866E+01 -0.10911374728E+02  0.11560151343E+02  0.51100000000E-03 0. -1.
        -11    1    3    3    0    0  0.33508778941E+01 -0.15894656083E+02 -0.20216320827E+02  0.25933917998E+02  0.51100000000E-03 0.  1.
        -12    1    3    3    0    0 -0.69700059551E+01  0.41340676354E+00 -0.75629426794E+01  0.10293201161E+02  0.00000000000E+00 0.  1.
</event>
<event>
 7    1  0.2740409E-010  0.4778727E+02  0.7816164E-02  0.1312668E+00
        -11   -1    0    0    0    0  0.00000000000E+00  0.00000000000E+00  0.45593999997E+02  0.45594000000E+02  0.51100000000E-03 0. -1.
         11   -1    0    0    0    0 -0.00000000000E+00 -0.00000000000E+00 -0.45593999997E+02  0.45594000000E+02  0.51100000000E-03 0.  1.
    9900012    2    1    2    0    0 -0.31781470812E+02  0.11513307015E+02  0.27221407307E+02  0.47787272573E+02  0.20000006970E+02 0.  0.
        -12    1    1    2    0    0  0.31781470812E+02 -0.11513307015E+02 -0.27221407307E+02  0.43400727427E+02  0.00000000000E+00 0.  1.
         11    1    3    3    0    0 -0.15250584102E+02  0.41570476165E+01  0.50349115997E+01  0.16589505581E+02  0.51100000000E-03 0. -1.
        -11    1    3    3    0    0 -0.30433557949E+01  0.75949622478E+01  0.10770602736E+02  0.13525950968E+02  0.51100000000E-03 0.  1.
         12    1    3    3    0    0 -0.13487530915E+02 -0.23870284969E+00  0.11415892971E+02  0.17671816023E+02  0.00000000000E+00 0. -1.
</event>
<event>
 7    1  0.2740409E-010  0.4778728E+02  0.7816164E-02  0.1312668E+00
        -11   -1    0    0    0    0  0.00000000000E+00  0.00000000000E+00  0.45593999997E+02  0.45594000000E+02  0.51100000000E-03 0.  1.
         11   -1    0    0    0    0 -0.00000000000E+00 -0.00000000000E+00 -0.45593999997E+02  0.45594000000E+02  0.51100000000E-03 0. -1.
    9900012    2    1    2    0    0 -0.21978225187E+02 -0.20327498721E+02 -0.31422497272E+02  0.47787275105E+02  0.20000018514E+02 0.  0.
        -12    1    1    2    0    0  0.21978225187E+02  0.20327498721E+02  0.31422497272E+02  0.43400724895E+02  0.00000000000E+00 0.  1.
         11    1    3    3    0    0 -0.14574233808E+02 -0.19013848793E+02 -0.17819311925E+02  0.29857371196E+02  0.51100000000E-03 0. -1.
        -11    1    3    3    0    0 -0.53794588823E+01  0.31308356519E+01 -0.47899870939E+01  0.78539599162E+01  0.51100000000E-03 0.  1.
        -12    1    3    3    0    0 -0.20245324967E+01 -0.44444855797E+01 -0.88131982527E+01  0.10075943992E+02  0.00000000000E+00 0.  1.
</event>
<event>
 7    1  0.2740409E-010  0.4778727E+02  0.7816164E-02  0.1312668E+00
        -11   -1    0    0    0    0  0.00000000000E+00  0.00000000000E+00  0.45593999997E+02  0.45594000000E+02  0.51100000000E-03 0. -1.
         11   -1    0    0    0    0 -0.00000000000E+00 -0.00000000000E+00 -0.45593999997E+02  0.45594000000E+02  0.51100000000E-03 0.  1.
    9900012    2    1    2    0    0  0.13614132236E+02  0.39319204049E+02  0.12340134057E+02  0.47787270604E+02  0.19999997993E+02 0.  0.
        -12    1    1    2    0    0 -0.13614132236E+02 -0.39319204049E+02 -0.12340134057E+02  0.43400729396E+02  0.00000000000E+00 0.  1.
         11    1    3    3    0    0  0.59700166675E+01  0.12220655828E+02  0.52001783578E-01  0.13601037913E+02  0.51100000000E-03 0. -1.
        -11    1    3    3    0    0 -0.13509223374E+01  0.20250006745E+02  0.56116699289E+01  0.21056557268E+02  0.51100000000E-03 0.  1.
        -12    1    3    3    0    0  0.89950379054E+01  0.68485414757E+01  0.66764623447E+01  0.13129675423E+02  0.00000000000E+00 0.  1.
</event>
<event>
 7    1  0.2740409E-010  0.4778731E+02  0.7816164E-02  0.1312668E+00
        -11   -1    0    0    0    0  0.00000000000E+00  0.00000000000E+00  0.45593999997E+02  0.45594000000E+02  0.51100000000E-03 0.  1.
         11   -1    0    0    0    0 -0.00000000000E+00 -0.00000000000E+00 -0.45593999997E+02  0.45594000000E+02  0.51100000000E-03 0. -1.
    9900012    2    1    2    0    0 -0.25621621758E+02 -0.15845695845E+02 -0.31242063018E+02  0.47787307840E+02  0.20000167767E+02 0.  0.
        -12    1    1    2    0    0  0.25621621758E+02  0.15845695845E+02  0.31242063018E+02  0.43400692160E+02  0.00000000000E+00 0.  1.
         11    1    3    3    0    0 -0.94196413296E+01 -0.64910940130E+01 -0.27565046640E+01  0.11766998873E+02  0.51100000000E-03 0. -1.
        -11    1    3    3    0    0 -0.83045541424E+01 -0.93464222559E+01 -0.23673563901E+02  0.26772352465E+02  0.51100000000E-03 0.  1.
        -12    1    3    3    0    0 -0.78974262857E+01 -0.81795762071E-02 -0.48119944532E+01  0.92479565019E+01  0.00000000000E+00 0.  1.
</event>
<event>
 7    1  0.2740409E-010  0.4778728E+02  0.7816164E-02  0.1312668E+00
        -11   -1    0    0    0    0  0.00000000000E+00  0.00000000000E+00  0.45593999997E+02  0.45594000000E+02  0.51100000000E-03 0. -1.
         11   -1    0    0    0    0 -0.00000000000E+00 -0.00000000000E+00 -0.45593999997E+02  0.45594000000E+02  0.51100000000E-03 0.  1.
    9900012    2    1    2    0    0  0.14742783306E+02  0.91134237521E+01  0.39789681136E+02  0.47787275617E+02  0.20000020849E+02 0.  0.
        -12    1    1    2    0    0 -0.14742783306E+02 -0.91134237521E+01 -0.39789681136E+02  0.43400724383E+02  0.00000000000E+00 0.  1.
         11    1    3    3    0    0  0.68568596646E+01  0.65726054697E+01  0.57844361097E+01  0.11120942788E+02  0.51100000000E-03 0. -1.
        -11    1    3    3    0    0  0.67096861953E+01  0.44975507840E+01  0.11544368847E+02  0.14089723355E+02  0.51100000000E-03 0.  1.
         12    1    3    3    0    0  0.11762374456E+01 -0.19567325016E+01  0.22460876179E+02  0.22576609474E+02  0.00000000000E+00 0. -1.
</event>
<event>
 7    1  0.2740409E-010  0.4778729E+02  0.7816164E-02  0.1312668E+00
        -11   -1    0    0    0    0  0.00000000000E+00  0.00000000000E+00  0.45593999997E+02  0.45594000000E+02  0.51100000000E-03 0.  1.
         11   -1    0    0    0    0 -0.00000000000E+00 -0.00000000000E+00 -0.45593999997E+02  0.45594000000E+02  0.51100000000E-03 0. -1.
    9900012    2    1    2    0    0 -0.44939314327E+01  0.30428222313E+02 -0.30619433207E+02  0.47787287762E+02  0.20000076222E+02 0.  0.
        -12    1    1    2    0    0  0.44939314327E+01 -0.30428222313E+02  0.30619433207E+02  0.43400712238E+02  0.00000000000E+00 0.  1.
         11    1    3    3    0    0 -0.38734613434E+00  0.80197594754E+01 -0.13428691854E+02  0.15645968946E+02  0.51100000000E-03 0. -1.
        -11    1    3    3    0    0 -0.31226008555E+00  0.48991766648E+01  0.25091418048E+01  0.55131870286E+01  0.51100000000E-03 0.  1.
        -12    1    3    3    0    0 -0.37943252128E+01  0.17509286173E+02 -0.19699883157E+02  0.26628131788E+02  0.00000000000E+00 0.  1.
</event>
<event>
 7    1  0.2740409E-010  0.4778726E+02  0.7816164E-02  0.1312668E+00
        -11   -1    0    0    0    0  0.00000000000E+00  0.00000000000E+00  0.45593999997E+02  0.45594000000E+02  0.51100000000E-03 0.  1.
         11   -1    0    0    0    0 -0.00000000000E+00 -0.00000000000E+00 -0.45593999997E+02  0.45594000000E+02  0.51100000000E-03 0. -1.
    9900012    2    1    2    0    0 -0.95950037580E+01  0.25810896159E+02 -0.33546350142E+02  0.47787261925E+02  0.19999958419E+02 0.  0.
        -12    1    1    2    0    0  0.95950037580E+01 -0.25810896159E+02  0.33546350142E+02  0.43400738075E+02  0.00000000000E+00 0.  1.
         11    1    3    3    0    0  0.11379946326E+01  0.17344974351E+02 -0.22571956310E+02  0.28489232684E+02  0.51100000000E-03 0. -1.
        -11    1    3    3    0    0 -0.11764840603E+02  0.84461363518E+01 -0.89479972505E+01  0.17023963955E+02  0.51100000000E-03 0.  1.
        -12    1    3    3    0    0  0.10318422127E+01  0.19785456552E-01 -0.20263965813E+01  0.22740652851E+01  0.00000000000E+00 0.  1.
</event>
<event>
 7    1  0.2740409E-010  0.4778727E+02  0.7816164E-02  0.1312668E+00
        -11   -1    0    0    0    0  0.00000000000E+00  0.00000000000E+00  0.45593999997E+02  0.45594000000E+02  0.51100000000E-03 0.  1.
         11   -1    0    0    0    0 -0.00000000000E+00 -0.00000000000E+00 -0.45593999997E+02  0.45594000000E+02  0.51100000000E-03 0. -1.
    9900012    2    1    2    0    0 -0.23383252167E+02 -0.14793920536E+02 -0.33436305080E+02  0.47787273461E+02  0.20000011018E+02 0.  0.
        -12    1    1    2    0    0  0.23383252167E+02  0.14793920536E+02  0.33436305080E+02  0.43400726539E+02  0.00000000000E+00 0.  1.
         11    1    3    3    0    0 -0.72617737765E+00 -0.87149850987E+01 -0.81100471790E+01  0.11926909254E+02  0.51100000000E-03 0. -1.
        -11    1    3    3    0    0 -0.23064337017E+02 -0.45968572447E+01 -0.22034890532E+02  0.32227800725E+02  0.51100000000E-03 0.  1.
         12    1    3    3    0    0  0.40726222787E+00 -0.14820781930E+01 -0.32913673689E+01  0.36325634818E+01  0.00000000000E+00 0. -1.
</event>
<event>
 7    1  0.2740409E-010  0.4778727E+02  0.7816164E-02  0.1312668E+00
        -11   -1    0    0    0    0  0.00000000000E+00  0.00000000000E+00  0.45593999997E+02  0.45594000000E+02  0.51100000000E-03 0. -1.
         11   -1    0    0    0    0 -0.00000000000E+00 -0.00000000000E+00 -0.45593999997E+02  0.45594000000E+02  0.51100000000E-03 0.  1.
    9900012    2    1    2    0    0 -0.28433123917E+02  0.10727358174E+02  0.30985554910E+02  0.47787270028E+02  0.19999995365E+02 0.  0.
        -12    1    1    2    0    0  0.28433123917E+02 -0.10727358174E+02 -0.30985554910E+02  0.43400729972E+02  0.00000000000E+00 0.  1.
         11    1    3    3    0    0 -0.99606774112E+01  0.43348430577E+01  0.74060729950E+01  0.13147466535E+02  0.51100000000E-03 0. -1.
        -11    1    3    3    0    0 -0.17395928456E+02  0.79297022056E+01  0.25555115492E+02  0.31914924910E+02  0.51100000000E-03 0.  1.
        -12    1    3    3    0    0 -0.10765180494E+01 -0.15371870890E+01 -0.19756335777E+01  0.27248785827E+01  0.00000000000E+00 0.  1.
</event>
<event>
 7    1  0.2740409E-010  0.4778728E+02  0.7816164E-02  0.1312668E+00
        -11   -1    0    0    0    0  0.00000000000E+00  0.00000000000E+00  0.45593999997E+02  0.45594000000E+02  0.51100000000E-03 0.  1.
         11   -1    0    0    0    0 -0.00000000000E+00 -0.00000000000E+00 -0.45593999997E+02  0.45594000000E+02  0.51100000000E-03 0. -1.
    9900012    2    1    2    0    0  0.10296779340E+01 -0.37056622317E+02 -0.22569213573E+02  0.47787275404E+02  0.20000019876E+02 0.  0.
        -12    1    1    2    0    0 -0.10296779340E+01  0.37056622317E+02  0.22569213573E+02  0.43400724596E+02  0.00000000000E+00 0.  1.
         11    1    3    3    0    0  0.15877309614E+01 -0.36987796218E+01 -0.26289910188E+01  0.48076454045E+01  0.51100000000E-03 0. -1.
        -11    1    3    3    0    0  0.81964177098E+01 -0.20134270611E+02 -0.81418061813E+01  0.23213339365E+02  0.51100000000E-03 0.  1.
        -12    1    3    3    0    0 -0.87544707373E+01 -0.13223572084E+02 -0.11798416373E+02  0.19766290634E+02  0.00000000000E+00 0.  1.
</event>
<event>
 7    1  0.2740409E-010  0.4778727E+02  0.7816164E-02  0.1312668E+00
        -11   -1    0    0    0    0  0.00000000000E+00  0.00000000000E+00  0.45593999997E+02  0.45594000000E+02  0.51100000000E-03 0.  1.
         11   -1    0    0    0    0 -0.00000000000E+00 -0.00000000000E+00 -0.45593999997E+02  0.45594000000E+02  0.51100000000E-03 0. -1.
    9900012    2    1    2    0    0  0.34610483049E+02  0.20524213323E+02 -0.16263282776E+02  0.47787271480E+02  0.20000001985E+02 0.  0.
        -12    1    1    2    0    0 -0.34610483049E+02 -0.20524213323E+02  0.16263282776E+02  0.43400728520E+02  0.00000000000E+00 0.  1.
         11    1    3    3    0    0  0.26894460721E+02  0.94074066488E+01 -0.16230889260E+02  0.32791051885E+02  0.51100000000E-03 0. -1.
        -11    1    3    3    0    0  0.48160064329E+01  0.35149954172E+01  0.25143068917E+01  0.64707688995E+01  0.51100000000E-03 0.  1.
         12    1    3    3    0    0  0.29000158953E+01  0.76018112574E+01 -0.25467004080E+01  0.85254506951E+01  0.00000000000E+00 0. -1.
</event>
<event>
 7    1  0.2740409E-010  0.4778726E+02  0.7816164E-02  0.1312668E+00
        -11   -1    0    0    0    0  0.00000000000E+00  0.00000000000E+00  0.45593999997E+02  0.45594000000E+02  0.51100000000E-03 0.  1.
         11   -1    0    0    0    0 -0.00000000000E+00 -0.00000000000E+00 -0.45593999997E+02  0.45594000000E+02  0.51100000000E-03 0. -1.
    9900012    2    1    2    0    0 -0.14063290266E+02 -0.13460338483E+02 -0.38790043170E+02  0.47787259288E+02  0.19999946398E+02 0.  0.
        -12    1    1    2    0    0  0.14063290266E+02  0.13460338483E+02  0.38790043170E+02  0.43400740712E+02  0.00000000000E+00 0.  1.
         11    1    3    3    0    0 -0.89169158267E+00 -0.29654003298E+01 -0.21526326705E+02  0.21747906904E+02  0.51100000000E-03 0. -1.
        -11    1    3    3    0    0 -0.43074094180E+01 -0.13054300230E+01 -0.10859482052E+02  0.11755265805E+02  0.51100000000E-03 0.  1.
         12    1    3    3    0    0 -0.88641892649E+01 -0.91895081304E+01 -0.64042344126E+01  0.14284086580E+02  0.00000000000E+00 0. -1.
</event>
<event>
 7    1  0.2740409E-010  0.4778727E+02  0.7816164E-02  0.1312668E+00
        -11   -1    0    0    0    0  0.00000000000E+00  0.00000000000E+00  0.45593999997E+02  0.45594000000E+02  0.51100000000E-03 0. -1.
         11   -1    0    0    0    0 -0.00000000000E+00 -0.00000000000E+00 -0.45593999997E+02  0.45594000000E+02  0.51100000000E-03 0.  1.
    9900012    2    1    2    0    0 -0.41019880782E+02  0.17269380618E+01  0.14071610737E+02  0.47787272319E+02  0.20000005813E+02 0.  0.
        -12    1    1    2    0    0  0.41019880782E+02 -0.17269380618E+01 -0.14071610737E+02  0.43400727681E+02  0.00000000000E+00 0.  1.
         11    1    3    3    0    0 -0.18987436691E+02 -0.58391524161E+01  0.78272275452E+01  0.21351438929E+02  0.51100000000E-03 0.  1.
        -11    1    3    3    0    0 -0.20411141061E+02  0.76403519661E+01  0.19930099654E+01  0.21885194689E+02  0.51100000000E-03 0. -1.
        -12    1    3    3    0    0 -0.16213030304E+01 -0.74261488247E-01  0.42513732263E+01  0.45506387018E+01  0.00000000000E+00 0.  1.
</event>
<event>
 7    1  0.2740409E-010  0.4778727E+02  0.7816164E-02  0.1312668E+00
        -11   -1    0    0    0    0  0.00000000000E+00  0.00000000000E+00  0.45593999997E+02  0.45594000000E+02  0.51100000000E-03 0.  1.
         11   -1    0    0    0    0 -0.00000000000E+00 -0.00000000000E+00 -0.45593999997E+02  0.45594000000E+02  0.51100000000E-03 0. -1.
    9900012    2    1    2    0    0  0.30788978301E+02  0.29746083575E+02 -0.71297070567E+01  0.47787269642E+02  0.19999993606E+02 0.  0.
        -12    1    1    2    0    0 -0.30788978301E+02 -0.29746083575E+02  0.71297070567E+01  0.43400730358E+02  0.00000000000E+00 0.  1.
         11    1    3    3    0    0  0.12438547987E+02  0.85259278533E+01 -0.44399907249E+01  0.15720128488E+02  0.51100000000E-03 0. -1.
        -11    1    3    3    0    0  0.15811995898E+02  0.66520270987E+01 -0.10017821139E+01  0.17183487611E+02  0.51100000000E-03 0.  1.
        -12    1    3    3    0    0  0.25384344157E+01  0.14568128623E+02 -0.16879342179E+01  0.14883653543E+02  0.00000000000E+00 0.  1.
</event>
<event>
 7    1  0.2740409E-010  0.4778727E+02  0.7816164E-02  0.1312668E+00
        -11   -1    0    0    0    0  0.00000000000E+00  0.00000000000E+00  0.45593999997E+02  0.45594000000E+02  0.51100000000E-03 0.  1.
         11   -1    0    0    0    0 -0.00000000000E+00 -0.00000000000E+00 -0.45593999997E+02  0.45594000000E+02  0.51100000000E-03 0. -1.
    9900012    2    1    2    0    0 -0.17938885840E+02 -0.29583765292E+02 -0.26203445230E+02  0.47787270329E+02  0.19999996740E+02 0.  0.
        -12    1    1    2    0    0  0.17938885840E+02  0.29583765292E+02  0.26203445230E+02  0.43400729671E+02  0.00000000000E+00 0.  1.
         11    1    3    3    0    0 -0.99417310308E+01 -0.38235734080E+01 -0.68735450538E+01  0.12676882557E+02  0.51100000000E-03 0. -1.
        -11    1    3    3    0    0  0.31802551101E+00 -0.16739559151E+02 -0.13598326270E+02  0.21569155255E+02  0.51100000000E-03 0.  1.
        -12    1    3    3    0    0 -0.83151803199E+01 -0.90206327331E+01 -0.57315739058E+01  0.13541232518E+02  0.00000000000E+00 0.  1.
</event>
<event>
 7    1  0.2740409E-010  0.4778727E+02  0.7816164E-02  0.1312668E+00
        -11   -1    0    0    0    0  0.00000000000E+00  0.00000000000E+00  0.45593999997E+02  0.45594000000E+02  0.51100000000E-03 0. -1.
         11   -1    0    0    0    0 -0.00000000000E+00 -0.00000000000E+00 -0.45593999997E+02  0.45594000000E+02  0.51100000000E-03 0.  1.
    9900012    2    1    2    0    0  0.26183342046E+02  0.31209864787E+02  0.14966641183E+02  0.47787269487E+02  0.19999992900E+02 0.  0.
        -12    1    1    2    0    0 -0.26183342046E+02 -0.31209864787E+02 -0.14966641183E+02  0.43400730513E+02  0.00000000000E+00 0.  1.
         11    1    3    3    0    0  0.77251428014E+01  0.13794009445E+02 -0.19183030740E+01  0.15925841102E+02  0.51100000000E-03 0. -1.
        -11    1    3    3    0    0  0.44525756986E+00  0.49474908618E+01  0.18950216578E+01  0.53166744753E+01  0.51100000000E-03 0.  1.
         12    1    3    3    0    0  0.18012941675E+02  0.12468364481E+02  0.14989922599E+02  0.26544753910E+02  0.00000000000E+00 0. -1.
</event>
<event>
 7    1  0.2740409E-010  0.4778727E+02  0.7816164E-02  0.1312668E+00
        -11   -1    0    0    0    0  0.00000000000E+00  0.00000000000E+00  0.45593999997E+02  0.45594000000E+02  0.51100000000E-03 0. -1.
         11   -1    0    0    0    0 -0.00000000000E+00 -0.00000000000E+00 -0.45593999997E+02  0.45594000000E+02  0.51100000000E-03 0.  1.
    9900012    2    1    2    0    0  0.32946257854E+02  0.27635530898E+01  0.28116369532E+02  0.47787269961E+02  0.19999995062E+02 0.  0.
        -12    1    1    2    0    0 -0.32946257854E+02 -0.27635530898E+01 -0.28116369532E+02  0.43400730039E+02  0.00000000000E+00 0.  1.
         11    1    3    3    0    0  0.49986933654E+01 -0.15007597994E+01  0.75747555922E+01  0.91987030542E+01  0.51100000000E-03 0. -1.
        -11    1    3    3    0    0  0.29749893770E+02  0.42990584748E+01  0.21072315386E+02  0.36709406956E+02  0.51100000000E-03 0.  1.
        -12    1    3    3    0    0 -0.18023292819E+01 -0.34745585618E-01 -0.53070144633E+00  0.18791599509E+01  0.00000000000E+00 0.  1.
</event>
<event>
 7    1  0.2740409E-010  0.4778727E+02  0.7816164E-02  0.1312668E+00
        -11   -1    0    0    0    0  0.00000000000E+00  0.00000000000E+00  0.45593999997E+02  0.45594000000E+02  0.51100000000E-03 0.  1.
         11   -1    0    0    0    0 -0.00000000000E+00 -0.00000000000E+00 -0.45593999997E+02  0.45594000000E+02  0.51100000000E-03 0. -1.
    9900012    2    1    2    0    0 -0.23560527658E+02 -0.33273084277E+02 -0.14880423060E+02  0.47787267388E+02  0.19999983327E+02 0.  0.
        -12    1    1    2    0    0  0.23560527658E+02  0.33273084277E+02  0.14880423060E+02  0.43400732612E+02  0.00000000000E+00 0.  1.
         11    1    3    3    0    0 -0.22403520694E+02 -0.30282995450E+02 -0.57689693285E+01  0.38108510339E+02  0.51100000000E-03 0. -1.
        -11    1    3    3    0    0 -0.88322116604E+00 -0.21658834724E+01 -0.57650245068E+01  0.62214659582E+01  0.51100000000E-03 0.  1.
         12    1    3    3    0    0 -0.27378579864E+00 -0.82420535530E+00 -0.33464292243E+01  0.34572910905E+01  0.00000000000E+00 0. -1.
</event>
<event>
 7    1  0.2740409E-010  0.4778727E+02  0.7816164E-02  0.1312668E+00
        -11   -1    0    0    0    0  0.00000000000E+00  0.00000000000E+00  0.45593999997E+02  0.45594000000E+02  0.51100000000E-03 0.  1.
         11   -1    0    0    0    0 -0.00000000000E+00 -0.00000000000E+00 -0.45593999997E+02  0.45594000000E+02  0.51100000000E-03 0. -1.
    9900012    2    1    2    0    0 -0.69899160828E+01  0.39078148092E+02 -0.17540307359E+02  0.47787274575E+02  0.20000016097E+02 0.  0.
        -12    1    1    2    0    0  0.69899160828E+01 -0.39078148092E+02  0.17540307359E+02  0.43400725425E+02  0.00000000000E+00 0.  1.
         11    1    3    3    0    0 -0.78284304860E+01  0.35432022036E+02 -0.16541322936E+02  0.39878915158E+02  0.51100000000E-03 0. -1.
        -11    1    3    3    0    0  0.34376227652E+01  0.39320065415E+01 -0.82732040413E+00  0.52879471471E+01  0.51100000000E-03 0.  1.
         12    1    3    3    0    0 -0.25991083620E+01 -0.28588048502E+00 -0.17166401887E+00  0.26204122699E+01  0.00000000000E+00 0. -1.
</event>
<event>
 7    1  0.2740409E-010  0.4778727E+02  0.7816164E-02  0.1312668E+00
        -11   -1    0    0    0    0  0.00000000000E+00  0.00000000000E+00  0.45593999997E+02  0.45594000000E+02  0.51100000000E-03 0.  1.
         11   -1    0    0    0    0 -0.00000000000E+00 -0.00000000000E+00 -0.45593999997E+02  0.45594000000E+02  0.51100000000E-03 0. -1.
    9900012    2    1    2    0    0  0.25451140420E+01 -0.12461292475E+02 -0.41495323725E+02  0.47787270667E+02  0.19999998277E+02 0.  0.
        -12    1    1    2    0    0 -0.25451140420E+01  0.12461292475E+02  0.41495323725E+02  0.43400729333E+02  0.00000000000E+00 0.  1.
         11    1    3    3    0    0 -0.58282362988E+01 -0.10734161867E+01 -0.21659689102E+02  0.22455794195E+02  0.51100000000E-03 0. -1.
        -11    1    3    3    0    0  0.72135341892E+01 -0.48883231991E+01 -0.14153257930E+02  0.16620634449E+02  0.51100000000E-03 0.  1.
        -12    1    3    3    0    0  0.11598161516E+01 -0.64995530888E+01 -0.56823766929E+01  0.87108420224E+01  0.00000000000E+00 0.  1.
</event>
<event>
 7    1  0.2740409E-010  0.4778727E+02  0.7816164E-02  0.1312668E+00
        -11   -1    0    0    0    0  0.00000000000E+00  0.00000000000E+00  0.45593999997E+02  0.45594000000E+02  0.51100000000E-03 0.  1.
         11   -1    0    0    0    0 -0.00000000000E+00 -0.00000000000E+00 -0.45593999997E+02  0.45594000000E+02  0.51100000000E-03 0. -1.
    9900012    2    1    2    0    0  0.44365778143E+01  0.43580223708E+01 -0.42952856761E+02  0.47787268605E+02  0.19999988878E+02 0.  0.
        -12    1    1    2    0    0 -0.44365778143E+01 -0.43580223708E+01  0.42952856761E+02  0.43400731395E+02  0.00000000000E+00 0.  1.
         11    1    3    3    0    0 -0.36800497739E+01 -0.37858516663E+01 -0.47361119972E+01  0.70926861124E+01  0.51100000000E-03 0.  1.
        -11    1    3    3    0    0  0.87453400978E+01  0.83425031269E+01 -0.28517988009E+02  0.30973439786E+02  0.51100000000E-03 0. -1.
         12    1    3    3    0    0 -0.62871250968E+00 -0.19862908973E+00 -0.96987567546E+01  0.97211427065E+01  0.00000000000E+00 0. -1.
</event>
<event>
 7    1  0.2740409E-010  0.4778727E+02  0.7816164E-02  0.1312668E+00
        -11   -1    0    0    0    0  0.00000000000E+00  0.00000000000E+00  0.45593999997E+02  0.45594000000E+02  0.51100000000E-03 0.  1.
         11   -1    0    0    0    0 -0.00000000000E+00 -0.00000000000E+00 -0.45593999997E+02  0.45594000000E+02  0.51100000000E-03 0. -1.
    9900012    2    1    2    0    0 -0.24237588657E+02  0.21482526225E+02 -0.28890542088E+02  0.47787273519E+02  0.20000011283E+02 0.  0.
        -12    1    1    2    0    0  0.24237588657E+02 -0.21482526225E+02  0.28890542088E+02  0.43400726481E+02  0.00000000000E+00 0.  1.
         11    1    3    3    0    0 -0.56089725742E+01  0.15328278311E+02 -0.63638022257E+01  0.17518980232E+02  0.51100000000E-03 0. -1.
        -11    1    3    3    0    0 -0.89403304170E+01  0.27809659903E+01 -0.14420319163E+02  0.17193280223E+02  0.51100000000E-03 0.  1.
         12    1    3    3    0    0 -0.96882856661E+01  0.33732819233E+01 -0.81064206996E+01  0.13075013065E+02  0.00000000000E+00 0. -1.
</event>
<event>
 7    1  0.2740409E-010  0.4778727E+02  0.7816164E-02  0.1312668E+00
        -11   -1    0    0    0    0  0.00000000000E+00  0.00000000000E+00  0.45593999997E+02  0.45594000000E+02  0.51100000000E-03 0.  1.
         11   -1    0    0    0    0 -0.00000000000E+00 -0.00000000000E+00 -0.45593999997E+02  0.45594000000E+02  0.51100000000E-03 0. -1.
    9900012    2    1    2    0    0  0.13293711073E+02 -0.16264633756E+02  0.37978442565E+02  0.47787272299E+02  0.20000005722E+02 0.  0.
        -12    1    1    2    0    0 -0.13293711073E+02  0.16264633756E+02 -0.37978442565E+02  0.43400727701E+02  0.00000000000E+00 0.  1.
         11    1    3    3    0    0  0.33827480640E+01 -0.46722471263E+01  0.16949187408E+02  0.17903849634E+02  0.51100000000E-03 0. -1.
        -11    1    3    3    0    0  0.57364099594E+01 -0.16431051044E+01 -0.30616948856E+00  0.59749421440E+01  0.51100000000E-03 0.  1.
        -12    1    3    3    0    0  0.41745530491E+01 -0.99492815250E+01  0.21335424646E+02  0.23908480521E+02  0.00000000000E+00 0.  1.
</event>
<event>
 7    1  0.2740409E-010  0.4778727E+02  0.7816164E-02  0.1312668E+00
        -11   -1    0    0    0    0  0.00000000000E+00  0.00000000000E+00  0.45593999997E+02  0.45594000000E+02  0.51100000000E-03 0.  1.
         11   -1    0    0    0    0 -0.00000000000E+00 -0.00000000000E+00 -0.45593999997E+02  0.45594000000E+02  0.51100000000E-03 0. -1.
    9900012    2    1    2    0    0 -0.28811053261E+02 -0.23548387514E+00 -0.32457525990E+02  0.47787271481E+02  0.20000001990E+02 0.  0.
        -12    1    1    2    0    0  0.28811053261E+02  0.23548387514E+00  0.32457525990E+02  0.43400728519E+02  0.00000000000E+00 0.  1.
         11    1    3    3    0    0 -0.13501502782E+02  0.54978826243E+01 -0.11930227915E+02  0.18837399743E+02  0.51100000000E-03 0.  1.
        -11    1    3    3    0    0 -0.98056994830E+01 -0.76525509991E+01 -0.19350546906E+02  0.23003411594E+02  0.51100000000E-03 0. -1.
         12    1    3    3    0    0 -0.55038509955E+01  0.19191844997E+01 -0.11767511686E+01  0.59464601435E+01  0.00000000000E+00 0. -1.
</event>
<event>
 7    1  0.2740409E-010  0.4778727E+02  0.7816164E-02  0.1312668E+00
        -11   -1    0    0    0    0  0.00000000000E+00  0.00000000000E+00  0.45593999997E+02  0.45594000000E+02  0.51100000000E-03 0.  1.
         11   -1    0    0    0    0 -0.00000000000E+00 -0.00000000000E+00 -0.45593999997E+02  0.45594000000E+02  0.51100000000E-03 0. -1.
    9900012    2    1    2    0    0  0.38235661918E+02 -0.18182167022E+02 -0.95428572525E+01  0.47787272305E+02  0.20000005747E+02 0.  0.
        -12    1    1    2    0    0 -0.38235661918E+02  0.18182167022E+02  0.95428572525E+01  0.43400727695E+02  0.00000000000E+00 0.  1.
         11    1    3    3    0    0  0.27356577260E+02 -0.31637720820E+01 -0.40652830489E+01  0.27837354394E+02  0.51100000000E-03 0. -1.
        -11    1    3    3    0    0  0.77284258306E+01 -0.89994179463E+01 -0.56821011926E+01  0.13153112309E+02  0.51100000000E-03 0.  1.
         12    1    3    3    0    0  0.31506588279E+01 -0.60189769932E+01  0.20452698897E+00  0.67968056015E+01  0.00000000000E+00 0. -1.
</event>
<event>
 7    1  0.2740409E-010  0.4778727E+02  0.7816164E-02  0.1312668E+00
        -11   -1    0    0    0    0  0.00000000000E+00  0.00000000000E+00  0.45593999997E+02  0.45594000000E+02  0.51100000000E-03 0.  1.
         11   -1    0    0    0    0 -0.00000000000E+00 -0.00000000000E+00 -0.45593999997E+02  0.45594000000E+02  0.51100000000E-03 0. -1.
    9900012    2    1    2    0    0 -0.25052087094E+02 -0.64599968407E+01 -0.34846584930E+02  0.47787272952E+02  0.20000008699E+02 0.  0.
        -12    1    1    2    0    0  0.25052087094E+02  0.64599968407E+01  0.34846584930E+02  0.43400727048E+02  0.00000000000E+00 0.  1.
         11    1    3    3    0    0 -0.71102782405E+01 -0.47702327295E+00 -0.23666967644E+02  0.24716572690E+02  0.51100000000E-03 0. -1.
        -11    1    3    3    0    0 -0.14731353969E+02 -0.27608047614E+01 -0.10864174400E+02  0.18511216015E+02  0.51100000000E-03 0.  1.
        -12    1    3    3    0    0 -0.32104548853E+01 -0.32221688063E+01 -0.31544288603E+00  0.45594842472E+01  0.00000000000E+00 0.  1.
</event>
<event>
 7    1  0.2740409E-010  0.4778727E+02  0.7816164E-02  0.1312668E+00
        -11   -1    0    0    0    0  0.00000000000E+00  0.00000000000E+00  0.45593999997E+02  0.45594000000E+02  0.51100000000E-03 0.  1.
         11   -1    0    0    0    0 -0.00000000000E+00 -0.00000000000E+00 -0.45593999997E+02  0.45594000000E+02  0.51100000000E-03 0. -1.
    9900012    2    1    2    0    0 -0.12326114048E+02  0.18970680099E+02 -0.37037863773E+02  0.47787272542E+02  0.20000006830E+02 0.  0.
        -12    1    1    2    0    0  0.12326114048E+02 -0.18970680099E+02  0.37037863773E+02  0.43400727458E+02  0.00000000000E+00 0.  1.
         11    1    3    3    0    0 -0.12950902368E+02  0.18915597306E+02 -0.29527341211E+02  0.37381674292E+02  0.51100000000E-03 0. -1.
        -11    1    3    3    0    0  0.22615486907E+01  0.17789111725E+00  0.41992761695E+00  0.23070732963E+01  0.51100000000E-03 0.  1.
        -12    1    3    3    0    0 -0.16367603704E+01 -0.12280832384E+00 -0.79304501792E+01  0.80985249546E+01  0.00000000000E+00 0.  1.
</event>
<event>
 7    1  0.2740409E-010  0.4778726E+02  0.7816164E-02  0.1312668E+00
        -11   -1    0    0    0    0  0.00000000000E+00  0.00000000000E+00  0.45593999997E+02  0.45594000000E+02  0.51100000000E-03 0. -1.
         11   -1    0    0    0    0 -0.00000000000E+00 -0.00000000000E+00 -0.45593999997E+02  0.45594000000E+02  0.51100000000E-03 0.  1.
    9900012    2    1    2    0    0  0.19658176348E+02 -0.16309521304E+02  0.35088166799E+02  0.47787264616E+02  0.19999970692E+02 0.  0.
        -12    1    1    2    0    0 -0.19658176348E+02  0.16309521304E+02 -0.35088166799E+02  0.43400735384E+02  0.00000000000E+00 0.  1.
         11    1    3    3    0    0  0.19061537447E+02 -0.14159561462E+02  0.17357106867E+02  0.29412659684E+02  0.51100000000E-03 0. -1.
        -11    1    3    3    0    0  0.20958489778E+01 -0.15213102898E+01  0.14781973286E+02  0.15007121724E+02  0.51100000000E-03 0.  1.
         12    1    3    3    0    0 -0.14992100764E+01 -0.62864955136E+00  0.29490866458E+01  0.33674832080E+01  0.00000000000E+00 0. -1.
</event>
<event>
 7    1  0.2740409E-010  0.4778727E+02  0.7816164E-02  0.1312668E+00
        -11   -1    0    0    0    0  0.00000000000E+00  0.00000000000E+00  0.45593999997E+02  0.45594000000E+02  0.51100000000E-03 0.  1.
         11   -1    0    0    0    0 -0.00000000000E+00 -0.00000000000E+00 -0.45593999997E+02  0.45594000000E+02  0.51100000000E-03 0. -1.
    9900012    2    1    2    0    0  0.32594181611E+02 -0.39600583198E+01 -0.28382397402E+02  0.47787271675E+02  0.20000002877E+02 0.  0.
        -12    1    1    2    0    0 -0.32594181611E+02  0.39600583198E+01  0.28382397402E+02  0.43400728325E+02  0.00000000000E+00 0.  1.
         11    1    3    3    0    0  0.12384762382E+02 -0.21032059412E+01 -0.12703749873E+02  0.17865919388E+02  0.51100000000E-03 0. -1.
        -11    1    3    3    0    0  0.15914765546E+02  0.55998736957E+01 -0.10018470376E+02  0.19621623193E+02  0.51100000000E-03 0.  1.
        -12    1    3    3    0    0  0.42946536824E+01 -0.74567260743E+01 -0.56601771538E+01  0.10299729094E+02  0.00000000000E+00 0.  1.
</event>
<event>
 7    1  0.2740409E-010  0.4778727E+02  0.7816164E-02  0.1312668E+00
        -11   -1    0    0    0    0  0.00000000000E+00  0.00000000000E+00  0.45593999997E+02  0.45594000000E+02  0.51100000000E-03 0.  1.
         11   -1    0    0    0    0 -0.00000000000E+00 -0.00000000000E+00 -0.45593999997E+02  0.45594000000E+02  0.51100000000E-03 0. -1.
    9900012    2    1    2    0    0 -0.23448059627E+01 -0.29426488491E+02 -0.31815199180E+02  0.47787271449E+02  0.20000001844E+02 0.  0.
        -12    1    1    2    0    0  0.23448059627E+01  0.29426488491E+02  0.31815199180E+02  0.43400728551E+02  0.00000000000E+00 0.  1.
         11    1    3    3    0    0  0.48722711699E+01 -0.14382100803E+02 -0.76087088816E+01  0.16984590103E+02  0.51100000000E-03 0. -1.
        -11    1    3    3    0    0 -0.41375596672E+01 -0.61762535706E+00 -0.68247588591E+01  0.80048856849E+01  0.51100000000E-03 0.  1.
         12    1    3    3    0    0 -0.30795174655E+01 -0.14426762331E+02 -0.17381731439E+02  0.22797795661E+02  0.00000000000E+00 0. -1.
</event>
<event>
 7    1  0.2740409E-010  0.4778728E+02  0.7816164E-02  0.1312668E+00
        -11   -1    0    0    0    0  0.00000000000E+00  0.00000000000E+00  0.45593999997E+02  0.45594000000E+02  0.51100000000E-03 0.  1.
         11   -1    0    0    0    0 -0.00000000000E+00 -0.00000000000E+00 -0.45593999997E+02  0.45594000000E+02  0.51100000000E-03 0. -1.
    9900012    2    1    2    0    0 -0.19983373819E+02 -0.37877568524E+02 -0.70410830498E+01  0.47787282529E+02  0.20000052364E+02 0.  0.
        -12    1    1    2    0    0  0.19983373819E+02  0.37877568524E+02  0.70410830498E+01  0.43400717471E+02  0.00000000000E+00 0.  1.
         11    1    3    3    0    0 -0.86329342882E+01 -0.22797926034E+02 -0.18200959047E+00  0.24378394402E+02  0.51100000000E-03 0. -1.
        -11    1    3    3    0    0 -0.12175987144E+02 -0.66285921894E+01 -0.48076418785E+01  0.14673319939E+02  0.51100000000E-03 0.  1.
        -12    1    3    3    0    0  0.82554761301E+00 -0.84510503006E+01 -0.20514315808E+01  0.87355681885E+01  0.00000000000E+00 0.  1.
</event>
<event>
 7    1  0.2740409E-010  0.4778727E+02  0.7816164E-02  0.1312668E+00
        -11   -1    0    0    0    0  0.00000000000E+00  0.00000000000E+00  0.45593999997E+02  0.45594000000E+02  0.51100000000E-03 0. -1.
         11   -1    0    0    0    0 -0.00000000000E+00 -0.00000000000E+00 -0.45593999997E+02  0.45594000000E+02  0.51100000000E-03 0.  1.
    9900012    2    1    2    0    0 -0.35584343951E+02  0.16450559152E+02  0.18621409948E+02  0.47787270290E+02  0.19999996562E+02 0.  0.
        -12    1    1    2    0    0  0.35584343951E+02 -0.16450559152E+02 -0.18621409948E+02  0.43400729710E+02  0.00000000000E+00 0.  1.
         11    1    3    3    0    0 -0.21989358068E+02  0.14929975718E+02  0.94753070932E+01  0.28217326024E+02  0.51100000000E-03 0. -1.
        -11    1    3    3    0    0 -0.45691545605E+01 -0.33139719790E+01 -0.28181517116E+00  0.56514603181E+01  0.51100000000E-03 0.  1.
        -12    1    3    3    0    0 -0.90258313227E+01  0.48345554134E+01  0.94279180257E+01  0.13918483948E+02  0.00000000000E+00 0.  1.
</event>
<event>
 7    1  0.2740409E-010  0.4778727E+02  0.7816164E-02  0.1312668E+00
        -11   -1    0    0    0    0  0.00000000000E+00  0.00000000000E+00  0.45593999997E+02  0.45594000000E+02  0.51100000000E-03 0. -1.
         11   -1    0    0    0    0 -0.00000000000E+00 -0.00000000000E+00 -0.45593999997E+02  0.45594000000E+02  0.51100000000E-03 0.  1.
    9900012    2    1    2    0    0 -0.38149421069E+02 -0.10320242954E+02  0.17937054689E+02  0.47787266441E+02  0.19999979013E+02 0.  0.
        -12    1    1    2    0    0  0.38149421069E+02  0.10320242954E+02 -0.17937054689E+02  0.43400733559E+02  0.00000000000E+00 0.  1.
         11    1    3    3    0    0 -0.24810562472E+02 -0.49604104087E+01  0.14229413610E+02  0.29028363605E+02  0.51100000000E-03 0. -1.
        -11    1    3    3    0    0  0.15147168338E+01 -0.12601748700E+01 -0.15187050877E+01  0.24877445998E+01  0.51100000000E-03 0.  1.
        -12    1    3    3    0    0 -0.14853575430E+02 -0.40996576754E+01  0.52263461672E+01  0.16271158237E+02  0.00000000000E+00 0.  1.
</event>
<event>
 7    1  0.2740409E-010  0.4778727E+02  0.7816164E-02  0.1312668E+00
        -11   -1    0    0    0    0  0.00000000000E+00  0.00000000000E+00  0.45593999997E+02  0.45594000000E+02  0.51100000000E-03 0.  1.
         11   -1    0    0    0    0 -0.00000000000E+00 -0.00000000000E+00 -0.45593999997E+02  0.45594000000E+02  0.51100000000E-03 0. -1.
    9900012    2    1    2    0    0  0.35543137005E+02 -0.24707385975E+02 -0.31390848574E+01  0.47787270011E+02  0.19999995288E+02 0.  0.
        -12    1    1    2    0    0 -0.35543137005E+02  0.24707385975E+02  0.31390848574E+01  0.43400729989E+02  0.00000000000E+00 0.  1.
         11    1    3    3    0    0  0.25566411630E+02 -0.14024673934E+02  0.58763677031E+01  0.29746673432E+02  0.51100000000E-03 0. -1.
        -11    1    3    3    0    0  0.89185604619E+01 -0.70925428455E+01 -0.85973996225E+01  0.14274458493E+02  0.51100000000E-03 0.  1.
         12    1    3    3    0    0  0.10581649127E+01 -0.35901691949E+01 -0.41805293806E+00  0.37661380869E+01  0.00000000000E+00 0. -1.
</event>
<event>
 7    1  0.2740409E-010  0.4778727E+02  0.7816164E-02  0.1312668E+00
        -11   -1    0    0    0    0  0.00000000000E+00  0.00000000000E+00  0.45593999997E+02  0.45594000000E+02  0.51100000000E-03 0.  1.
         11   -1    0    0    0    0 -0.00000000000E+00 -0.00000000000E+00 -0.45593999997E+02  0.45594000000E+02  0.51100000000E-03 0. -1.
    9900012    2    1    2    0    0 -0.30329595584E+02  0.15153741484E+02 -0.27094330842E+02  0.47787274050E+02  0.20000013703E+02 0.  0.
        -12    1    1    2    0    0  0.30329595584E+02 -0.15153741484E+02  0.27094330842E+02  0.43400725950E+02  0.00000000000E+00 0.  1.
         11    1    3    3    0    0 -0.49969436156E+01  0.37336608533E+01 -0.69788291263E+01  0.93602203554E+01  0.51100000000E-03 0. -1.
        -11    1    3    3    0    0 -0.24466766761E+02  0.12850433871E+02 -0.22415267869E+02  0.35583712008E+02  0.51100000000E-03 0.  1.
        -12    1    3    3    0    0 -0.86588520709E+00 -0.14303532397E+01  0.22997661537E+01  0.28433416861E+01  0.00000000000E+00 0.  1.
</event>
<event>
 7    1  0.2740409E-010  0.4778727E+02  0.7816164E-02  0.1312668E+00
        -11   -1    0    0    0    0  0.00000000000E+00  0.00000000000E+00  0.45593999997E+02  0.45594000000E+02  0.51100000000E-03 0. -1.
         11   -1    0    0    0    0 -0.00000000000E+00 -0.00000000000E+00 -0.45593999997E+02  0.45594000000E+02  0.51100000000E-03 0.  1.
    9900012    2    1    2    0    0  0.91400574025E+01  0.32241311940E+02  0.27578620756E+02  0.47787272268E+02  0.20000005577E+02 0.  0.
        -12    1    1    2    0    0 -0.91400574025E+01 -0.32241311940E+02 -0.27578620756E+02  0.43400727732E+02  0.00000000000E+00 0.  1.
         11    1    3    3    0    0  0.28595601310E+00 -0.21601551053E-01 -0.22523579044E+01  0.22705404333E+01  0.51100000000E-03 0. -1.
        -11    1    3    3    0    0  0.40690425043E+01  0.43471702218E+01  0.39137368347E+01  0.71254706589E+01  0.51100000000E-03 0.  1.
         12    1    3    3    0    0  0.47850588851E+01  0.27915743269E+02  0.25917241825E+02  0.38391261175E+02  0.00000000000E+00 0. -1.
</event>
<event>
 7    1  0.2740409E-010  0.4778727E+02  0.7816164E-02  0.1312668E+00
        -11   -1    0    0    0    0  0.00000000000E+00  0.00000000000E+00  0.45593999997E+02  0.45594000000E+02  0.51100000000E-03 0.  1.
         11   -1    0    0    0    0 -0.00000000000E+00 -0.00000000000E+00 -0.45593999997E+02  0.45594000000E+02  0.51100000000E-03 0. -1.
    9900012    2    1    2    0    0 -0.78925781039E+01 -0.97475955379E+01 -0.41548945474E+02  0.47787270998E+02  0.19999999787E+02 0.  0.
        -12    1    1    2    0    0  0.78925781039E+01  0.97475955379E+01  0.41548945474E+02  0.43400729002E+02  0.00000000000E+00 0.  1.
         11    1    3    3    0    0 -0.74418646573E+01 -0.35331394616E+01 -0.25577830357E+02  0.26871729198E+02  0.51100000000E-03 0. -1.
        -11    1    3    3    0    0  0.23144166550E+01  0.15533600406E+01  0.16774352330E+00  0.27924165197E+01  0.51100000000E-03 0.  1.
        -12    1    3    3    0    0 -0.27651301016E+01 -0.77678161169E+01 -0.16138858640E+02  0.18123125280E+02  0.00000000000E+00 0.  1.
</event>
<event>
 7    1  0.2740409E-010  0.4778727E+02  0.7816164E-02  0.1312668E+00
        -11   -1    0    0    0    0  0.00000000000E+00  0.00000000000E+00  0.45593999997E+02  0.45594000000E+02  0.51100000000E-03 0.  1.
         11   -1    0    0    0    0 -0.00000000000E+00 -0.00000000000E+00 -0.45593999997E+02  0.45594000000E+02  0.51100000000E-03 0. -1.
    9900012    2    1    2    0    0 -0.18738114591E+02  0.18813809142E+02 -0.34329967444E+02  0.47787273997E+02  0.20000013462E+02 0.  0.
        -12    1    1    2    0    0  0.18738114591E+02 -0.18813809142E+02  0.34329967444E+02  0.43400726003E+02  0.00000000000E+00 0.  1.
         11    1    3    3    0    0 -0.64316072420E+01  0.10684196034E+02 -0.23601819375E+02  0.26693884968E+02  0.51100000000E-03 0. -1.
        -11    1    3    3    0    0 -0.28701807037E+01  0.55381377852E+01  0.42949055062E+00  0.62524690957E+01  0.51100000000E-03 0.  1.
        -12    1    3    3    0    0 -0.94363266452E+01  0.25914753238E+01 -0.11157638619E+02  0.14840919933E+02  0.00000000000E+00 0.  1.
</event>
<event>
 7    1  0.2740409E-010  0.4778727E+02  0.7816164E-02  0.1312668E+00
        -11   -1    0    0    0    0  0.00000000000E+00  0.00000000000E+00  0.45593999997E+02  0.45594000000E+02  0.51100000000E-03 0.  1.
         11   -1    0    0    0    0 -0.00000000000E+00 -0.00000000000E+00 -0.45593999997E+02  0.45594000000E+02  0.51100000000E-03 0. -1.
    9900012    2    1    2    0    0 -0.90720057442E+01 -0.11278722260E+02 -0.40915920633E+02  0.47787269300E+02  0.19999992045E+02 0.  0.
        -12    1    1    2    0    0  0.90720057442E+01  0.11278722260E+02  0.40915920633E+02  0.43400730700E+02  0.00000000000E+00 0.  1.
         11    1    3    3    0    0 -0.54324224076E+01 -0.14411677111E+02 -0.23376809478E+02  0.27994336427E+02  0.51100000000E-03 0. -1.
        -11    1    3    3    0    0  0.41067698069E+00  0.19843940019E+01 -0.30160333010E+00  0.20487654739E+01  0.51100000000E-03 0.  1.
         12    1    3    3    0    0 -0.40502603173E+01  0.11485608483E+01 -0.17237507825E+02  0.17744167399E+02  0.00000000000E+00 0. -1.
</event>
<event>
 7    1  0.2740409E-010  0.4778727E+02  0.7816164E-02  0.1312668E+00
        -11   -1    0    0    0    0  0.00000000000E+00  0.00000000000E+00  0.45593999997E+02  0.45594000000E+02  0.51100000000E-03 0. -1.
         11   -1    0    0    0    0 -0.00000000000E+00 -0.00000000000E+00 -0.45593999997E+02  0.45594000000E+02  0.51100000000E-03 0.  1.
    9900012    2    1    2    0    0  0.24309601062E+02  0.35121056529E+02  0.76927301151E+01  0.47787269451E+02  0.19999992737E+02 0.  0.
        -12    1    1    2    0    0 -0.24309601062E+02 -0.35121056529E+02 -0.76927301151E+01  0.43400730549E+02  0.00000000000E+00 0.  1.
         11    1    3    3    0    0  0.10967243523E+02  0.73486878979E+01  0.90539221894E+01  0.16008033970E+02  0.51100000000E-03 0. -1.
        -11    1    3    3    0    0  0.42186121385E+01  0.17319182750E+02  0.11614532017E+00  0.17825943720E+02  0.51100000000E-03 0.  1.
        -12    1    3    3    0    0  0.91237454006E+01  0.10453185881E+02 -0.14773373945E+01  0.13953291761E+02  0.00000000000E+00 0.  1.
</event>
<event>
 7    1  0.2740409E-010  0.4778727E+02  0.7816164E-02  0.1312668E+00
        -11   -1    0    0    0    0  0.00000000000E+00  0.00000000000E+00  0.45593999997E+02  0.45594000000E+02  0.51100000000E-03 0.  1.
         11   -1    0    0    0    0 -0.00000000000E+00 -0.00000000000E+00 -0.45593999997E+02  0.45594000000E+02  0.51100000000E-03 0. -1.
    9900012    2    1    2    0    0  0.10713942563E+02  0.30993442502E+02 -0.28429583307E+02  0.47787271315E+02  0.20000001235E+02 0.  0.
        -12    1    1    2    0    0 -0.10713942563E+02 -0.30993442502E+02  0.28429583307E+02  0.43400728685E+02  0.00000000000E+00 0.  1.
         11    1    3    3    0    0  0.71091202571E+01  0.32454508249E+01 -0.83533316673E+00  0.78594098791E+01  0.51100000000E-03 0. -1.
        -11    1    3    3    0    0  0.66803926270E+00  0.16877903360E+02 -0.12115365927E+02  0.20786822511E+02  0.51100000000E-03 0.  1.
         12    1    3    3    0    0  0.29367830432E+01  0.10870088317E+02 -0.15478884213E+02  0.19141038926E+02  0.00000000000E+00 0. -1.
</event>
<event>
 7    1  0.2740409E-010  0.4778732E+02  0.7816164E-02  0.1312668E+00
        -11   -1    0    0    0    0  0.00000000000E+00  0.00000000000E+00  0.45593999997E+02  0.45594000000E+02  0.51100000000E-03 0.  1.
         11   -1    0    0    0    0 -0.00000000000E+00 -0.00000000000E+00 -0.45593999997E+02  0.45594000000E+02  0.51100000000E-03 0. -1.
    9900012    2    1    2    0    0 -0.28173251913E+02 -0.16977241753E+02 -0.28313605794E+02  0.47787318739E+02  0.20000217457E+02 0.  0.
        -12    1    1    2    0    0  0.28173251913E+02  0.16977241753E+02  0.28313605794E+02  0.43400681261E+02  0.00000000000E+00 0.  1.
         11    1    3    3    0    0 -0.10552728398E+01 -0.16604356331E+01 -0.11646064420E+02  0.11811073787E+02  0.51100000000E-03 0. -1.
        -11    1    3    3    0    0 -0.84584872824E+00 -0.24624489581E+01 -0.94429798153E+00  0.27696234187E+01  0.51100000000E-03 0.  1.
         12    1    3    3    0    0 -0.26272130345E+02 -0.12854357161E+02 -0.15723243393E+02  0.33206621533E+02  0.00000000000E+00 0. -1.
</event>
<event>
 7    1  0.2740409E-010  0.4778727E+02  0.7816164E-02  0.1312668E+00
        -11   -1    0    0    0    0  0.00000000000E+00  0.00000000000E+00  0.45593999997E+02  0.45594000000E+02  0.51100000000E-03 0.  1.
         11   -1    0    0    0    0 -0.00000000000E+00 -0.00000000000E+00 -0.45593999997E+02  0.45594000000E+02  0.51100000000E-03 0. -1.
    9900012    2    1    2    0    0 -0.28839742957E+02 -0.13280916421E+02 -0.29589009792E+02  0.47787274024E+02  0.20000013583E+02 0.  0.
        -12    1    1    2    0    0  0.28839742957E+02  0.13280916421E+02  0.29589009792E+02  0.43400725976E+02  0.00000000000E+00 0.  1.
         11    1    3    3    0    0 -0.21512712471E+02 -0.10511090127E+02 -0.11556813983E+02  0.26586458268E+02  0.51100000000E-03 0. -1.
        -11    1    3    3    0    0 -0.38855895573E+01 -0.26428167403E+01 -0.16952498155E+02  0.17591744668E+02  0.51100000000E-03 0.  1.
        -12    1    3    3    0    0 -0.34414409281E+01 -0.12700955415E+00 -0.10796976547E+01  0.36090710874E+01  0.00000000000E+00 0.  1.
</event>
<event>
 7    1  0.2740409E-010  0.4778727E+02  0.7816164E-02  0.1312668E+00
        -11   -1    0    0    0    0  0.00000000000E+00  0.00000000000E+00  0.45593999997E+02  0.45594000000E+02  0.51100000000E-03 0.  1.
         11   -1    0    0    0    0 -0.00000000000E+00 -0.00000000000E+00 -0.45593999997E+02  0.45594000000E+02  0.51100000000E-03 0. -1.
    9900012    2    1    2    0    0  0.34213526834E+02 -0.13731937239E+02 -0.22901785740E+02  0.47787270641E+02  0.19999998163E+02 0.  0.
        -12    1    1    2    0    0 -0.34213526834E+02  0.13731937239E+02  0.22901785740E+02  0.43400729359E+02  0.00000000000E+00 0.  1.
         11    1    3    3    0    0  0.95160723466E+01 -0.29583409564E+01 -0.16056416114E+02  0.18897510757E+02  0.51100000000E-03 0. -1.
        -11    1    3    3    0    0  0.18987771074E+02 -0.10502060730E+02 -0.27812445740E+01  0.21876106865E+02  0.51100000000E-03 0.  1.
        -12    1    3    3    0    0  0.57096834136E+01 -0.27153555353E+00 -0.40641250512E+01  0.70136530191E+01  0.00000000000E+00 0.  1.
</event>
<event>
 7    1  0.2740409E-010  0.4778727E+02  0.7816164E-02  0.1312668E+00
        -11   -1    0    0    0    0  0.00000000000E+00  0.00000000000E+00  0.45593999997E+02  0.45594000000E+02  0.51100000000E-03 0.  1.
         11   -1    0    0    0    0 -0.00000000000E+00 -0.00000000000E+00 -0.45593999997E+02  0.45594000000E+02  0.51100000000E-03 0. -1.
    9900012    2    1    2    0    0  0.19528644219E+02  0.22402670075E+02 -0.31628712912E+02  0.47787273601E+02  0.20000011655E+02 0.  0.
        -12    1    1    2    0    0 -0.19528644219E+02 -0.22402670075E+02  0.31628712912E+02  0.43400726399E+02  0.00000000000E+00 0.  1.
         11    1    3    3    0    0  0.40778408751E+01  0.93535815148E+01 -0.97669913272E+01  0.14124885600E+02  0.51100000000E-03 0. -1.
        -11    1    3    3    0    0  0.16625472454E+01  0.19127734657E+01 -0.14078706871E+02  0.14304990496E+02  0.51100000000E-03 0.  1.
        -12    1    3    3    0    0  0.13788256099E+02  0.11136315094E+02 -0.77830147139E+01  0.19357397505E+02  0.00000000000E+00 0.  1.
</event>
<event>
 7    1  0.2740409E-010  0.4778725E+02  0.7816164E-02  0.1312668E+00
        -11   -1    0    0    0    0  0.00000000000E+00  0.00000000000E+00  0.45593999997E+02  0.45594000000E+02  0.51100000000E-03 0. -1.
         11   -1    0    0    0    0 -0.00000000000E+00 -0.00000000000E+00 -0.45593999997E+02  0.45594000000E+02  0.51100000000E-03 0.  1.
    9900012    2    1    2    0    0  0.41893533181E+02  0.10742238146E+02  0.36278731253E+01  0.47787248092E+02  0.19999895350E+02 0.  0.
        -12    1    1    2    0    0 -0.41893533181E+02 -0.10742238146E+02 -0.36278731253E+01  0.43400751908E+02  0.00000000000E+00 0.  1.
         11    1    3    3    0    0  0.25292437307E+01 -0.31383285524E+01 -0.31152990693E+01  0.50942387561E+01  0.51100000000E-03 0.  1.
        -11    1    3    3    0    0  0.24459346163E+02  0.62514491646E+01  0.59109989724E+01  0.25928365558E+02  0.51100000000E-03 0. -1.
        -12    1    3    3    0    0  0.14904943287E+02  0.76291175340E+01  0.83217322224E+00  0.16764643778E+02  0.00000000000E+00 0.  1.
</event>
<event>
 7    1  0.2740409E-010  0.4778727E+02  0.7816164E-02  0.1312668E+00
        -11   -1    0    0    0    0  0.00000000000E+00  0.00000000000E+00  0.45593999997E+02  0.45594000000E+02  0.51100000000E-03 0.  1.
         11   -1    0    0    0    0 -0.00000000000E+00 -0.00000000000E+00 -0.45593999997E+02  0.45594000000E+02  0.51100000000E-03 0. -1.
    9900012    2    1    2    0    0 -0.13544638966E+01 -0.12959023475E+02 -0.41398699733E+02  0.47787271879E+02  0.20000003805E+02 0.  0.
        -12    1    1    2    0    0  0.13544638966E+01  0.12959023475E+02  0.41398699733E+02  0.43400728121E+02  0.00000000000E+00 0.  1.
         11    1    3    3    0    0 -0.44057015160E+01 -0.43460384874E+01 -0.19271507894E+02  0.20240782424E+02  0.51100000000E-03 0. -1.
        -11    1    3    3    0    0  0.22353229166E+01 -0.65747430513E+01 -0.18987418138E+01  0.71992454791E+01  0.51100000000E-03 0.  1.
        -12    1    3    3    0    0  0.81591470280E+00 -0.20382419367E+01 -0.20228450025E+02  0.20347243975E+02  0.00000000000E+00 0.  1.
</event>
<event>
 7    1  0.2740409E-010  0.4778727E+02  0.7816164E-02  0.1312668E+00
        -11   -1    0    0    0    0  0.00000000000E+00  0.00000000000E+00  0.45593999997E+02  0.45594000000E+02  0.51100000000E-03 0.  1.
         11   -1    0    0    0    0 -0.00000000000E+00 -0.00000000000E+00 -0.45593999997E+02  0.45594000000E+02  0.51100000000E-03 0. -1.
    9900012    2    1    2    0    0 -0.37149087253E+02  0.38748363149E+01 -0.22103263586E+02  0.47787270728E+02  0.19999998558E+02 0.  0.
        -12    1    1    2    0    0  0.37149087253E+02 -0.38748363149E+01  0.22103263586E+02  0.43400729272E+02  0.00000000000E+00 0.  1.
         11    1    3    3    0    0 -0.35065218865E+02  0.85404461801E+01 -0.15339374589E+02  0.39214859531E+02  0.51100000000E-03 0.  1.
        -11    1    3    3    0    0 -0.19207538661E+01 -0.30262876304E+01 -0.41607031628E+01  0.54917359101E+01  0.51100000000E-03 0. -1.
        -12    1    3    3    0    0 -0.16311452171E+00 -0.16393222348E+01 -0.26031858343E+01  0.30806752871E+01  0.00000000000E+00 0.  1.
</event>
<event>
 7    1  0.2740409E-010  0.4778727E+02  0.7816164E-02  0.1312668E+00
        -11   -1    0    0    0    0  0.00000000000E+00  0.00000000000E+00  0.45593999997E+02  0.45594000000E+02  0.51100000000E-03 0.  1.
         11   -1    0    0    0    0 -0.00000000000E+00 -0.00000000000E+00 -0.45593999997E+02  0.45594000000E+02  0.51100000000E-03 0. -1.
    9900012    2    1    2    0    0  0.54540608054E+01  0.15000119360E+01 -0.43030533208E+02  0.47787267250E+02  0.19999982700E+02 0.  0.
        -12    1    1    2    0    0 -0.54540608054E+01 -0.15000119360E+01  0.43030533208E+02  0.43400732750E+02  0.00000000000E+00 0.  1.
         11    1    3    3    0    0 -0.19212547207E+01  0.45887228972E+01 -0.34966103321E+02  0.35318210306E+02  0.51100000000E-03 0. -1.
        -11    1    3    3    0    0  0.70544911066E+01 -0.76861779950E+00 -0.66945422086E+01  0.97556913512E+01  0.51100000000E-03 0.  1.
        -12    1    3    3    0    0  0.32082441941E+00 -0.23200931617E+01 -0.13698876785E+01  0.27133655926E+01  0.00000000000E+00 0.  1.
</event>
<event>
 7    1  0.2740409E-010  0.4778728E+02  0.7816164E-02  0.1312668E+00
        -11   -1    0    0    0    0  0.00000000000E+00  0.00000000000E+00  0.45593999997E+02  0.45594000000E+02  0.51100000000E-03 0. -1.
         11   -1    0    0    0    0 -0.00000000000E+00 -0.00000000000E+00 -0.45593999997E+02  0.45594000000E+02  0.51100000000E-03 0.  1.
    9900012    2    1    2    0    0 -0.41828165613E+02  0.11572022439E+02 -0.33949594423E+00  0.47787281119E+02  0.20000045933E+02 0.  0.
        -12    1    1    2    0    0  0.41828165613E+02 -0.11572022439E+02  0.33949594423E+00  0.43400718881E+02  0.00000000000E+00 0.  1.
         11    1    3    3    0    0 -0.10794929746E+02 -0.56825479538E+01  0.91717526752E+00  0.12233685879E+02  0.51100000000E-03 0.  1.
        -11    1    3    3    0    0 -0.23546897744E+02  0.12446959116E+02 -0.96238568108E+00  0.26651629801E+02  0.51100000000E-03 0. -1.
        -12    1    3    3    0    0 -0.74863381232E+01  0.48076112770E+01 -0.29428553068E+00  0.89019654380E+01  0.00000000000E+00 0.  1.
</event>
<event>
 7    1  0.2740409E-010  0.4778724E+02  0.7816164E-02  0.1312668E+00
        -11   -1    0    0    0    0  0.00000000000E+00  0.00000000000E+00  0.45593999997E+02  0.45594000000E+02  0.51100000000E-03 0.  1.
         11   -1    0    0    0    0 -0.00000000000E+00 -0.00000000000E+00 -0.45593999997E+02  0.45594000000E+02  0.51100000000E-03 0. -1.
    9900012    2    1    2    0    0 -0.32259518489E+02 -0.11687899163E+02 -0.26577102201E+02  0.47787241005E+02  0.19999863036E+02 0.  0.
        -12    1    1    2    0    0  0.32259518489E+02  0.11687899163E+02  0.26577102201E+02  0.43400758995E+02  0.00000000000E+00 0.  1.
         11    1    3    3    0    0 -0.27655349506E+02 -0.34863774522E+01 -0.22959214361E+02  0.36112306883E+02  0.51100000000E-03 0. -1.
        -11    1    3    3    0    0 -0.17215287430E+01 -0.56206065696E+01  0.65008419922E+00  0.59141769631E+01  0.51100000000E-03 0.  1.
         12    1    3    3    0    0 -0.28826402394E+01 -0.25809151414E+01 -0.42679720392E+01  0.57607571589E+01  0.00000000000E+00 0. -1.
</event>
<event>
 7    1  0.2740409E-010  0.4778728E+02  0.7816164E-02  0.1312668E+00
        -11   -1    0    0    0    0  0.00000000000E+00  0.00000000000E+00  0.45593999997E+02  0.45594000000E+02  0.51100000000E-03 0. -1.
         11   -1    0    0    0    0 -0.00000000000E+00 -0.00000000000E+00 -0.45593999997E+02  0.45594000000E+02  0.51100000000E-03 0.  1.
    9900012    2    1    2    0    0  0.28148618345E+02  0.20935518776E+02  0.25553515776E+02  0.47787276162E+02  0.20000023332E+02 0.  0.
        -12    1    1    2    0    0 -0.28148618345E+02 -0.20935518776E+02 -0.25553515776E+02  0.43400723838E+02  0.00000000000E+00 0.  1.
         11    1    3    3    0    0  0.15769929434E+01 -0.12305751154E+01  0.21480805520E+01  0.29352124586E+01  0.51100000000E-03 0. -1.
        -11    1    3    3    0    0 -0.16363049664E+01  0.37572650480E+01  0.52304910409E+00  0.41313575506E+01  0.51100000000E-03 0.  1.
        -12    1    3    3    0    0  0.28207930368E+02  0.18408828843E+02  0.22882386120E+02  0.40720706153E+02  0.00000000000E+00 0.  1.
</event>
<event>
 7    1  0.2740409E-010  0.4778728E+02  0.7816164E-02  0.1312668E+00
        -11   -1    0    0    0    0  0.00000000000E+00  0.00000000000E+00  0.45593999997E+02  0.45594000000E+02  0.51100000000E-03 0. -1.
         11   -1    0    0    0    0 -0.00000000000E+00 -0.00000000000E+00 -0.45593999997E+02  0.45594000000E+02  0.51100000000E-03 0.  1.
    9900012    2    1    2    0    0 -0.23199848933E+02  0.11380215416E+02  0.34869477418E+02  0.47787277094E+02  0.20000027581E+02 0.  0.
        -12    1    1    2    0    0  0.23199848933E+02 -0.11380215416E+02 -0.34869477418E+02  0.43400722906E+02  0.00000000000E+00 0.  1.
         11    1    3    3    0    0 -0.10421291461E+01  0.51984223630E+01  0.12947955316E+02  0.13991396476E+02  0.51100000000E-03 0. -1.
        -11    1    3    3    0    0 -0.65746317072E+01  0.85130252534E+00  0.14063441936E+02  0.15547697496E+02  0.51100000000E-03 0.  1.
         12    1    3    3    0    0 -0.15583088080E+02  0.53304905272E+01  0.78580801658E+01  0.18248183122E+02  0.00000000000E+00 0. -1.
</event>
<event>
 7    1  0.2740409E-010  0.4778727E+02  0.7816164E-02  0.1312668E+00
        -11   -1    0    0    0    0  0.00000000000E+00  0.00000000000E+00  0.45593999997E+02  0.45594000000E+02  0.51100000000E-03 0. -1.
         11   -1    0    0    0    0 -0.00000000000E+00 -0.00000000000E+00 -0.45593999997E+02  0.45594000000E+02  0.51100000000E-03 0.  1.
    9900012    2    1    2    0    0  0.24386406840E+02 -0.18029826081E+02  0.31045965954E+02  0.47787268796E+02  0.19999989748E+02 0.  0.
        -12    1    1    2    0    0 -0.24386406840E+02  0.18029826081E+02 -0.31045965954E+02  0.43400731204E+02  0.00000000000E+00 0.  1.
         11    1    3    3    0    0  0.36749778885E+01 -0.51368788107E+01  0.40246496197E+01  0.74893785603E+01  0.51100000000E-03 0. -1.
        -11    1    3    3    0    0  0.36094383687E+01 -0.49383390203E+01 -0.13165762729E+01  0.62568850844E+01  0.51100000000E-03 0.  1.
        -12    1    3    3    0    0  0.17101990582E+02 -0.79546082500E+01  0.28337892607E+02  0.34041005151E+02  0.00000000000E+00 0.  1.
</event>
<event>
 7    1  0.2740409E-010  0.4778727E+02  0.7816164E-02  0.1312668E+00
        -11   -1    0    0    0    0  0.00000000000E+00  0.00000000000E+00  0.45593999997E+02  0.45594000000E+02  0.51100000000E-03 0.  1.
         11   -1    0    0    0    0 -0.00000000000E+00 -0.00000000000E+00 -0.45593999997E+02  0.45594000000E+02  0.51100000000E-03 0. -1.
    9900012    2    1    2    0    0 -0.19626619074E+02 -0.26703605141E+02 -0.28023851387E+02  0.47787274771E+02  0.20000016991E+02 0.  0.
        -12    1    1    2    0    0  0.19626619074E+02  0.26703605141E+02  0.28023851387E+02  0.43400725229E+02  0.00000000000E+00 0.  1.
         11    1    3    3    0    0 -0.14671271981E+02 -0.20738316900E+02 -0.23732033998E+02  0.34763967658E+02  0.51100000000E-03 0. -1.
        -11    1    3    3    0    0  0.11714070973E+01  0.91197425806E+00  0.15261998251E+01  0.21291260654E+01  0.51100000000E-03 0.  1.
        -12    1    3    3    0    0 -0.61267541899E+01 -0.68772624993E+01 -0.58180172140E+01  0.10894181047E+02  0.00000000000E+00 0.  1.
</event>
<event>
 7    1  0.2740409E-010  0.4778728E+02  0.7816164E-02  0.1312668E+00
        -11   -1    0    0    0    0  0.00000000000E+00  0.00000000000E+00  0.45593999997E+02  0.45594000000E+02  0.51100000000E-03 0. -1.
         11   -1    0    0    0    0 -0.00000000000E+00 -0.00000000000E+00 -0.45593999997E+02  0.45594000000E+02  0.51100000000E-03 0.  1.
    9900012    2    1    2    0    0 -0.41050324451E+02 -0.56828764654E+01  0.12891790590E+02  0.47787280109E+02  0.20000041329E+02 0.  0.
        -12    1    1    2    0    0  0.41050324451E+02  0.56828764654E+01 -0.12891790590E+02  0.43400719891E+02  0.00000000000E+00 0.  1.
         11    1    3    3    0    0 -0.35447606504E+02 -0.11424411343E+01  0.79853997843E+01  0.36353879966E+02  0.51100000000E-03 0. -1.
        -11    1    3    3    0    0 -0.56509927019E+00  0.19741287873E+01  0.59459810008E+00  0.21377719279E+01  0.51100000000E-03 0.  1.
         12    1    3    3    0    0 -0.50376186771E+01 -0.65145641185E+01  0.43117927053E+01  0.92956282156E+01  0.00000000000E+00 0. -1.
</event>
<event>
 7    1  0.2740409E-010  0.4778727E+02  0.7816164E-02  0.1312668E+00
        -11   -1    0    0    0    0  0.00000000000E+00  0.00000000000E+00  0.45593999997E+02  0.45594000000E+02  0.51100000000E-03 0. -1.
         11   -1    0    0    0    0 -0.00000000000E+00 -0.00000000000E+00 -0.45593999997E+02  0.45594000000E+02  0.51100000000E-03 0.  1.
    9900012    2    1    2    0    0  0.41862682403E+02  0.41981671517E+01 -0.10654313398E+02  0.47787272133E+02  0.20000004962E+02 0.  0.
        -12    1    1    2    0    0 -0.41862682403E+02 -0.41981671517E+01  0.10654313398E+02  0.43400727867E+02  0.00000000000E+00 0.  1.
         11    1    3    3    0    0  0.29994356169E+02 -0.81490073525E+00 -0.59707082750E+00  0.30011363832E+02  0.51100000000E-03 0. -1.
        -11    1    3    3    0    0  0.86318699241E+01  0.30519604555E+01 -0.10539749564E+02  0.13961015799E+02  0.51100000000E-03 0.  1.
        -12    1    3    3    0    0  0.32364563099E+01  0.19611074314E+01  0.48250699353E+00  0.38148925021E+01  0.00000000000E+00 0.  1.
</event>
<event>
 7    1  0.2740409E-010  0.4778727E+02  0.7816164E-02  0.1312668E+00
        -11   -1    0    0    0    0  0.00000000000E+00  0.00000000000E+00  0.45593999997E+02  0.45594000000E+02  0.51100000000E-03 0.  1.
         11   -1    0    0    0    0 -0.00000000000E+00 -0.00000000000E+00 -0.45593999997E+02  0.45594000000E+02  0.51100000000E-03 0. -1.
    9900012    2    1    2    0    0  0.28600267185E+02 -0.23568651305E+02 -0.22586872214E+02  0.47787269547E+02  0.19999993173E+02 0.  0.
        -12    1    1    2    0    0 -0.28600267185E+02  0.23568651305E+02  0.22586872214E+02  0.43400730453E+02  0.00000000000E+00 0.  1.
         11    1    3    3    0    0  0.23272168726E+02 -0.15558941519E+02 -0.87216174391E+01  0.29321342217E+02  0.51100000000E-03 0. -1.
        -11    1    3    3    0    0 -0.12324429621E+01  0.47768268390E+00 -0.74092954523E+00  0.15152799258E+01  0.51100000000E-03 0.  1.
         12    1    3    3    0    0  0.65605414217E+01 -0.84873924706E+01 -0.13124325230E+02  0.16950647404E+02  0.00000000000E+00 0. -1.
</event>
<event>
 7    1  0.2740409E-010  0.4778727E+02  0.7816164E-02  0.1312668E+00
        -11   -1    0    0    0    0  0.00000000000E+00  0.00000000000E+00  0.45593999997E+02  0.45594000000E+02  0.51100000000E-03 0. -1.
         11   -1    0    0    0    0 -0.00000000000E+00 -0.00000000000E+00 -0.45593999997E+02  0.45594000000E+02  0.51100000000E-03 0.  1.
    9900012    2    1    2    0    0 -0.81153274971E+01 -0.35941724928E+02  0.22933754681E+02  0.47787271493E+02  0.20000002043E+02 0.  0.
        -12    1    1    2    0    0  0.81153274971E+01  0.35941724928E+02 -0.22933754681E+02  0.43400728507E+02  0.00000000000E+00 0.  1.
         11    1    3    3    0    0 -0.33766509286E+01 -0.60555824624E+01  0.78085744994E+01  0.10442494263E+02  0.51100000000E-03 0. -1.
        -11    1    3    3    0    0 -0.97396474218E+01 -0.23989302742E+02  0.14276859687E+02  0.29566469197E+02  0.51100000000E-03 0.  1.
        -12    1    3    3    0    0  0.50009708533E+01 -0.58968397234E+01  0.84832049492E+00  0.77783080333E+01  0.00000000000E+00 0.  1.
</event>
<event>
 7    1  0.2740409E-010  0.4778727E+02  0.7816164E-02  0.1312668E+00
        -11   -1    0    0    0    0  0.00000000000E+00  0.00000000000E+00  0.45593999997E+02  0.45594000000E+02  0.51100000000E-03 0.  1.
         11   -1    0    0    0    0 -0.00000000000E+00 -0.00000000000E+00 -0.45593999997E+02  0.45594000000E+02  0.51100000000E-03 0. -1.
    9900012    2    1    2    0    0  0.35507031298E+02 -0.44874779877E+01 -0.24550693144E+02  0.47787271157E+02  0.20000000513E+02 0.  0.
        -12    1    1    2    0    0 -0.35507031298E+02  0.44874779877E+01  0.24550693144E+02  0.43400728843E+02  0.00000000000E+00 0.  1.
         11    1    3    3    0    0  0.12018313195E+02 -0.12690409771E+01 -0.12845075867E+02  0.17636504511E+02  0.51100000000E-03 0. -1.
        -11    1    3    3    0    0  0.53341375043E+01  0.53761445865E+01 -0.19478343720E+01  0.78198473471E+01  0.51100000000E-03 0.  1.
        -12    1    3    3    0    0  0.18154580598E+02 -0.85945815972E+01 -0.97577829044E+01  0.22330919299E+02  0.00000000000E+00 0.  1.
</event>
<event>
 7    1  0.2740409E-010  0.4778727E+02  0.7816164E-02  0.1312668E+00
        -11   -1    0    0    0    0  0.00000000000E+00  0.00000000000E+00  0.45593999997E+02  0.45594000000E+02  0.51100000000E-03 0.  1.
         11   -1    0    0    0    0 -0.00000000000E+00 -0.00000000000E+00 -0.45593999997E+02  0.45594000000E+02  0.51100000000E-03 0. -1.
    9900012    2    1    2    0    0  0.26256540908E+02 -0.18950718061E+02 -0.28897880382E+02  0.47787272517E+02  0.20000006714E+02 0.  0.
        -12    1    1    2    0    0 -0.26256540908E+02  0.18950718061E+02  0.28897880382E+02  0.43400727483E+02  0.00000000000E+00 0.  1.
         11    1    3    3    0    0  0.72192428986E+01 -0.51324165019E+01 -0.71439449521E+01  0.11379592124E+02  0.51100000000E-03 0. -1.
        -11    1    3    3    0    0  0.15444466035E+02 -0.35122730779E+01 -0.19740498067E+02  0.25309185240E+02  0.51100000000E-03 0.  1.
        -12    1    3    3    0    0  0.35928319738E+01 -0.10306028481E+02 -0.20134373629E+01  0.11098495153E+02  0.00000000000E+00 0.  1.
</event>
<event>
 7    1  0.2740409E-010  0.4778727E+02  0.7816164E-02  0.1312668E+00
        -11   -1    0    0    0    0  0.00000000000E+00  0.00000000000E+00  0.45593999997E+02  0.45594000000E+02  0.51100000000E-03 0.  1.
         11   -1    0    0    0    0 -0.00000000000E+00 -0.00000000000E+00 -0.45593999997E+02  0.45594000000E+02  0.51100000000E-03 0. -1.
    9900012    2    1    2    0    0  0.31302272354E+02 -0.21949368564E+02 -0.20543032000E+02  0.47787271911E+02  0.20000003950E+02 0.  0.
        -12    1    1    2    0    0 -0.31302272354E+02  0.21949368564E+02  0.20543032000E+02  0.43400728089E+02  0.00000000000E+00 0.  1.
         11    1    3    3    0    0  0.11226760081E+02 -0.71489587943E+01 -0.18751047611E+01  0.13441122419E+02  0.51100000000E-03 0. -1.
        -11    1    3    3    0    0  0.19626227649E+02 -0.13201594157E+02 -0.20900073254E+02  0.31563966200E+02  0.51100000000E-03 0.  1.
        -12    1    3    3    0    0  0.44928462451E+00 -0.15988156129E+01  0.22321460146E+01  0.27821832916E+01  0.00000000000E+00 0.  1.
</event>
<event>
 7    1  0.2740409E-010  0.4778727E+02  0.7816164E-02  0.1312668E+00
        -11   -1    0    0    0    0  0.00000000000E+00  0.00000000000E+00  0.45593999997E+02  0.45594000000E+02  0.51100000000E-03 0.  1.
         11   -1    0    0    0    0 -0.00000000000E+00 -0.00000000000E+00 -0.45593999997E+02  0.45594000000E+02  0.51100000000E-03 0. -1.
    9900012    2    1    2    0    0  0.35450435833E+02  0.46908435316E+01 -0.24594426256E+02  0.47787271704E+02  0.20000003006E+02 0.  0.
        -12    1    1    2    0    0 -0.35450435833E+02 -0.46908435316E+01  0.24594426256E+02  0.43400728296E+02  0.00000000000E+00 0.  1.
         11    1    3    3    0    0  0.20724318105E+02  0.23255233150E+01 -0.19451167322E+02  0.28517596849E+02  0.51100000000E-03 0. -1.
        -11    1    3    3    0    0 -0.16410546578E+01  0.10426569553E+01  0.30677814907E+00  0.19683259410E+01  0.51100000000E-03 0.  1.
         12    1    3    3    0    0  0.16367172386E+02  0.13226632614E+01 -0.54500370828E+01  0.17301348913E+02  0.00000000000E+00 0. -1.
</event>
<event>
 7    1  0.2740409E-010  0.4778727E+02  0.7816164E-02  0.1312668E+00
        -11   -1    0    0    0    0  0.00000000000E+00  0.00000000000E+00  0.45593999997E+02  0.45594000000E+02  0.51100000000E-03 0.  1.
         11   -1    0    0    0    0 -0.00000000000E+00 -0.00000000000E+00 -0.45593999997E+02  0.45594000000E+02  0.51100000000E-03 0. -1.
    9900012    2    1    2    0    0 -0.19148421952E+02 -0.38946315234E+02 -0.38148044842E+00  0.47787273499E+02  0.20000011189E+02 0.  0.
        -12    1    1    2    0    0  0.19148421952E+02  0.38946315234E+02  0.38148044842E+00  0.43400726501E+02  0.00000000000E+00 0.  1.
         11    1    3    3    0    0 -0.13598874204E+02 -0.25769960568E+02  0.40964580715E+01  0.29424500272E+02  0.51100000000E-03 0. -1.
        -11    1    3    3    0    0 -0.42690877763E+01 -0.23839875714E+01 -0.56031100576E+01  0.74366222010E+01  0.51100000000E-03 0.  1.
        -12    1    3    3    0    0 -0.12804599719E+01 -0.10792367095E+02  0.11251715377E+01  0.10926151026E+02  0.00000000000E+00 0.  1.
</event>
<event>
 7    1  0.2740409E-010  0.4778727E+02  0.7816164E-02  0.1312668E+00
        -11   -1    0    0    0    0  0.00000000000E+00  0.00000000000E+00  0.45593999997E+02  0.45594000000E+02  0.51100000000E-03 0. -1.
         11   -1    0    0    0    0 -0.00000000000E+00 -0.00000000000E+00 -0.45593999997E+02  0.45594000000E+02  0.51100000000E-03 0.  1.
    9900012    2    1    2    0    0 -0.34957072573E+02  0.15568761310E+02  0.20475346069E+02  0.47787273644E+02  0.20000011853E+02 0.  0.
        -12    1    1    2    0    0  0.34957072573E+02 -0.15568761310E+02 -0.20475346069E+02  0.43400726356E+02  0.00000000000E+00 0.  1.
         11    1    3    3    0    0 -0.15995821056E+02 -0.21670825320E+00  0.27567800128E+01  0.16233086275E+02  0.51100000000E-03 0. -1.
        -11    1    3    3    0    0 -0.92645318809E+01  0.13083632835E+02  0.10416282253E+02  0.19118366441E+02  0.51100000000E-03 0.  1.
         12    1    3    3    0    0 -0.96967196359E+01  0.27018367279E+01  0.73022838032E+01  0.12435820928E+02  0.00000000000E+00 0. -1.
</event>
<event>
 7    1  0.2740409E-010  0.4778727E+02  0.7816164E-02  0.1312668E+00
        -11   -1    0    0    0    0  0.00000000000E+00  0.00000000000E+00  0.45593999997E+02  0.45594000000E+02  0.51100000000E-03 0.  1.
         11   -1    0    0    0    0 -0.00000000000E+00 -0.00000000000E+00 -0.45593999997E+02  0.45594000000E+02  0.51100000000E-03 0. -1.
    9900012    2    1    2    0    0 -0.31774944133E+02  0.48732451955E+01 -0.29158658141E+02  0.47787274914E+02  0.20000017642E+02 0.  0.
        -12    1    1    2    0    0  0.31774944133E+02 -0.48732451955E+01  0.29158658141E+02  0.43400725086E+02  0.00000000000E+00 0.  1.
         11    1    3    3    0    0 -0.13719902525E+02  0.17674964202E+01 -0.64216599246E+01  0.15251147017E+02  0.51100000000E-03 0. -1.
        -11    1    3    3    0    0 -0.10578223160E+01 -0.45097845085E+01 -0.40643427075E+01  0.61624691699E+01  0.51100000000E-03 0.  1.
        -12    1    3    3    0    0 -0.16997219292E+02  0.76155332838E+01 -0.18672655509E+02  0.26373658726E+02  0.00000000000E+00 0.  1.
</event>
<event>
 7    1  0.2740409E-010  0.4778727E+02  0.7816164E-02  0.1312668E+00
        -11   -1    0    0    0    0  0.00000000000E+00  0.00000000000E+00  0.45593999997E+02  0.45594000000E+02  0.51100000000E-03 0.  1.
         11   -1    0    0    0    0 -0.00000000000E+00 -0.00000000000E+00 -0.45593999997E+02  0.45594000000E+02  0.51100000000E-03 0. -1.
    9900012    2    1    2    0    0 -0.38669540082E+02  0.11973435198E+01 -0.19668657844E+02  0.47787273473E+02  0.20000011074E+02 0.  0.
        -12    1    1    2    0    0  0.38669540082E+02 -0.11973435198E+01  0.19668657844E+02  0.43400726527E+02  0.00000000000E+00 0.  1.
         11    1    3    3    0    0 -0.24139092738E+02  0.48021096254E+01 -0.18235100683E+02  0.30631274088E+02  0.51100000000E-03 0. -1.
        -11    1    3    3    0    0 -0.10109909249E+00 -0.26262706613E+01 -0.37485256637E+00  0.26548132365E+01  0.51100000000E-03 0.  1.
         12    1    3    3    0    0 -0.14429348252E+02 -0.97849544428E+00 -0.10587045948E+01  0.14501186149E+02  0.00000000000E+00 0. -1.
</event>
<event>
 7    1  0.2740409E-010  0.4778727E+02  0.7816164E-02  0.1312668E+00
        -11   -1    0    0    0    0  0.00000000000E+00  0.00000000000E+00  0.45593999997E+02  0.45594000000E+02  0.51100000000E-03 0.  1.
         11   -1    0    0    0    0 -0.00000000000E+00 -0.00000000000E+00 -0.45593999997E+02  0.45594000000E+02  0.51100000000E-03 0. -1.
    9900012    2    1    2    0    0 -0.25227762425E+02  0.17584500869E+02 -0.30626272577E+02  0.47787271437E+02  0.20000001792E+02 0.  0.
        -12    1    1    2    0    0  0.25227762425E+02 -0.17584500869E+02  0.30626272577E+02  0.43400728563E+02  0.00000000000E+00 0.  1.
         11    1    3    3    0    0 -0.39484941912E+01 -0.14205432541E+00 -0.55035221952E+01  0.67749201193E+01  0.51100000000E-03 0. -1.
        -11    1    3    3    0    0 -0.10563356084E+02 -0.74702006500E+00 -0.11733841323E+02  0.15805871162E+02  0.51100000000E-03 0.  1.
        -12    1    3    3    0    0 -0.10715912150E+02  0.18473575260E+02 -0.13388909059E+02  0.25206480156E+02  0.00000000000E+00 0.  1.
</event>
<event>
 7    1  0.2740409E-010  0.4778727E+02  0.7816164E-02  0.1312668E+00
        -11   -1    0    0    0    0  0.00000000000E+00  0.00000000000E+00  0.45593999997E+02  0.45594000000E+02  0.51100000000E-03 0.  1.
         11   -1    0    0    0    0 -0.00000000000E+00 -0.00000000000E+00 -0.45593999997E+02  0.45594000000E+02  0.51100000000E-03 0. -1.
    9900012    2    1    2    0    0 -0.56555736619E+01 -0.15622211271E+02 -0.40094692863E+02  0.47787269658E+02  0.19999993679E+02 0.  0.
        -12    1    1    2    0    0  0.56555736619E+01  0.15622211271E+02  0.40094692863E+02  0.43400730342E+02  0.00000000000E+00 0.  1.
         11    1    3    3    0    0 -0.20436848588E+01 -0.62953207440E+01 -0.22583348327E+02  0.23533281391E+02  0.51100000000E-03 0. -1.
        -11    1    3    3    0    0 -0.83242025154E+01 -0.68716903023E+01 -0.82856428257E+01  0.13607510883E+02  0.51100000000E-03 0.  1.
        -12    1    3    3    0    0  0.47123137123E+01 -0.24552002244E+01 -0.92257017098E+01  0.10646477385E+02  0.00000000000E+00 0.  1.
</event>
<event>
 7    1  0.2740409E-010  0.4778727E+02  0.7816164E-02  0.1312668E+00
        -11   -1    0    0    0    0  0.00000000000E+00  0.00000000000E+00  0.45593999997E+02  0.45594000000E+02  0.51100000000E-03 0.  1.
         11   -1    0    0    0    0 -0.00000000000E+00 -0.00000000000E+00 -0.45593999997E+02  0.45594000000E+02  0.51100000000E-03 0. -1.
    9900012    2    1    2    0    0 -0.27305620526E+02  0.14815703397E+02 -0.30307124004E+02  0.47787265618E+02  0.19999975259E+02 0.  0.
        -12    1    1    2    0    0  0.27305620526E+02 -0.14815703397E+02  0.30307124004E+02  0.43400734382E+02  0.00000000000E+00 0.  1.
         11    1    3    3    0    0 -0.89673130486E+01  0.80621296098E+01 -0.79374340199E+01  0.14436533387E+02  0.51100000000E-03 0. -1.
        -11    1    3    3    0    0 -0.26668916011E+01 -0.26354331999E+01 -0.11493372794E+02  0.12089476308E+02  0.51100000000E-03 0.  1.
        -12    1    3    3    0    0 -0.15671415877E+02  0.93890069873E+01 -0.10876317190E+02  0.21261255923E+02  0.00000000000E+00 0.  1.
</event>
<event>
 7    1  0.2740409E-010  0.4778728E+02  0.7816164E-02  0.1312668E+00
        -11   -1    0    0    0    0  0.00000000000E+00  0.00000000000E+00  0.45593999997E+02  0.45594000000E+02  0.51100000000E-03 0.  1.
         11   -1    0    0    0    0 -0.00000000000E+00 -0.00000000000E+00 -0.45593999997E+02  0.45594000000E+02  0.51100000000E-03 0. -1.
    9900012    2    1    2    0    0 -0.40892695363E+02  0.10574492543E+02 -0.99794839826E+01  0.47787279647E+02  0.20000039221E+02 0.  0.
        -12    1    1    2    0    0  0.40892695363E+02 -0.10574492543E+02  0.99794839826E+01  0.43400720353E+02  0.00000000000E+00 0.  1.
         11    1    3    3    0    0 -0.25639372813E+02  0.44175595382E+01  0.28502638325E+01  0.26172815567E+02  0.51100000000E-03 0. -1.
        -11    1    3    3    0    0 -0.12843620548E+01  0.66446405719E+00 -0.38756174347E+01  0.41366059919E+01  0.51100000000E-03 0.  1.
        -12    1    3    3    0    0 -0.13968960496E+02  0.54924689480E+01 -0.89541303804E+01  0.17477858088E+02  0.00000000000E+00 0.  1.
</event>
<event>
 7    1  0.2740409E-010  0.4778727E+02  0.7816164E-02  0.1312668E+00
        -11   -1    0    0    0    0  0.00000000000E+00  0.00000000000E+00  0.45593999997E+02  0.45594000000E+02  0.51100000000E-03 0.  1.
         11   -1    0    0    0    0 -0.00000000000E+00 -0.00000000000E+00 -0.45593999997E+02  0.45594000000E+02  0.51100000000E-03 0. -1.
    9900012    2    1    2    0    0 -0.39023234218E+02 -0.16882816386E+01 -0.18919830516E+02  0.47787273158E+02  0.20000009636E+02 0.  0.
        -12    1    1    2    0    0  0.39023234218E+02  0.16882816386E+01  0.18919830516E+02  0.43400726842E+02  0.00000000000E+00 0.  1.
         11    1    3    3    0    0 -0.12163245724E+02  0.18288555307E+01 -0.78206517944E+01  0.14575728244E+02  0.51100000000E-03 0. -1.
        -11    1    3    3    0    0 -0.11354817312E+02  0.40671002373E+01  0.10455218887E+01  0.12106456824E+02  0.51100000000E-03 0.  1.
        -12    1    3    3    0    0 -0.15505171182E+02 -0.75842374066E+01 -0.12144700610E+02  0.21105088091E+02  0.00000000000E+00 0.  1.
</event>
<event>
 7    1  0.2740409E-010  0.4778727E+02  0.7816164E-02  0.1312668E+00
        -11   -1    0    0    0    0  0.00000000000E+00  0.00000000000E+00  0.45593999997E+02  0.45594000000E+02  0.51100000000E-03 0. -1.
         11   -1    0    0    0    0 -0.00000000000E+00 -0.00000000000E+00 -0.45593999997E+02  0.45594000000E+02  0.51100000000E-03 0.  1.
    9900012    2    1    2    0    0 -0.34047274515E+02  0.39081808015E+01  0.26629541110E+02  0.47787271449E+02  0.20000001843E+02 0.  0.
        -12    1    1    2    0    0  0.34047274515E+02 -0.39081808015E+01 -0.26629541110E+02  0.43400728551E+02  0.00000000000E+00 0.  1.
         11    1    3    3    0    0 -0.31808164573E+02  0.49979988614E+01  0.29450473255E+02  0.43635647140E+02  0.51100000000E-03 0. -1.
        -11    1    3    3    0    0 -0.24206378597E+01 -0.63597476033E+00 -0.20332468688E+01  0.32245999184E+01  0.51100000000E-03 0.  1.
         12    1    3    3    0    0  0.18152791800E+00 -0.45384329953E+00 -0.78768527631E+00  0.92702439021E+00  0.00000000000E+00 0. -1.
</event>
<event>
 7    1  0.2740409E-010  0.4778727E+02  0.7816164E-02  0.1312668E+00
        -11   -1    0    0    0    0  0.00000000000E+00  0.00000000000E+00  0.45593999997E+02  0.45594000000E+02  0.51100000000E-03 0.  1.
         11   -1    0    0    0    0 -0.00000000000E+00 -0.00000000000E+00 -0.45593999997E+02  0.45594000000E+02  0.51100000000E-03 0. -1.
    9900012    2    1    2    0    0  0.27088956304E+02  0.23139600497E+02 -0.24786501854E+02  0.47787270294E+02  0.19999996580E+02 0.  0.
        -12    1    1    2    0    0 -0.27088956304E+02 -0.23139600497E+02  0.24786501854E+02  0.43400729706E+02  0.00000000000E+00 0.  1.
         11    1    3    3    0    0  0.19162181517E+02  0.13755755246E+02 -0.14137991613E+02  0.27500778352E+02  0.51100000000E-03 0. -1.
        -11    1    3    3    0    0  0.95140175278E+00 -0.27486488021E+01 -0.39030378614E+00  0.29347185281E+01  0.51100000000E-03 0.  1.
         12    1    3    3    0    0  0.69753730342E+01  0.12132494054E+02 -0.10258206455E+02  0.17351773414E+02  0.00000000000E+00 0. -1.
</event>
<event>
 7    1  0.2740409E-010  0.4778727E+02  0.7816164E-02  0.1312668E+00
        -11   -1    0    0    0    0  0.00000000000E+00  0.00000000000E+00  0.45593999997E+02  0.45594000000E+02  0.51100000000E-03 0. -1.
         11   -1    0    0    0    0 -0.00000000000E+00 -0.00000000000E+00 -0.45593999997E+02  0.45594000000E+02  0.51100000000E-03 0.  1.
    9900012    2    1    2    0    0  0.24481744154E+01  0.26993728239E+02  0.33896438220E+02  0.47787269059E+02  0.19999990949E+02 0.  0.
        -12    1    1    2    0    0 -0.24481744154E+01 -0.26993728239E+02 -0.33896438220E+02  0.43400730941E+02  0.00000000000E+00 0.  1.
         11    1    3    3    0    0 -0.19927865542E+01  0.11155226525E+02  0.73199814629E+01  0.13490456106E+02  0.51100000000E-03 0.  1.
        -11    1    3    3    0    0 -0.40893207939E+01  0.11238850480E+02  0.15536859079E+02  0.19606843065E+02  0.51100000000E-03 0. -1.
        -12    1    3    3    0    0  0.85302817635E+01  0.45996512345E+01  0.11039597678E+02  0.14689969889E+02  0.00000000000E+00 0.  1.
</event>
<event>
 7    1  0.2740409E-010  0.4778728E+02  0.7816164E-02  0.1312668E+00
        -11   -1    0    0    0    0  0.00000000000E+00  0.00000000000E+00  0.45593999997E+02  0.45594000000E+02  0.51100000000E-03 0.  1.
         11   -1    0    0    0    0 -0.00000000000E+00 -0.00000000000E+00 -0.45593999997E+02  0.45594000000E+02  0.51100000000E-03 0. -1.
    9900012    2    1    2    0    0  0.88961094946E+01 -0.19203321386E+02 -0.37890823034E+02  0.47787276659E+02  0.20000025597E+02 0.  0.
        -12    1    1    2    0    0 -0.88961094946E+01  0.19203321386E+02  0.37890823034E+02  0.43400723341E+02  0.00000000000E+00 0.  1.
         11    1    3    3    0    0 -0.15451142683E+01 -0.14331064084E+02 -0.28793341741E+02  0.32199740757E+02  0.51100000000E-03 0. -1.
        -11    1    3    3    0    0  0.99699013823E+01 -0.26826784761E+01 -0.67071016299E+01  0.12311819927E+02  0.51100000000E-03 0.  1.
        -12    1    3    3    0    0  0.47132238051E+00 -0.21895788253E+01 -0.23903796625E+01  0.32757159750E+01  0.00000000000E+00 0.  1.
</event>
<event>
 7    1  0.2740409E-010  0.4778727E+02  0.7816164E-02  0.1312668E+00
        -11   -1    0    0    0    0  0.00000000000E+00  0.00000000000E+00  0.45593999997E+02  0.45594000000E+02  0.51100000000E-03 0.  1.
         11   -1    0    0    0    0 -0.00000000000E+00 -0.00000000000E+00 -0.45593999997E+02  0.45594000000E+02  0.51100000000E-03 0. -1.
    9900012    2    1    2    0    0 -0.36201833480E+02  0.20118724687E+02 -0.12972565480E+02  0.47787270911E+02  0.19999999390E+02 0.  0.
        -12    1    1    2    0    0  0.36201833480E+02 -0.20118724687E+02  0.12972565480E+02  0.43400729089E+02  0.00000000000E+00 0.  1.
         11    1    3    3    0    0 -0.12904499792E+02  0.71457824960E+01  0.93023980839E+00  0.14780178237E+02  0.51100000000E-03 0. -1.
        -11    1    3    3    0    0 -0.18050000928E+02  0.15515041014E+02 -0.12958059199E+02  0.27100375083E+02  0.51100000000E-03 0.  1.
        -12    1    3    3    0    0 -0.52473327605E+01 -0.25420988230E+01 -0.94474608949E+00  0.59067175910E+01  0.00000000000E+00 0.  1.
</event>
<event>
 7    1  0.2740409E-010  0.4778729E+02  0.7816164E-02  0.1312668E+00
        -11   -1    0    0    0    0  0.00000000000E+00  0.00000000000E+00  0.45593999997E+02  0.45594000000E+02  0.51100000000E-03 0.  1.
         11   -1    0    0    0    0 -0.00000000000E+00 -0.00000000000E+00 -0.45593999997E+02  0.45594000000E+02  0.51100000000E-03 0. -1.
    9900012    2    1    2    0    0  0.10715993741E+02  0.32096695762E+02 -0.27177029062E+02  0.47787293677E+02  0.20000103192E+02 0.  0.
        -12    1    1    2    0    0 -0.10715993741E+02 -0.32096695762E+02  0.27177029062E+02  0.43400706323E+02  0.00000000000E+00 0.  1.
         11    1    3    3    0    0  0.61972197407E+01  0.11357547858E+02 -0.21808515638E+02  0.25357657235E+02  0.51100000000E-03 0. -1.
        -11    1    3    3    0    0  0.31802009745E+01  0.14590757829E+02 -0.14193513421E+01  0.15000615012E+02  0.51100000000E-03 0.  1.
         12    1    3    3    0    0  0.13385730261E+01  0.61483900753E+01 -0.39491620821E+01  0.74290214305E+01  0.00000000000E+00 0. -1.
</event>
<event>
 7    1  0.2740409E-010  0.4778727E+02  0.7816164E-02  0.1312668E+00
        -11   -1    0    0    0    0  0.00000000000E+00  0.00000000000E+00  0.45593999997E+02  0.45594000000E+02  0.51100000000E-03 0.  1.
         11   -1    0    0    0    0 -0.00000000000E+00 -0.00000000000E+00 -0.45593999997E+02  0.45594000000E+02  0.51100000000E-03 0. -1.
    9900012    2    1    2    0    0  0.42653742686E+02  0.46367750449E+01 -0.65407728459E+01  0.47787272387E+02  0.20000006121E+02 0.  0.
        -12    1    1    2    0    0 -0.42653742686E+02 -0.46367750449E+01  0.65407728459E+01  0.43400727613E+02  0.00000000000E+00 0.  1.
         11    1    3    3    0    0  0.98280088631E+01  0.20917379966E+01 -0.32893943354E+01  0.10572853986E+02  0.51100000000E-03 0. -1.
        -11    1    3    3    0    0  0.32787272518E+02  0.95804212015E+00  0.85444562350E+00  0.32812393413E+02  0.51100000000E-03 0.  1.
        -12    1    3    3    0    0  0.38461304316E-01  0.15869949281E+01 -0.41058241340E+01  0.44020249878E+01  0.00000000000E+00 0.  1.
</event>
<event>
 7    1  0.2740409E-010  0.4778727E+02  0.7816164E-02  0.1312668E+00
        -11   -1    0    0    0    0  0.00000000000E+00  0.00000000000E+00  0.45593999997E+02  0.45594000000E+02  0.51100000000E-03 0.  1.
         11   -1    0    0    0    0 -0.00000000000E+00 -0.00000000000E+00 -0.45593999997E+02  0.45594000000E+02  0.51100000000E-03 0. -1.
    9900012    2    1    2    0    0 -0.29909394437E+02 -0.21435380516E+02 -0.23012516605E+02  0.47787270353E+02  0.19999996846E+02 0.  0.
        -12    1    1    2    0    0  0.29909394437E+02  0.21435380516E+02  0.23012516605E+02  0.43400729647E+02  0.00000000000E+00 0.  1.
         11    1    3    3    0    0 -0.54807605425E+01 -0.11441262646E+02 -0.14575581634E+02  0.19323271133E+02  0.51100000000E-03 0. -1.
        -11    1    3    3    0    0 -0.92385779290E+01 -0.14550397098E+01 -0.64234049075E+00  0.93744900808E+01  0.51100000000E-03 0.  1.
         12    1    3    3    0    0 -0.15190055965E+02 -0.85390781606E+01 -0.77945944805E+01  0.19089509139E+02  0.00000000000E+00 0. -1.
</event>
<event>
 7    1  0.2740409E-010  0.4778727E+02  0.7816164E-02  0.1312668E+00
        -11   -1    0    0    0    0  0.00000000000E+00  0.00000000000E+00  0.45593999997E+02  0.45594000000E+02  0.51100000000E-03 0.  1.
         11   -1    0    0    0    0 -0.00000000000E+00 -0.00000000000E+00 -0.45593999997E+02  0.45594000000E+02  0.51100000000E-03 0. -1.
    9900012    2    1    2    0    0 -0.76524342138E+01  0.33855184132E+01 -0.42586399877E+02  0.47787274905E+02  0.20000017602E+02 0.  0.
        -12    1    1    2    0    0  0.76524342138E+01 -0.33855184132E+01  0.42586399877E+02  0.43400725095E+02  0.00000000000E+00 0.  1.
         11    1    3    3    0    0 -0.46943795059E+01  0.80161905728E+00 -0.88745200454E+01  0.10071588671E+02  0.51100000000E-03 0. -1.
        -11    1    3    3    0    0 -0.30762835786E+01 -0.53120837865E+01 -0.25863754047E+02  0.26582240848E+02  0.51100000000E-03 0.  1.
        -12    1    3    3    0    0  0.11822887065E+00  0.78959831424E+01 -0.78481257841E+01  0.11133445387E+02  0.00000000000E+00 0.  1.
</event>
<event>
 7    1  0.2740409E-010  0.4778727E+02  0.7816164E-02  0.1312668E+00
        -11   -1    0    0    0    0  0.00000000000E+00  0.00000000000E+00  0.45593999997E+02  0.45594000000E+02  0.51100000000E-03 0. -1.
         11   -1    0    0    0    0 -0.00000000000E+00 -0.00000000000E+00 -0.45593999997E+02  0.45594000000E+02  0.51100000000E-03 0.  1.
    9900012    2    1    2    0    0  0.89874158335E+01 -0.12121858612E+02  0.40692876618E+02  0.47787270662E+02  0.19999998258E+02 0.  0.
        -12    1    1    2    0    0 -0.89874158335E+01  0.12121858612E+02 -0.40692876618E+02  0.43400729338E+02  0.00000000000E+00 0.  1.
         11    1    3    3    0    0  0.80792832898E+00  0.60663808777E+00  0.67226441544E+01  0.67981396457E+01  0.51100000000E-03 0. -1.
        -11    1    3    3    0    0  0.55180794585E+01  0.17972378264E+01  0.19377690173E+02  0.20228053327E+02  0.51100000000E-03 0.  1.
        -12    1    3    3    0    0  0.26614080460E+01 -0.14525734526E+02  0.14592542291E+02  0.20761077689E+02  0.00000000000E+00 0.  1.
</event>
<event>
 7    1  0.2740409E-010  0.4778727E+02  0.7816164E-02  0.1312668E+00
        -11   -1    0    0    0    0  0.00000000000E+00  0.00000000000E+00  0.45593999997E+02  0.45594000000E+02  0.51100000000E-03 0. -1.
         11   -1    0    0    0    0 -0.00000000000E+00 -0.00000000000E+00 -0.45593999997E+02  0.45594000000E+02  0.51100000000E-03 0.  1.
    9900012    2    1    2    0    0  0.32989988045E+02 -0.17473629298E+02  0.22134956684E+02  0.47787270288E+02  0.19999996553E+02 0.  0.
        -12    1    1    2    0    0 -0.32989988045E+02  0.17473629298E+02 -0.22134956684E+02  0.43400729712E+02  0.00000000000E+00 0.  1.
         11    1    3    3    0    0  0.54825181333E+01 -0.31373557408E+01  0.94563759149E+01  0.11372073330E+02  0.51100000000E-03 0. -1.
        -11    1    3    3    0    0  0.20486265964E+02 -0.55441063295E+01  0.13468062290E+02  0.25135888889E+02  0.51100000000E-03 0.  1.
         12    1    3    3    0    0  0.70212039482E+01 -0.87921672275E+01 -0.78948152084E+00  0.11279308069E+02  0.00000000000E+00 0. -1.
</event>
<event>
 7    1  0.2740409E-010  0.4778727E+02  0.7816164E-02  0.1312668E+00
        -11   -1    0    0    0    0  0.00000000000E+00  0.00000000000E+00  0.45593999997E+02  0.45594000000E+02  0.51100000000E-03 0.  1.
         11   -1    0    0    0    0 -0.00000000000E+00 -0.00000000000E+00 -0.45593999997E+02  0.45594000000E+02  0.51100000000E-03 0. -1.
    9900012    2    1    2    0    0 -0.11936175815E+01 -0.20737414291E+02 -0.38107199556E+02  0.47787265762E+02  0.19999975915E+02 0.  0.
        -12    1    1    2    0    0  0.11936175815E+01  0.20737414291E+02  0.38107199556E+02  0.43400734238E+02  0.00000000000E+00 0.  1.
         11    1    3    3    0    0 -0.13168743190E+01  0.27759319234E+01 -0.86858855309E+00  0.31928674183E+01  0.51100000000E-03 0.  1.
        -11    1    3    3    0    0 -0.16457366105E+00 -0.19909875562E+02 -0.25746146048E+02  0.32546801164E+02  0.51100000000E-03 0. -1.
        -12    1    3    3    0    0  0.28783039853E+00 -0.36034706524E+01 -0.11492464954E+02  0.12047597180E+02  0.00000000000E+00 0.  1.
</event>
<event>
 7    1  0.2740409E-010  0.4778727E+02  0.7816164E-02  0.1312668E+00
        -11   -1    0    0    0    0  0.00000000000E+00  0.00000000000E+00  0.45593999997E+02  0.45594000000E+02  0.51100000000E-03 0.  1.
         11   -1    0    0    0    0 -0.00000000000E+00 -0.00000000000E+00 -0.45593999997E+02  0.45594000000E+02  0.51100000000E-03 0. -1.
    9900012    2    1    2    0    0  0.10269033486E+02 -0.84052172310E+01 -0.41322181978E+02  0.47787269029E+02  0.19999990810E+02 0.  0.
        -12    1    1    2    0    0 -0.10269033486E+02  0.84052172310E+01  0.41322181978E+02  0.43400730971E+02  0.00000000000E+00 0.  1.
         11    1    3    3    0    0  0.14514881273E+01 -0.19253709082E+01 -0.33152372892E+02  0.33239941328E+02  0.51100000000E-03 0. -1.
        -11    1    3    3    0    0  0.79195092458E+01 -0.66656956162E+01 -0.86701484244E+01  0.13502651543E+02  0.51100000000E-03 0.  1.
         12    1    3    3    0    0  0.89803611262E+00  0.18584929344E+00  0.50033933822E+00  0.10446761569E+01  0.00000000000E+00 0. -1.
</event>
<event>
 7    1  0.2740409E-010  0.4778729E+02  0.7816164E-02  0.1312668E+00
        -11   -1    0    0    0    0  0.00000000000E+00  0.00000000000E+00  0.45593999997E+02  0.45594000000E+02  0.51100000000E-03 0. -1.
         11   -1    0    0    0    0 -0.00000000000E+00 -0.00000000000E+00 -0.45593999997E+02  0.45594000000E+02  0.51100000000E-03 0.  1.
    9900012    2    1    2    0    0 -0.64079837205E+01  0.37099208080E+01  0.42764427721E+02  0.47787285189E+02  0.20000064493E+02 0.  0.
        -12    1    1    2    0    0  0.64079837205E+01 -0.37099208080E+01 -0.42764427721E+02  0.43400714811E+02  0.00000000000E+00 0.  1.
         11    1    3    3    0    0 -0.21665481717E+00  0.19179658893E+01  0.13212991627E+01  0.23390947396E+01  0.51100000000E-03 0.  1.
        -11    1    3    3    0    0 -0.11159131744E+02  0.43849036919E+01  0.20312198392E+02  0.23586839666E+02  0.51100000000E-03 0. -1.
        -12    1    3    3    0    0  0.49678028402E+01 -0.25929487732E+01  0.21130930167E+02  0.21861350784E+02  0.00000000000E+00 0.  1.
</event>
<event>
 7    1  0.2740409E-010  0.4778727E+02  0.7816164E-02  0.1312668E+00
        -11   -1    0    0    0    0  0.00000000000E+00  0.00000000000E+00  0.45593999997E+02  0.45594000000E+02  0.51100000000E-03 0.  1.
         11   -1    0    0    0    0 -0.00000000000E+00 -0.00000000000E+00 -0.45593999997E+02  0.45594000000E+02  0.51100000000E-03 0. -1.
    9900012    2    1    2    0    0 -0.16016875219E+02  0.23182191008E+02 -0.33010136339E+02  0.47787269904E+02  0.19999994801E+02 0.  0.
        -12    1    1    2    0    0  0.16016875219E+02 -0.23182191008E+02  0.33010136339E+02  0.43400730096E+02  0.00000000000E+00 0.  1.
         11    1    3    3    0    0 -0.81639920725E+01  0.18318165605E+02 -0.23616832197E+02  0.30983232901E+02  0.51100000000E-03 0. -1.
        -11    1    3    3    0    0  0.13825817036E+01 -0.12884953542E+01  0.48057653260E+00  0.19500529505E+01  0.51100000000E-03 0.  1.
         12    1    3    3    0    0 -0.92354648505E+01  0.61525207571E+01 -0.98738806748E+01  0.14853984053E+02  0.00000000000E+00 0. -1.
</event>
<event>
 7    1  0.2740409E-010  0.4778727E+02  0.7816164E-02  0.1312668E+00
        -11   -1    0    0    0    0  0.00000000000E+00  0.00000000000E+00  0.45593999997E+02  0.45594000000E+02  0.51100000000E-03 0. -1.
         11   -1    0    0    0    0 -0.00000000000E+00 -0.00000000000E+00 -0.45593999997E+02  0.45594000000E+02  0.51100000000E-03 0.  1.
    9900012    2    1    2    0    0  0.13268779227E+02  0.22853793617E+02  0.34427706677E+02  0.47787269916E+02  0.19999994853E+02 0.  0.
        -12    1    1    2    0    0 -0.13268779227E+02 -0.22853793617E+02 -0.34427706677E+02  0.43400730084E+02  0.00000000000E+00 0.  1.
         11    1    3    3    0    0  0.12785527083E+00  0.13828243754E+02  0.20783310577E+02  0.24963626962E+02  0.51100000000E-03 0. -1.
        -11    1    3    3    0    0  0.12966919700E+02  0.10493863511E+02  0.13222423513E+02  0.21286020335E+02  0.51100000000E-03 0.  1.
        -12    1    3    3    0    0  0.17400425611E+00 -0.14683136490E+01  0.42197258727E+00  0.15376226187E+01  0.00000000000E+00 0.  1.
</event>
<event>
 7    1  0.2740409E-010  0.4778726E+02  0.7816164E-02  0.1312668E+00
        -11   -1    0    0    0    0  0.00000000000E+00  0.00000000000E+00  0.45593999997E+02  0.45594000000E+02  0.51100000000E-03 0.  1.
         11   -1    0    0    0    0 -0.00000000000E+00 -0.00000000000E+00 -0.45593999997E+02  0.45594000000E+02  0.51100000000E-03 0. -1.
    9900012    2    1    2    0    0 -0.10728569086E+00 -0.25997154895E+02 -0.34752845081E+02  0.47787264821E+02  0.19999971626E+02 0.  0.
        -12    1    1    2    0    0  0.10728569086E+00  0.25997154895E+02  0.34752845081E+02  0.43400735179E+02  0.00000000000E+00 0.  1.
         11    1    3    3    0    0 -0.38963557386E+01 -0.28029914008E+01 -0.15648638965E+02  0.16368208532E+02  0.51100000000E-03 0. -1.
        -11    1    3    3    0    0  0.52217755866E+00 -0.89188264514E+00  0.83236575101E+00  0.13270105727E+01  0.51100000000E-03 0.  1.
         12    1    3    3    0    0  0.32668924891E+01 -0.22302280849E+02 -0.19936571867E+02  0.30092045716E+02  0.00000000000E+00 0. -1.
</event>
<event>
 7    1  0.2740409E-010  0.4778727E+02  0.7816164E-02  0.1312668E+00
        -11   -1    0    0    0    0  0.00000000000E+00  0.00000000000E+00  0.45593999997E+02  0.45594000000E+02  0.51100000000E-03 0. -1.
         11   -1    0    0    0    0 -0.00000000000E+00 -0.00000000000E+00 -0.45593999997E+02  0.45594000000E+02  0.51100000000E-03 0.  1.
    9900012    2    1    2    0    0  0.48712083745E+01 -0.45881353137E+01  0.42881744094E+02  0.47787266905E+02  0.19999981125E+02 0.  0.
        -12    1    1    2    0    0 -0.48712083745E+01  0.45881353137E+01 -0.42881744094E+02  0.43400733095E+02  0.00000000000E+00 0.  1.
         11    1    3    3    0    0 -0.40337053916E+00  0.21102992864E+01  0.26068474740E+02  0.26156862320E+02  0.51100000000E-03 0. -1.
        -11    1    3    3    0    0  0.10439035680E+01 -0.63389376807E+01  0.28359681624E+01  0.70224341405E+01  0.51100000000E-03 0.  1.
        -12    1    3    3    0    0  0.42306753456E+01 -0.35949691948E+00  0.13977301191E+02  0.14607970444E+02  0.00000000000E+00 0.  1.
</event>
<event>
 7    1  0.2740409E-010  0.4778729E+02  0.7816164E-02  0.1312668E+00
        -11   -1    0    0    0    0  0.00000000000E+00  0.00000000000E+00  0.45593999997E+02  0.45594000000E+02  0.51100000000E-03 0. -1.
         11   -1    0    0    0    0 -0.00000000000E+00 -0.00000000000E+00 -0.45593999997E+02  0.45594000000E+02  0.51100000000E-03 0.  1.
    9900012    2    1    2    0    0 -0.15619678016E+02  0.36153895507E+02  0.18235763273E+02  0.47787290745E+02  0.20000089823E+02 0.  0.
        -12    1    1    2    0    0  0.15619678016E+02 -0.36153895507E+02 -0.18235763273E+02  0.43400709255E+02  0.00000000000E+00 0.  1.
         11    1    3    3    0    0 -0.49573997050E+01  0.30257528228E+02  0.13975158804E+02  0.33695680586E+02  0.51100000000E-03 0. -1.
        -11    1    3    3    0    0 -0.91167182113E+01  0.66944688892E+01  0.47756329946E+01  0.12277505260E+02  0.51100000000E-03 0.  1.
        -12    1    3    3    0    0 -0.15455600996E+01 -0.79810160989E+00 -0.51502852546E+00  0.18141048987E+01  0.00000000000E+00 0.  1.
</event>
<event>
 7    1  0.2740409E-010  0.4778727E+02  0.7816164E-02  0.1312668E+00
        -11   -1    0    0    0    0  0.00000000000E+00  0.00000000000E+00  0.45593999997E+02  0.45594000000E+02  0.51100000000E-03 0. -1.
         11   -1    0    0    0    0 -0.00000000000E+00 -0.00000000000E+00 -0.45593999997E+02  0.45594000000E+02  0.51100000000E-03 0.  1.
    9900012    2    1    2    0    0 -0.24097154154E+02 -0.30341173213E+02  0.19554113731E+02  0.47787274268E+02  0.20000014696E+02 0.  0.
        -12    1    1    2    0    0  0.24097154154E+02  0.30341173213E+02 -0.19554113731E+02  0.43400725732E+02  0.00000000000E+00 0.  1.
         11    1    3    3    0    0 -0.71793831025E+00 -0.43594077956E+01  0.17222971007E+01  0.47419594378E+01  0.51100000000E-03 0. -1.
        -11    1    3    3    0    0 -0.11045823379E+02 -0.15313793854E+02  0.18883936597E+02  0.26704410834E+02  0.51100000000E-03 0.  1.
        -12    1    3    3    0    0 -0.12333392466E+02 -0.10667971564E+02 -0.10521199666E+01  0.16340903996E+02  0.00000000000E+00 0.  1.
</event>
<event>
 7    1  0.2740409E-010  0.4778727E+02  0.7816164E-02  0.1312668E+00
        -11   -1    0    0    0    0  0.00000000000E+00  0.00000000000E+00  0.45593999997E+02  0.45594000000E+02  0.51100000000E-03 0. -1.
         11   -1    0    0    0    0 -0.00000000000E+00 -0.00000000000E+00 -0.45593999997E+02  0.45594000000E+02  0.51100000000E-03 0.  1.
    9900012    2    1    2    0    0 -0.40825719005E+02 -0.89218153378E+01 -0.11716880513E+02  0.47787269475E+02  0.19999992843E+02 0.  0.
        -12    1    1    2    0    0  0.40825719005E+02  0.89218153378E+01  0.11716880513E+02  0.43400730525E+02  0.00000000000E+00 0.  1.
         11    1    3    3    0    0 -0.24344738501E+02 -0.13687081096E+02 -0.72667070886E+01  0.28858404560E+02  0.51100000000E-03 0. -1.
        -11    1    3    3    0    0 -0.73740758267E+01  0.34777599498E+01 -0.52492965233E+01  0.96967480537E+01  0.51100000000E-03 0.  1.
         12    1    3    3    0    0 -0.91069046769E+01  0.12875058080E+01  0.79912309885E+00  0.92321168606E+01  0.00000000000E+00 0. -1.
</event>
<event>
 7    1  0.2740409E-010  0.4778728E+02  0.7816164E-02  0.1312668E+00
        -11   -1    0    0    0    0  0.00000000000E+00  0.00000000000E+00  0.45593999997E+02  0.45594000000E+02  0.51100000000E-03 0.  1.
         11   -1    0    0    0    0 -0.00000000000E+00 -0.00000000000E+00 -0.45593999997E+02  0.45594000000E+02  0.51100000000E-03 0. -1.
    9900012    2    1    2    0    0  0.11253572079E+02  0.30066936561E+02 -0.29205466353E+02  0.47787276232E+02  0.20000023652E+02 0.  0.
        -12    1    1    2    0    0 -0.11253572079E+02 -0.30066936561E+02  0.29205466353E+02  0.43400723768E+02  0.00000000000E+00 0.  1.
         11    1    3    3    0    0  0.43086707648E+00  0.15179653576E+01 -0.10895027979E+02  0.11008701113E+02  0.51100000000E-03 0. -1.
        -11    1    3    3    0    0  0.52711029786E+01  0.19306257782E+02 -0.71266891721E+01  0.21243959494E+02  0.51100000000E-03 0.  1.
         12    1    3    3    0    0  0.55516020243E+01  0.92427134209E+01 -0.11183749202E+02  0.15534615625E+02  0.00000000000E+00 0. -1.
</event>
<event>
 7    1  0.2740409E-010  0.4778727E+02  0.7816164E-02  0.1312668E+00
        -11   -1    0    0    0    0  0.00000000000E+00  0.00000000000E+00  0.45593999997E+02  0.45594000000E+02  0.51100000000E-03 0.  1.
         11   -1    0    0    0    0 -0.00000000000E+00 -0.00000000000E+00 -0.45593999997E+02  0.45594000000E+02  0.51100000000E-03 0. -1.
    9900012    2    1    2    0    0  0.28960812780E+01  0.43210440071E+02  0.28449395978E+01  0.47787273057E+02  0.20000009175E+02 0.  0.
        -12    1    1    2    0    0 -0.28960812780E+01 -0.43210440071E+02 -0.28449395978E+01  0.43400726943E+02  0.00000000000E+00 0.  1.
         11    1    3    3    0    0  0.69456963557E+01  0.17724843809E+02  0.12263224857E+01  0.19076599619E+02  0.51100000000E-03 0. -1.
        -11    1    3    3    0    0 -0.37409774543E+01  0.52187369145E+01 -0.41391386279E+01  0.76395416184E+01  0.51100000000E-03 0.  1.
        -12    1    3    3    0    0 -0.30863762334E+00  0.20266859347E+02  0.57577557400E+01  0.21071131819E+02  0.00000000000E+00 0.  1.
</event>
<event>
 7    1  0.2740409E-010  0.4778727E+02  0.7816164E-02  0.1312668E+00
        -11   -1    0    0    0    0  0.00000000000E+00  0.00000000000E+00  0.45593999997E+02  0.45594000000E+02  0.51100000000E-03 0.  1.
         11   -1    0    0    0    0 -0.00000000000E+00 -0.00000000000E+00 -0.45593999997E+02  0.45594000000E+02  0.51100000000E-03 0. -1.
    9900012    2    1    2    0    0 -0.11804035764E+02  0.40717558603E+02 -0.92934647711E+01  0.47787270440E+02  0.19999997245E+02 0.  0.
        -12    1    1    2    0    0  0.11804035764E+02 -0.40717558603E+02  0.92934647711E+01  0.43400729560E+02  0.00000000000E+00 0.  1.
         11    1    3    3    0    0 -0.63445961147E+01  0.39594386700E+02 -0.64298394840E+01  0.40611724834E+02  0.51100000000E-03 0. -1.
        -11    1    3    3    0    0 -0.27538268672E+01  0.22472947411E+01 -0.96069381571E+00  0.36819599314E+01  0.51100000000E-03 0.  1.
         12    1    3    3    0    0 -0.27056127816E+01 -0.11241228379E+01 -0.19029314715E+01  0.34935856743E+01  0.00000000000E+00 0. -1.
</event>
<event>
 7    1  0.2740409E-010  0.4778727E+02  0.7816164E-02  0.1312668E+00
        -11   -1    0    0    0    0  0.00000000000E+00  0.00000000000E+00  0.45593999997E+02  0.45594000000E+02  0.51100000000E-03 0.  1.
         11   -1    0    0    0    0 -0.00000000000E+00 -0.00000000000E+00 -0.45593999997E+02  0.45594000000E+02  0.51100000000E-03 0. -1.
    9900012    2    1    2    0    0 -0.25925467542E+02 -0.18468275435E+02 -0.29502815913E+02  0.47787271762E+02  0.20000003269E+02 0.  0.
        -12    1    1    2    0    0  0.25925467542E+02  0.18468275435E+02  0.29502815913E+02  0.43400728238E+02  0.00000000000E+00 0.  1.
         11    1    3    3    0    0 -0.22878986553E+02 -0.18010275638E+02 -0.17442241661E+02  0.33941859829E+02  0.51100000000E-03 0. -1.
        -11    1    3    3    0    0 -0.32293338235E+00  0.25836520959E+01 -0.35122337230E+01  0.43721081995E+01  0.51100000000E-03 0.  1.
        -12    1    3    3    0    0 -0.27235476068E+01 -0.30416518922E+01 -0.85483405298E+01  0.94733037328E+01  0.00000000000E+00 0.  1.
</event>
<event>
 7    1  0.2740409E-010  0.4778726E+02  0.7816164E-02  0.1312668E+00
        -11   -1    0    0    0    0  0.00000000000E+00  0.00000000000E+00  0.45593999997E+02  0.45594000000E+02  0.51100000000E-03 0.  1.
         11   -1    0    0    0    0 -0.00000000000E+00 -0.00000000000E+00 -0.45593999997E+02  0.45594000000E+02  0.51100000000E-03 0. -1.
    9900012    2    1    2    0    0 -0.16088606302E+02 -0.37657747818E+02 -0.14376181997E+02  0.47787264612E+02  0.19999970671E+02 0.  0.
        -12    1    1    2    0    0  0.16088606302E+02  0.37657747818E+02  0.14376181997E+02  0.43400735388E+02  0.00000000000E+00 0.  1.
         11    1    3    3    0    0 -0.15551544869E+02 -0.27426205767E+02 -0.40364496386E+01  0.31785849627E+02  0.51100000000E-03 0. -1.
        -11    1    3    3    0    0  0.19288488923E+01 -0.73486408587E+01 -0.94122832231E+01  0.12096034733E+02  0.51100000000E-03 0.  1.
        -12    1    3    3    0    0 -0.24659103248E+01 -0.28829011922E+01 -0.92744913546E+00  0.39053802520E+01  0.00000000000E+00 0.  1.
</event>
<event>
 7    1  0.2740409E-010  0.4778727E+02  0.7816164E-02  0.1312668E+00
        -11   -1    0    0    0    0  0.00000000000E+00  0.00000000000E+00  0.45593999997E+02  0.45594000000E+02  0.51100000000E-03 0.  1.
         11   -1    0    0    0    0 -0.00000000000E+00 -0.00000000000E+00 -0.45593999997E+02  0.45594000000E+02  0.51100000000E-03 0. -1.
    9900012    2    1    2    0    0  0.15127706519E+02 -0.10249892071E+02 -0.39366423916E+02  0.47787272772E+02  0.20000007876E+02 0.  0.
        -12    1    1    2    0    0 -0.15127706519E+02  0.10249892071E+02  0.39366423916E+02  0.43400727228E+02  0.00000000000E+00 0.  1.
         11    1    3    3    0    0  0.71609658133E+01  0.36781298248E+01 -0.11057902527E+02  0.13677912083E+02  0.51100000000E-03 0. -1.
        -11    1    3    3    0    0 -0.13152801438E+01 -0.52398229082E+00 -0.77112347396E+01  0.78401314255E+01  0.51100000000E-03 0.  1.
         12    1    3    3    0    0  0.92820208490E+01 -0.13404039605E+02 -0.20597286649E+02  0.26269229263E+02  0.00000000000E+00 0. -1.
</event>
<event>
 7    1  0.2740409E-010  0.4778727E+02  0.7816164E-02  0.1312668E+00
        -11   -1    0    0    0    0  0.00000000000E+00  0.00000000000E+00  0.45593999997E+02  0.45594000000E+02  0.51100000000E-03 0.  1.
         11   -1    0    0    0    0 -0.00000000000E+00 -0.00000000000E+00 -0.45593999997E+02  0.45594000000E+02  0.51100000000E-03 0. -1.
    9900012    2    1    2    0    0  0.92393741403E+01  0.38398793435E+02 -0.17994165820E+02  0.47787269875E+02  0.19999994669E+02 0.  0.
        -12    1    1    2    0    0 -0.92393741403E+01 -0.38398793435E+02  0.17994165820E+02  0.43400730125E+02  0.00000000000E+00 0.  1.
         11    1    3    3    0    0 -0.38313064435E+00  0.56162688813E+01 -0.71537842478E+01  0.91030706117E+01  0.51100000000E-03 0. -1.
        -11    1    3    3    0    0  0.42939102202E+00 -0.14968778099E+01  0.56567915462E-01  0.15582746927E+01  0.51100000000E-03 0.  1.
         12    1    3    3    0    0  0.91931137626E+01  0.34279402364E+02 -0.10896949488E+02  0.37125924571E+02  0.00000000000E+00 0. -1.
</event>
<event>
 7    1  0.2740409E-010  0.4778727E+02  0.7816164E-02  0.1312668E+00
        -11   -1    0    0    0    0  0.00000000000E+00  0.00000000000E+00  0.45593999997E+02  0.45594000000E+02  0.51100000000E-03 0.  1.
         11   -1    0    0    0    0 -0.00000000000E+00 -0.00000000000E+00 -0.45593999997E+02  0.45594000000E+02  0.51100000000E-03 0. -1.
    9900012    2    1    2    0    0  0.10525288738E+02 -0.40259246274E+02 -0.12330227096E+02  0.47787272888E+02  0.20000008406E+02 0.  0.
        -12    1    1    2    0    0 -0.10525288738E+02  0.40259246274E+02  0.12330227096E+02  0.43400727112E+02  0.00000000000E+00 0.  1.
         11    1    3    3    0    0 -0.43563507504E+01 -0.80192945189E+01 -0.28783386208E+01  0.95693108382E+01  0.51100000000E-03 0. -1.
        -11    1    3    3    0    0  0.99625092457E+01 -0.10282071880E+02 -0.16973008527E+01  0.14417122565E+02  0.51100000000E-03 0.  1.
         12    1    3    3    0    0  0.49191302430E+01 -0.21957879876E+02 -0.77545876223E+01  0.23800839485E+02  0.00000000000E+00 0. -1.
</event>
<event>
 7    1  0.2740409E-010  0.4778727E+02  0.7816164E-02  0.1312668E+00
        -11   -1    0    0    0    0  0.00000000000E+00  0.00000000000E+00  0.45593999997E+02  0.45594000000E+02  0.51100000000E-03 0.  1.
         11   -1    0    0    0    0 -0.00000000000E+00 -0.00000000000E+00 -0.45593999997E+02  0.45594000000E+02  0.51100000000E-03 0. -1.
    9900012    2    1    2    0    0 -0.62612946638E+01 -0.25887339640E+02 -0.34267548072E+02  0.47787274022E+02  0.20000013577E+02 0.  0.
        -12    1    1    2    0    0  0.62612946638E+01  0.25887339640E+02  0.34267548072E+02  0.43400725978E+02  0.00000000000E+00 0.  1.
         11    1    3    3    0    0 -0.86945226340E+01 -0.71656434536E+01 -0.12917001831E+02  0.17140306488E+02  0.51100000000E-03 0. -1.
        -11    1    3    3    0    0  0.48589873953E+01 -0.28739792602E+01 -0.34480110811E+01  0.66150053645E+01  0.51100000000E-03 0.  1.
        -12    1    3    3    0    0 -0.24257594251E+01 -0.15847716926E+02 -0.17902535160E+02  0.24031962170E+02  0.00000000000E+00 0.  1.
</event>
<event>
 7    1  0.2740409E-010  0.4778727E+02  0.7816164E-02  0.1312668E+00
        -11   -1    0    0    0    0  0.00000000000E+00  0.00000000000E+00  0.45593999997E+02  0.45594000000E+02  0.51100000000E-03 0.  1.
         11   -1    0    0    0    0 -0.00000000000E+00 -0.00000000000E+00 -0.45593999997E+02  0.45594000000E+02  0.51100000000E-03 0. -1.
    9900012    2    1    2    0    0 -0.22044025817E+02  0.18905433971E+02 -0.32253193773E+02  0.47787274011E+02  0.20000013525E+02 0.  0.
        -12    1    1    2    0    0  0.22044025817E+02 -0.18905433971E+02  0.32253193773E+02  0.43400725989E+02  0.00000000000E+00 0.  1.
         11    1    3    3    0    0  0.12765051139E+01  0.47142269420E+01  0.21162778229E+00  0.48885772517E+01  0.51100000000E-03 0. -1.
        -11    1    3    3    0    0  0.39154160866E+00  0.56072213586E+00 -0.95016702032E+00  0.11706971310E+01  0.51100000000E-03 0.  1.
         12    1    3    3    0    0 -0.23712072539E+02  0.13630484893E+02 -0.31514654535E+02  0.41727999628E+02  0.00000000000E+00 0. -1.
</event>
<event>
 7    1  0.2740409E-010  0.4778727E+02  0.7816164E-02  0.1312668E+00
        -11   -1    0    0    0    0  0.00000000000E+00  0.00000000000E+00  0.45593999997E+02  0.45594000000E+02  0.51100000000E-03 0. -1.
         11   -1    0    0    0    0 -0.00000000000E+00 -0.00000000000E+00 -0.45593999997E+02  0.45594000000E+02  0.51100000000E-03 0.  1.
    9900012    2    1    2    0    0  0.35716839160E+02  0.25505895074E+01  0.24523971691E+02  0.47787270814E+02  0.19999998949E+02 0.  0.
        -12    1    1    2    0    0 -0.35716839160E+02 -0.25505895074E+01 -0.24523971691E+02  0.43400729186E+02  0.00000000000E+00 0.  1.
         11    1    3    3    0    0  0.16561469566E+02 -0.52169957744E+01  0.17020280694E+02  0.24314384102E+02  0.51100000000E-03 0. -1.
        -11    1    3    3    0    0  0.14112439510E+02  0.68611970869E+01  0.17826883388E+01  0.15792876634E+02  0.51100000000E-03 0.  1.
        -12    1    3    3    0    0  0.50429300842E+01  0.90638819492E+00  0.57210026577E+01  0.76800100783E+01  0.00000000000E+00 0.  1.
</event>
<event>
 7    1  0.2740409E-010  0.4778727E+02  0.7816164E-02  0.1312668E+00
        -11   -1    0    0    0    0  0.00000000000E+00  0.00000000000E+00  0.45593999997E+02  0.45594000000E+02  0.51100000000E-03 0.  1.
         11   -1    0    0    0    0 -0.00000000000E+00 -0.00000000000E+00 -0.45593999997E+02  0.45594000000E+02  0.51100000000E-03 0. -1.
    9900012    2    1    2    0    0 -0.19213130117E+02  0.23125576057E+02 -0.31299953048E+02  0.47787266162E+02  0.19999977740E+02 0.  0.
        -12    1    1    2    0    0  0.19213130117E+02 -0.23125576057E+02  0.31299953048E+02  0.43400733838E+02  0.00000000000E+00 0.  1.
         11    1    3    3    0    0 -0.77773926096E+00  0.83807581005E+01 -0.14961743686E+02  0.17166704957E+02  0.51100000000E-03 0. -1.
        -11    1    3    3    0    0 -0.11561268010E+02  0.31692320865E+01 -0.10539277865E+02  0.15961933724E+02  0.51100000000E-03 0.  1.
        -12    1    3    3    0    0 -0.68741228454E+01  0.11575585870E+02 -0.57989314972E+01  0.14658627481E+02  0.00000000000E+00 0.  1.
</event>
<event>
 7    1  0.2740409E-010  0.4778727E+02  0.7816164E-02  0.1312668E+00
        -11   -1    0    0    0    0  0.00000000000E+00  0.00000000000E+00  0.45593999997E+02  0.45594000000E+02  0.51100000000E-03 0.  1.
         11   -1    0    0    0    0 -0.00000000000E+00 -0.00000000000E+00 -0.45593999997E+02  0.45594000000E+02  0.51100000000E-03 0. -1.
    9900012    2    1    2    0    0  0.40608698594E+01 -0.32014553058E+02 -0.29020699954E+02  0.47787270775E+02  0.19999998770E+02 0.  0.
        -12    1    1    2    0    0 -0.40608698594E+01  0.32014553058E+02  0.29020699954E+02  0.43400729225E+02  0.00000000000E+00 0.  1.
         11    1    3    3    0    0  0.65983718834E+01 -0.90473888123E+01 -0.69839595816E+01  0.13197327287E+02  0.51100000000E-03 0. -1.
        -11    1    3    3    0    0 -0.36751096988E+01 -0.21592311056E+01 -0.91346012155E+01  0.10080161204E+02  0.51100000000E-03 0.  1.
        -12    1    3    3    0    0  0.11376076748E+01 -0.20807933140E+02 -0.12902139157E+02  0.24509782283E+02  0.00000000000E+00 0.  1.
</event>
<event>
 7    1  0.2740409E-010  0.4778727E+02  0.7816164E-02  0.1312668E+00
        -11   -1    0    0    0    0  0.00000000000E+00  0.00000000000E+00  0.45593999997E+02  0.45594000000E+02  0.51100000000E-03 0.  1.
         11   -1    0    0    0    0 -0.00000000000E+00 -0.00000000000E+00 -0.45593999997E+02  0.45594000000E+02  0.51100000000E-03 0. -1.
    9900012    2    1    2    0    0  0.29017835186E+02  0.87069427047E+00 -0.32261907755E+02  0.47787267755E+02  0.19999985001E+02 0.  0.
        -12    1    1    2    0    0 -0.29017835186E+02 -0.87069427047E+00  0.32261907755E+02  0.43400732245E+02  0.00000000000E+00 0.  1.
         11    1    3    3    0    0  0.10047543379E+02  0.64215023110E+01 -0.18910910674E+02  0.22356461319E+02  0.51100000000E-03 0. -1.
        -11    1    3    3    0    0  0.12085619842E+02 -0.21433876059E+01 -0.31700877427E+01  0.12676978108E+02  0.51100000000E-03 0.  1.
         12    1    3    3    0    0  0.68846719655E+01 -0.34074204346E+01 -0.10180909338E+02  0.12753828329E+02  0.00000000000E+00 0. -1.
</event>
<event>
 7    1  0.2740409E-010  0.4778728E+02  0.7816164E-02  0.1312668E+00
        -11   -1    0    0    0    0  0.00000000000E+00  0.00000000000E+00  0.45593999997E+02  0.45594000000E+02  0.51100000000E-03 0.  1.
         11   -1    0    0    0    0 -0.00000000000E+00 -0.00000000000E+00 -0.45593999997E+02  0.45594000000E+02  0.51100000000E-03 0. -1.
    9900012    2    1    2    0    0 -0.12156668539E+02  0.40263619968E+02 -0.10708809581E+02  0.47787282430E+02  0.20000051914E+02 0.  0.
        -12    1    1    2    0    0  0.12156668539E+02 -0.40263619968E+02  0.10708809581E+02  0.43400717570E+02  0.00000000000E+00 0.  1.
         11    1    3    3    0    0 -0.82175802209E+01  0.27710742319E+02 -0.75006593124E+01  0.29860906801E+02  0.51100000000E-03 0. -1.
        -11    1    3    3    0    0  0.42210037724E+01  0.40073067109E+01 -0.11431126026E+01  0.59314489465E+01  0.51100000000E-03 0.  1.
         12    1    3    3    0    0 -0.81600920901E+01  0.85455709381E+01 -0.20650376655E+01  0.11994926683E+02  0.00000000000E+00 0. -1.
</event>
<event>
 7    1  0.2740409E-010  0.4778727E+02  0.7816164E-02  0.1312668E+00
        -11   -1    0    0    0    0  0.00000000000E+00  0.00000000000E+00  0.45593999997E+02  0.45594000000E+02  0.51100000000E-03 0.  1.
         11   -1    0    0    0    0 -0.00000000000E+00 -0.00000000000E+00 -0.45593999997E+02  0.45594000000E+02  0.51100000000E-03 0. -1.
    9900012    2    1    2    0    0  0.39345049860E+02 -0.16299672891E+02 -0.83612980583E+01  0.47787267402E+02  0.19999983394E+02 0.  0.
        -12    1    1    2    0    0 -0.39345049860E+02  0.16299672891E+02  0.83612980583E+01  0.43400732598E+02  0.00000000000E+00 0.  1.
         11    1    3    3    0    0  0.18294871822E+02 -0.12221850174E+02 -0.60697797321E+01  0.22823632115E+02  0.51100000000E-03 0. -1.
        -11    1    3    3    0    0  0.10980787028E+02  0.42342542609E+01 -0.44993362657E+00  0.11777479927E+02  0.51100000000E-03 0.  1.
        -12    1    3    3    0    0  0.10069391010E+02 -0.83120769776E+01 -0.18415846995E+01  0.13186155361E+02  0.00000000000E+00 0.  1.
</event>
<event>
 7    1  0.2740409E-010  0.4778727E+02  0.7816164E-02  0.1312668E+00
        -11   -1    0    0    0    0  0.00000000000E+00  0.00000000000E+00  0.45593999997E+02  0.45594000000E+02  0.51100000000E-03 0.  1.
         11   -1    0    0    0    0 -0.00000000000E+00 -0.00000000000E+00 -0.45593999997E+02  0.45594000000E+02  0.51100000000E-03 0. -1.
    9900012    2    1    2    0    0  0.41563586651E+01  0.18368380647E+02 -0.39101796926E+02  0.47787271345E+02  0.20000001372E+02 0.  0.
        -12    1    1    2    0    0 -0.41563586651E+01 -0.18368380647E+02  0.39101796926E+02  0.43400728655E+02  0.00000000000E+00 0.  1.
         11    1    3    3    0    0  0.38656677021E+01  0.78827375000E+01 -0.13485215346E+02  0.16091363225E+02  0.51100000000E-03 0. -1.
        -11    1    3    3    0    0  0.30171437340E+01 -0.86925169737E+00 -0.16728404091E+02  0.17020524625E+02  0.51100000000E-03 0.  1.
        -12    1    3    3    0    0 -0.27264527710E+01  0.11354894844E+02 -0.88881774891E+01  0.14675383494E+02  0.00000000000E+00 0.  1.
</event>
<event>
 7    1  0.2740409E-010  0.4778729E+02  0.7816164E-02  0.1312668E+00
        -11   -1    0    0    0    0  0.00000000000E+00  0.00000000000E+00  0.45593999997E+02  0.45594000000E+02  0.51100000000E-03 0.  1.
         11   -1    0    0    0    0 -0.00000000000E+00 -0.00000000000E+00 -0.45593999997E+02  0.45594000000E+02  0.51100000000E-03 0. -1.
    9900012    2    1    2    0    0 -0.88846804870E+01 -0.34569371726E+02 -0.24690945397E+02  0.47787288100E+02  0.20000077762E+02 0.  0.
        -12    1    1    2    0    0  0.88846804870E+01  0.34569371726E+02  0.24690945397E+02  0.43400711900E+02  0.00000000000E+00 0.  1.
         11    1    3    3    0    0 -0.16561132939E+01 -0.32915602297E+01 -0.12466426917E+01  0.38898840920E+01  0.51100000000E-03 0. -1.
        -11    1    3    3    0    0  0.10125225536E+01 -0.16078269303E+02 -0.20950765136E+02  0.26428592580E+02  0.51100000000E-03 0.  1.
        -12    1    3    3    0    0 -0.82410897468E+01 -0.15199542193E+02 -0.24935375689E+01  0.17468811428E+02  0.00000000000E+00 0.  1.
</event>
<event>
 7    1  0.2740409E-010  0.4778727E+02  0.7816164E-02  0.1312668E+00
        -11   -1    0    0    0    0  0.00000000000E+00  0.00000000000E+00  0.45593999997E+02  0.45594000000E+02  0.51100000000E-03 0.  1.
         11   -1    0    0    0    0 -0.00000000000E+00 -0.00000000000E+00 -0.45593999997E+02  0.45594000000E+02  0.51100000000E-03 0. -1.
    9900012    2    1    2    0    0  0.28205098116E+02 -0.10221097301E+02 -0.31362794536E+02  0.47787271079E+02  0.20000000157E+02 0.  0.
        -12    1    1    2    0    0 -0.28205098116E+02  0.10221097301E+02  0.31362794536E+02  0.43400728921E+02  0.00000000000E+00 0.  1.
         11    1    3    3    0    0  0.80686691306E+01 -0.23848544241E+01 -0.51912081406E+01  0.98863337180E+01  0.51100000000E-03 0. -1.
        -11    1    3    3    0    0  0.16784723663E+02 -0.31606457597E+00 -0.94559254550E+01  0.19267624963E+02  0.51100000000E-03 0.  1.
        -12    1    3    3    0    0  0.33517053232E+01 -0.75201783011E+01 -0.16715660940E+02  0.18633312398E+02  0.00000000000E+00 0.  1.
</event>
<event>
 7    1  0.2740409E-010  0.4778727E+02  0.7816164E-02  0.1312668E+00
        -11   -1    0    0    0    0  0.00000000000E+00  0.00000000000E+00  0.45593999997E+02  0.45594000000E+02  0.51100000000E-03 0.  1.
         11   -1    0    0    0    0 -0.00000000000E+00 -0.00000000000E+00 -0.45593999997E+02  0.45594000000E+02  0.51100000000E-03 0. -1.
    9900012    2    1    2    0    0  0.47975670664E+00  0.38665790138E+02 -0.19706591112E+02  0.47787271588E+02  0.20000002478E+02 0.  0.
        -12    1    1    2    0    0 -0.47975670664E+00 -0.38665790138E+02  0.19706591112E+02  0.43400728412E+02  0.00000000000E+00 0.  1.
         11    1    3    3    0    0 -0.63941352290E+01  0.14623175094E+02 -0.15223592487E+02  0.22056291248E+02  0.51100000000E-03 0. -1.
        -11    1    3    3    0    0  0.71971091749E+01  0.19917578182E+02 -0.41421125152E+01  0.21579281671E+02  0.51100000000E-03 0.  1.
         12    1    3    3    0    0 -0.32321723930E+00  0.41250368620E+01 -0.34088610982E+00  0.41516986688E+01  0.00000000000E+00 0. -1.
</event>
<event>
 7    1  0.2740409E-010  0.4778727E+02  0.7816164E-02  0.1312668E+00
        -11   -1    0    0    0    0  0.00000000000E+00  0.00000000000E+00  0.45593999997E+02  0.45594000000E+02  0.51100000000E-03 0. -1.
         11   -1    0    0    0    0 -0.00000000000E+00 -0.00000000000E+00 -0.45593999997E+02  0.45594000000E+02  0.51100000000E-03 0.  1.
    9900012    2    1    2    0    0 -0.12157948287E+02  0.36454567776E+02 -0.20171079913E+02  0.47787266329E+02  0.19999978502E+02 0.  0.
        -12    1    1    2    0    0  0.12157948287E+02 -0.36454567776E+02  0.20171079913E+02  0.43400733671E+02  0.00000000000E+00 0.  1.
         11    1    3    3    0    0 -0.92766770630E+01  0.23256539180E+02 -0.75711837256E+01  0.26158099611E+02  0.51100000000E-03 0. -1.
        -11    1    3    3    0    0 -0.19109525489E+01  0.76952926531E+01 -0.13798530742E+02  0.15914418606E+02  0.51100000000E-03 0.  1.
        -12    1    3    3    0    0 -0.97031867521E+00  0.55027359432E+01  0.11986345554E+01  0.57147481125E+01  0.00000000000E+00 0.  1.
</event>
<event>
 7    1  0.2740409E-010  0.4778727E+02  0.7816164E-02  0.1312668E+00
        -11   -1    0    0    0    0  0.00000000000E+00  0.00000000000E+00  0.45593999997E+02  0.45594000000E+02  0.51100000000E-03 0. -1.
         11   -1    0    0    0    0 -0.00000000000E+00 -0.00000000000E+00 -0.45593999997E+02  0.45594000000E+02  0.51100000000E-03 0.  1.
    9900012    2    1    2    0    0  0.39682245146E+02  0.62744445398E+01  0.16418706319E+02  0.47787272457E+02  0.20000006441E+02 0.  0.
        -12    1    1    2    0    0 -0.39682245146E+02 -0.62744445398E+01 -0.16418706319E+02  0.43400727543E+02  0.00000000000E+00 0.  1.
         11    1    3    3    0    0  0.92394197672E+01 -0.52644422445E+01  0.76333430867E+01  0.13090040364E+02  0.51100000000E-03 0. -1.
        -11    1    3    3    0    0  0.17336399812E+02  0.10829709917E+02  0.53625810169E+01  0.21132691517E+02  0.51100000000E-03 0.  1.
         12    1    3    3    0    0  0.13106425567E+02  0.70917686707E+00  0.34227822149E+01  0.13564540576E+02  0.00000000000E+00 0. -1.
</event>
<event>
 7    1  0.2740409E-010  0.4778727E+02  0.7816164E-02  0.1312668E+00
        -11   -1    0    0    0    0  0.00000000000E+00  0.00000000000E+00  0.45593999997E+02  0.45594000000E+02  0.51100000000E-03 0. -1.
         11   -1    0    0    0    0 -0.00000000000E+00 -0.00000000000E+00 -0.45593999997E+02  0.45594000000E+02  0.51100000000E-03 0.  1.
    9900012    2    1    2    0    0  0.11743110802E+02  0.20692901665E+02  0.36297748650E+02  0.47787269734E+02  0.19999994023E+02 0.  0.
        -12    1    1    2    0    0 -0.11743110802E+02 -0.20692901665E+02 -0.36297748650E+02  0.43400730266E+02  0.00000000000E+00 0.  1.
         11    1    3    3    0    0  0.41554868379E+01  0.18785831728E+02  0.21474345245E+02  0.28832673281E+02  0.51100000000E-03 0. -1.
        -11    1    3    3    0    0 -0.16970427785E+01 -0.80158102221E+00  0.41284004831E+01  0.45349947230E+01  0.51100000000E-03 0.  1.
         12    1    3    3    0    0  0.92846667427E+01  0.27086509594E+01  0.10695002921E+02  0.14419601729E+02  0.00000000000E+00 0. -1.
</event>
<event>
 7    1  0.2740409E-010  0.4778728E+02  0.7816164E-02  0.1312668E+00
        -11   -1    0    0    0    0  0.00000000000E+00  0.00000000000E+00  0.45593999997E+02  0.45594000000E+02  0.51100000000E-03 0. -1.
         11   -1    0    0    0    0 -0.00000000000E+00 -0.00000000000E+00 -0.45593999997E+02  0.45594000000E+02  0.51100000000E-03 0.  1.
    9900012    2    1    2    0    0 -0.15864647741E+02 -0.24109423202E+02  0.32414056258E+02  0.47787281363E+02  0.20000047048E+02 0.  0.
        -12    1    1    2    0    0  0.15864647741E+02  0.24109423202E+02 -0.32414056258E+02  0.43400718637E+02  0.00000000000E+00 0.  1.
         11    1    3    3    0    0  0.14414172220E+01 -0.11839184669E+02  0.15626657642E+02  0.19657985822E+02  0.51100000000E-03 0. -1.
        -11    1    3    3    0    0 -0.86313613510E+01 -0.94612058101E+01  0.13021592191E+02  0.18264081625E+02  0.51100000000E-03 0.  1.
         12    1    3    3    0    0 -0.86747036124E+01 -0.28090327226E+01  0.37658064252E+01  0.98652139172E+01  0.00000000000E+00 0. -1.
</event>
<event>
 7    1  0.2740409E-010  0.4778727E+02  0.7816164E-02  0.1312668E+00
        -11   -1    0    0    0    0  0.00000000000E+00  0.00000000000E+00  0.45593999997E+02  0.45594000000E+02  0.51100000000E-03 0. -1.
         11   -1    0    0    0    0 -0.00000000000E+00 -0.00000000000E+00 -0.45593999997E+02  0.45594000000E+02  0.51100000000E-03 0.  1.
    9900012    2    1    2    0    0  0.17993542537E+02  0.35784645134E+02 -0.16712716562E+02  0.47787270798E+02  0.19999998877E+02 0.  0.
        -12    1    1    2    0    0 -0.17993542537E+02 -0.35784645134E+02  0.16712716562E+02  0.43400729202E+02  0.00000000000E+00 0.  1.
         11    1    3    3    0    0  0.80067819819E+01  0.16762832454E+02 -0.62212759199E+01  0.19590951583E+02  0.51100000000E-03 0. -1.
        -11    1    3    3    0    0  0.94298105328E+01  0.41510501641E+01 -0.58563710718E+00  0.10319666430E+02  0.51100000000E-03 0.  1.
        -12    1    3    3    0    0  0.55695002225E+00  0.14870762516E+02 -0.99058035349E+01  0.17876652785E+02  0.00000000000E+00 0.  1.
</event>
<event>
 7    1  0.2740409E-010  0.4778727E+02  0.7816164E-02  0.1312668E+00
        -11   -1    0    0    0    0  0.00000000000E+00  0.00000000000E+00  0.45593999997E+02  0.45594000000E+02  0.51100000000E-03 0. -1.
         11   -1    0    0    0    0 -0.00000000000E+00 -0.00000000000E+00 -0.45593999997E+02  0.45594000000E+02  0.51100000000E-03 0.  1.
    9900012    2    1    2    0    0  0.38480014815E+01  0.42907819704E+02  0.52663893733E+01  0.47787274612E+02  0.20000016265E+02 0.  0.
        -12    1    1    2    0    0 -0.38480014815E+01 -0.42907819704E+02 -0.52663893733E+01  0.43400725388E+02  0.00000000000E+00 0.  1.
         11    1    3    3    0    0 -0.25539483941E+01  0.14756406398E+02  0.23177637335E+01  0.15154082327E+02  0.51100000000E-03 0. -1.
        -11    1    3    3    0    0  0.10510462793E+02  0.13417707808E+02 -0.59941618043E-01  0.17044304157E+02  0.51100000000E-03 0.  1.
        -12    1    3    3    0    0 -0.41085129177E+01  0.14733705498E+02  0.30085672579E+01  0.15588888128E+02  0.00000000000E+00 0.  1.
</event>
<event>
 7    1  0.2740409E-010  0.4778727E+02  0.7816164E-02  0.1312668E+00
        -11   -1    0    0    0    0  0.00000000000E+00  0.00000000000E+00  0.45593999997E+02  0.45594000000E+02  0.51100000000E-03 0. -1.
         11   -1    0    0    0    0 -0.00000000000E+00 -0.00000000000E+00 -0.45593999997E+02  0.45594000000E+02  0.51100000000E-03 0.  1.
    9900012    2    1    2    0    0  0.41732080241E+02 -0.11559154376E+02  0.29056307262E+01  0.47787271192E+02  0.20000000675E+02 0.  0.
        -12    1    1    2    0    0 -0.41732080241E+02  0.11559154376E+02 -0.29056307262E+01  0.43400728808E+02  0.00000000000E+00 0.  1.
         11    1    3    3    0    0  0.77563314631E+01  0.12862664066E+01  0.39857066879E+01  0.88148180411E+01  0.51100000000E-03 0. -1.
        -11    1    3    3    0    0  0.13332571236E+02 -0.71867309459E+01 -0.71138029780E+01  0.16733581521E+02  0.51100000000E-03 0.  1.
        -12    1    3    3    0    0  0.20643177542E+02 -0.56586898371E+01  0.60337270163E+01  0.22238871631E+02  0.00000000000E+00 0.  1.
</event>
<event>
 7    1  0.2740409E-010  0.4778727E+02  0.7816164E-02  0.1312668E+00
        -11   -1    0    0    0    0  0.00000000000E+00  0.00000000000E+00  0.45593999997E+02  0.45594000000E+02  0.51100000000E-03 0.  1.
         11   -1    0    0    0    0 -0.00000000000E+00 -0.00000000000E+00 -0.45593999997E+02  0.45594000000E+02  0.51100000000E-03 0. -1.
    9900012    2    1    2    0    0  0.38605445975E+02 -0.16494994202E+02 -0.11007181039E+02  0.47787270432E+02  0.19999997207E+02 0.  0.
        -12    1    1    2    0    0 -0.38605445975E+02  0.16494994202E+02  0.11007181039E+02  0.43400729568E+02  0.00000000000E+00 0.  1.
         11    1    3    3    0    0  0.21740445109E+02 -0.43938708928E+01  0.13724386616E+00  0.22180439381E+02  0.51100000000E-03 0. -1.
        -11    1    3    3    0    0  0.87355492518E+01 -0.12076996798E+02 -0.77167229733E+01  0.16784263049E+02  0.51100000000E-03 0.  1.
         12    1    3    3    0    0  0.81294516135E+01 -0.24126511015E-01 -0.34277019319E+01  0.88225680025E+01  0.00000000000E+00 0. -1.
</event>
<event>
 7    1  0.2740409E-010  0.4778727E+02  0.7816164E-02  0.1312668E+00
        -11   -1    0    0    0    0  0.00000000000E+00  0.00000000000E+00  0.45593999997E+02  0.45594000000E+02  0.51100000000E-03 0.  1.
         11   -1    0    0    0    0 -0.00000000000E+00 -0.00000000000E+00 -0.45593999997E+02  0.45594000000E+02  0.51100000000E-03 0. -1.
    9900012    2    1    2    0    0  0.11501218653E+02 -0.29892421771E+02 -0.29288024013E+02  0.47787271199E+02  0.20000000705E+02 0.  0.
        -12    1    1    2    0    0 -0.11501218653E+02  0.29892421771E+02  0.29288024013E+02  0.43400728801E+02  0.00000000000E+00 0.  1.
         11    1    3    3    0    0  0.75598291069E+01 -0.18421768472E+02 -0.28174622728E+02  0.34501042533E+02  0.51100000000E-03 0. -1.
        -11    1    3    3    0    0  0.15542879532E+01 -0.32780759051E+01  0.20718991996E+01  0.41778414565E+01  0.51100000000E-03 0.  1.
         12    1    3    3    0    0  0.23871015929E+01 -0.81925773947E+01 -0.31853004846E+01  0.91083872096E+01  0.00000000000E+00 0. -1.
</event>
<event>
 7    1  0.2740409E-010  0.4778728E+02  0.7816164E-02  0.1312668E+00
        -11   -1    0    0    0    0  0.00000000000E+00  0.00000000000E+00  0.45593999997E+02  0.45594000000E+02  0.51100000000E-03 0.  1.
         11   -1    0    0    0    0 -0.00000000000E+00 -0.00000000000E+00 -0.45593999997E+02  0.45594000000E+02  0.51100000000E-03 0. -1.
    9900012    2    1    2    0    0 -0.20102996570E+02 -0.35881140262E+02 -0.13857709410E+02  0.47787276416E+02  0.20000024490E+02 0.  0.
        -12    1    1    2    0    0  0.20102996570E+02  0.35881140262E+02  0.13857709410E+02  0.43400723584E+02  0.00000000000E+00 0.  1.
         11    1    3    3    0    0 -0.16445335962E+01  0.40227152819E+00 -0.49493168872E+01  0.52308747875E+01  0.51100000000E-03 0. -1.
        -11    1    3    3    0    0 -0.12691823816E+02 -0.29404813648E+02 -0.99088586650E+01  0.33524780950E+02  0.51100000000E-03 0.  1.
         12    1    3    3    0    0 -0.57666391579E+01 -0.68785981423E+01  0.10004661424E+01  0.90316206786E+01  0.00000000000E+00 0. -1.
</event>
<event>
 7    1  0.2740409E-010  0.4778728E+02  0.7816164E-02  0.1312668E+00
        -11   -1    0    0    0    0  0.00000000000E+00  0.00000000000E+00  0.45593999997E+02  0.45594000000E+02  0.51100000000E-03 0.  1.
         11   -1    0    0    0    0 -0.00000000000E+00 -0.00000000000E+00 -0.45593999997E+02  0.45594000000E+02  0.51100000000E-03 0. -1.
    9900012    2    1    2    0    0  0.25176687264E+02 -0.19566970280E+02 -0.29443003171E+02  0.47787281766E+02  0.20000048882E+02 0.  0.
        -12    1    1    2    0    0 -0.25176687264E+02  0.19566970280E+02  0.29443003171E+02  0.43400718234E+02  0.00000000000E+00 0.  1.
         11    1    3    3    0    0  0.10172336142E+02  0.18106763443E+01 -0.93552701141E+01  0.13938294393E+02  0.51100000000E-03 0. -1.
        -11    1    3    3    0    0  0.13336429047E+02 -0.15380592541E+02 -0.11957261829E+02  0.23609300654E+02  0.51100000000E-03 0.  1.
         12    1    3    3    0    0  0.16679220751E+01 -0.59970540826E+01 -0.81304712279E+01  0.10239686719E+02  0.00000000000E+00 0. -1.
</event>
<event>
 7    1  0.2740409E-010  0.4778727E+02  0.7816164E-02  0.1312668E+00
        -11   -1    0    0    0    0  0.00000000000E+00  0.00000000000E+00  0.45593999997E+02  0.45594000000E+02  0.51100000000E-03 0.  1.
         11   -1    0    0    0    0 -0.00000000000E+00 -0.00000000000E+00 -0.45593999997E+02  0.45594000000E+02  0.51100000000E-03 0. -1.
    9900012    2    1    2    0    0 -0.19082516462E+02 -0.13933762672E+02 -0.36405100586E+02  0.47787268147E+02  0.19999986790E+02 0.  0.
        -12    1    1    2    0    0  0.19082516462E+02  0.13933762672E+02  0.36405100586E+02  0.43400731853E+02  0.00000000000E+00 0.  1.
         11    1    3    3    0    0 -0.29929095997E+01 -0.66079570462E+01 -0.12101522387E+02  0.14109197304E+02  0.51100000000E-03 0. -1.
        -11    1    3    3    0    0 -0.15290645990E+02 -0.78828048385E+01 -0.26317348645E+02  0.31441140356E+02  0.51100000000E-03 0.  1.
        -12    1    3    3    0    0 -0.79896087156E+00  0.55699921312E+00  0.20137704462E+01  0.22369304879E+01  0.00000000000E+00 0.  1.
</event>
<event>
 7    1  0.2740409E-010  0.4778727E+02  0.7816164E-02  0.1312668E+00
        -11   -1    0    0    0    0  0.00000000000E+00  0.00000000000E+00  0.45593999997E+02  0.45594000000E+02  0.51100000000E-03 0.  1.
         11   -1    0    0    0    0 -0.00000000000E+00 -0.00000000000E+00 -0.45593999997E+02  0.45594000000E+02  0.51100000000E-03 0. -1.
    9900012    2    1    2    0    0  0.23241125545E+02  0.35951558867E+02 -0.71385543850E+01  0.47787268897E+02  0.19999990208E+02 0.  0.
        -12    1    1    2    0    0 -0.23241125545E+02 -0.35951558867E+02  0.71385543850E+01  0.43400731103E+02  0.00000000000E+00 0.  1.
         11    1    3    3    0    0  0.32474902001E+01  0.65516044089E+01 -0.20818386323E+01  0.76028787496E+01  0.51100000000E-03 0. -1.
        -11    1    3    3    0    0  0.14161550194E+02  0.30553842678E+02 -0.26830825916E+01  0.33782920815E+02  0.51100000000E-03 0.  1.
        -12    1    3    3    0    0  0.58320851508E+01 -0.11538882199E+01 -0.23736331612E+01  0.64014693324E+01  0.00000000000E+00 0.  1.
</event>
<event>
 7    1  0.2740409E-010  0.4778728E+02  0.7816164E-02  0.1312668E+00
        -11   -1    0    0    0    0  0.00000000000E+00  0.00000000000E+00  0.45593999997E+02  0.45594000000E+02  0.51100000000E-03 0.  1.
         11   -1    0    0    0    0 -0.00000000000E+00 -0.00000000000E+00 -0.45593999997E+02  0.45594000000E+02  0.51100000000E-03 0. -1.
    9900012    2    1    2    0    0 -0.17297792649E+02 -0.37327043815E+02  0.13823913115E+02  0.47787281062E+02  0.20000045676E+02 0.  0.
        -12    1    1    2    0    0  0.17297792649E+02  0.37327043815E+02 -0.13823913115E+02  0.43400718938E+02  0.00000000000E+00 0.  1.
         11    1    3    3    0    0 -0.11583832998E+02 -0.23787969452E+02  0.11829151774E+02  0.28982434499E+02  0.51100000000E-03 0. -1.
        -11    1    3    3    0    0 -0.23900355885E+01  0.15064080785E+01 -0.11989901666E+01  0.30690573625E+01  0.51100000000E-03 0.  1.
        -12    1    3    3    0    0 -0.33239240629E+01 -0.15045482442E+02  0.31937515071E+01  0.15735789201E+02  0.00000000000E+00 0.  1.
</event>
<event>
 7    1  0.2740409E-010  0.4778727E+02  0.7816164E-02  0.1312668E+00
        -11   -1    0    0    0    0  0.00000000000E+00  0.00000000000E+00  0.45593999997E+02  0.45594000000E+02  0.51100000000E-03 0.  1.
         11   -1    0    0    0    0 -0.00000000000E+00 -0.00000000000E+00 -0.45593999997E+02  0.45594000000E+02  0.51100000000E-03 0. -1.
    9900012    2    1    2    0    0 -0.21570147113E+02  0.37658013920E+02 -0.47547219871E+00  0.47787270367E+02  0.19999996910E+02 0.  0.
        -12    1    1    2    0    0  0.21570147113E+02 -0.37658013920E+02  0.47547219871E+00  0.43400729633E+02  0.00000000000E+00 0.  1.
         11    1    3    3    0    0 -0.39550897006E+01  0.88100796212E+01 -0.71602749195E+01  0.12022053679E+02  0.51100000000E-03 0. -1.
        -11    1    3    3    0    0 -0.18768656290E+02  0.26101210808E+02  0.59156245120E+01  0.32688381394E+02  0.51100000000E-03 0.  1.
        -12    1    3    3    0    0  0.11535988773E+01  0.27467234914E+01  0.76917820883E+00  0.30768352937E+01  0.00000000000E+00 0.  1.
</event>
<event>
 7    1  0.2740409E-010  0.4778727E+02  0.7816164E-02  0.1312668E+00
        -11   -1    0    0    0    0  0.00000000000E+00  0.00000000000E+00  0.45593999997E+02  0.45594000000E+02  0.51100000000E-03 0. -1.
         11   -1    0    0    0    0 -0.00000000000E+00 -0.00000000000E+00 -0.45593999997E+02  0.45594000000E+02  0.51100000000E-03 0.  1.
    9900012    2    1    2    0    0 -0.21116731877E+02  0.20164100179E+02  0.32111000325E+02  0.47787266791E+02  0.19999980606E+02 0.  0.
        -12    1    1    2    0    0  0.21116731877E+02 -0.20164100179E+02 -0.32111000325E+02  0.43400733209E+02  0.00000000000E+00 0.  1.
         11    1    3    3    0    0 -0.43964508508E+00  0.16837665155E+01  0.36623936970E+01  0.40548101475E+01  0.51100000000E-03 0. -1.
        -11    1    3    3    0    0 -0.23723071351E+02  0.16493569692E+02  0.27686000058E+02  0.40016703450E+02  0.51100000000E-03 0.  1.
        -12    1    3    3    0    0  0.30459845591E+01  0.19867639718E+01  0.76260657025E+00  0.37157531935E+01  0.00000000000E+00 0.  1.
</event>
<event>
 7    1  0.2740409E-010  0.4778727E+02  0.7816164E-02  0.1312668E+00
        -11   -1    0    0    0    0  0.00000000000E+00  0.00000000000E+00  0.45593999997E+02  0.45594000000E+02  0.51100000000E-03 0.  1.
         11   -1    0    0    0    0 -0.00000000000E+00 -0.00000000000E+00 -0.45593999997E+02  0.45594000000E+02  0.51100000000E-03 0. -1.
    9900012    2    1    2    0    0 -0.22430900637E+02  0.33186939203E+02 -0.16706438383E+02  0.47787270507E+02  0.19999997551E+02 0.  0.
        -12    1    1    2    0    0  0.22430900637E+02 -0.33186939203E+02  0.16706438383E+02  0.43400729493E+02  0.00000000000E+00 0.  1.
         11    1    3    3    0    0 -0.32346938760E+00  0.14883570613E+02 -0.19490365320E+01  0.15014128356E+02  0.51100000000E-03 0. -1.
        -11    1    3    3    0    0 -0.20619937576E+02  0.16399786609E+02 -0.11573335070E+02  0.28776325536E+02  0.51100000000E-03 0.  1.
        -12    1    3    3    0    0 -0.14874936734E+01  0.19035819819E+01 -0.31840667814E+01  0.39968166156E+01  0.00000000000E+00 0.  1.
</event>
<event>
 7    1  0.2740409E-010  0.4778730E+02  0.7816164E-02  0.1312668E+00
        -11   -1    0    0    0    0  0.00000000000E+00  0.00000000000E+00  0.45593999997E+02  0.45594000000E+02  0.51100000000E-03 0. -1.
         11   -1    0    0    0    0 -0.00000000000E+00 -0.00000000000E+00 -0.45593999997E+02  0.45594000000E+02  0.51100000000E-03 0.  1.
    9900012    2    1    2    0    0  0.21251238771E+02 -0.37020450339E+02  0.78416837363E+01  0.47787298434E+02  0.20000124880E+02 0.  0.
        -12    1    1    2    0    0 -0.21251238771E+02  0.37020450339E+02 -0.78416837363E+01  0.43400701566E+02  0.00000000000E+00 0.  1.
         11    1    3    3    0    0  0.81531500816E+01 -0.24732760107E+02  0.83175243548E+01  0.27337967928E+02  0.51100000000E-03 0. -1.
        -11    1    3    3    0    0  0.74540403463E+01 -0.30303423923E+01 -0.40826046479E+01  0.90229348591E+01  0.51100000000E-03 0.  1.
         12    1    3    3    0    0  0.56440483433E+01 -0.92573478396E+01  0.36067640294E+01  0.11426395647E+02  0.00000000000E+00 0. -1.
</event>
<event>
 7    1  0.2740409E-010  0.4778728E+02  0.7816164E-02  0.1312668E+00
        -11   -1    0    0    0    0  0.00000000000E+00  0.00000000000E+00  0.45593999997E+02  0.45594000000E+02  0.51100000000E-03 0.  1.
         11   -1    0    0    0    0 -0.00000000000E+00 -0.00000000000E+00 -0.45593999997E+02  0.45594000000E+02  0.51100000000E-03 0. -1.
    9900012    2    1    2    0    0  0.11328636398E+02  0.31525891133E+02 -0.27593529775E+02  0.47787277658E+02  0.20000030156E+02 0.  0.
        -12    1    1    2    0    0 -0.11328636398E+02 -0.31525891133E+02  0.27593529775E+02  0.43400722342E+02  0.00000000000E+00 0.  1.
         11    1    3    3    0    0  0.67279303524E+01  0.21905523818E+02 -0.12804069995E+02  0.26249975796E+02  0.51100000000E-03 0. -1.
        -11    1    3    3    0    0  0.20433842759E+01  0.97576516066E+01 -0.45070866300E+01  0.10940795873E+02  0.51100000000E-03 0.  1.
         12    1    3    3    0    0  0.25573217695E+01 -0.13728429240E+00 -0.10282373149E+02  0.10596505990E+02  0.00000000000E+00 0. -1.
</event>
<event>
 7    1  0.2740409E-010  0.4778727E+02  0.7816164E-02  0.1312668E+00
        -11   -1    0    0    0    0  0.00000000000E+00  0.00000000000E+00  0.45593999997E+02  0.45594000000E+02  0.51100000000E-03 0.  1.
         11   -1    0    0    0    0 -0.00000000000E+00 -0.00000000000E+00 -0.45593999997E+02  0.45594000000E+02  0.51100000000E-03 0. -1.
    9900012    2    1    2    0    0  0.17990960590E+02 -0.27576380626E+02 -0.28275295580E+02  0.47787265311E+02  0.19999973861E+02 0.  0.
        -12    1    1    2    0    0 -0.17990960590E+02  0.27576380626E+02  0.28275295580E+02  0.43400734689E+02  0.00000000000E+00 0.  1.
         11    1    3    3    0    0  0.26293184051E+01 -0.48143704840E+01 -0.68222071510E+01  0.87540841386E+01  0.51100000000E-03 0. -1.
        -11    1    3    3    0    0  0.87674921461E+00 -0.95010944424E+00 -0.10618056855E+02  0.10696472726E+02  0.51100000000E-03 0.  1.
        -12    1    3    3    0    0  0.14484892971E+02 -0.21811900697E+02 -0.10835031574E+02  0.28336708447E+02  0.00000000000E+00 0.  1.
</event>
<event>
 7    1  0.2740409E-010  0.4778727E+02  0.7816164E-02  0.1312668E+00
        -11   -1    0    0    0    0  0.00000000000E+00  0.00000000000E+00  0.45593999997E+02  0.45594000000E+02  0.51100000000E-03 0.  1.
         11   -1    0    0    0    0 -0.00000000000E+00 -0.00000000000E+00 -0.45593999997E+02  0.45594000000E+02  0.51100000000E-03 0. -1.
    9900012    2    1    2    0    0  0.14969803546E+02 -0.19089054938E+02 -0.35988005192E+02  0.47787267814E+02  0.19999985269E+02 0.  0.
        -12    1    1    2    0    0 -0.14969803546E+02  0.19089054938E+02  0.35988005192E+02  0.43400732186E+02  0.00000000000E+00 0.  1.
         11    1    3    3    0    0  0.62005587720E+01  0.21969929558E+01 -0.60038939726E+01  0.89062029075E+01  0.51100000000E-03 0. -1.
        -11    1    3    3    0    0  0.72516928846E+01 -0.17556491981E+02 -0.29112375828E+02  0.34761298695E+02  0.51100000000E-03 0.  1.
        -12    1    3    3    0    0  0.15175518893E+01 -0.37295559124E+01 -0.87173539176E+00  0.41197662111E+01  0.00000000000E+00 0.  1.
</event>
<event>
 7    1  0.2740409E-010  0.4778727E+02  0.7816164E-02  0.1312668E+00
        -11   -1    0    0    0    0  0.00000000000E+00  0.00000000000E+00  0.45593999997E+02  0.45594000000E+02  0.51100000000E-03 0.  1.
         11   -1    0    0    0    0 -0.00000000000E+00 -0.00000000000E+00 -0.45593999997E+02  0.45594000000E+02  0.51100000000E-03 0. -1.
    9900012    2    1    2    0    0  0.70589612674E+01  0.42640478939E+02 -0.39476153208E+01  0.47787273680E+02  0.20000012018E+02 0.  0.
        -12    1    1    2    0    0 -0.70589612674E+01 -0.42640478939E+02  0.39476153208E+01  0.43400726320E+02  0.00000000000E+00 0.  1.
         11    1    3    3    0    0 -0.13772759578E+01  0.84330177835E+01  0.48137752022E+01  0.98074007749E+01  0.51100000000E-03 0.  1.
        -11    1    3    3    0    0  0.64990277228E+01  0.27215519870E+02 -0.11463138689E+02  0.30237814604E+02  0.51100000000E-03 0. -1.
         12    1    3    3    0    0  0.19372095024E+01  0.69919412856E+01  0.27017481658E+01  0.77420583018E+01  0.00000000000E+00 0. -1.
</event>
<event>
 7    1  0.2740409E-010  0.4778728E+02  0.7816164E-02  0.1312668E+00
        -11   -1    0    0    0    0  0.00000000000E+00  0.00000000000E+00  0.45593999997E+02  0.45594000000E+02  0.51100000000E-03 0.  1.
         11   -1    0    0    0    0 -0.00000000000E+00 -0.00000000000E+00 -0.45593999997E+02  0.45594000000E+02  0.51100000000E-03 0. -1.
    9900012    2    1    2    0    0  0.11856112325E+02  0.53069565230E+01 -0.41411243634E+02  0.47787282422E+02  0.20000051874E+02 0.  0.
        -12    1    1    2    0    0 -0.11856112325E+02 -0.53069565230E+01  0.41411243634E+02  0.43400717578E+02  0.00000000000E+00 0.  1.
         11    1    3    3    0    0  0.12490922289E+01 -0.17136102628E+01 -0.52490412585E+01  0.56611947435E+01  0.51100000000E-03 0. -1.
        -11    1    3    3    0    0  0.32775211194E+00  0.58884121042E+01 -0.28884777416E+02  0.29480691735E+02  0.51100000000E-03 0.  1.
        -12    1    3    3    0    0  0.10279267985E+02  0.11321546816E+01 -0.72774249596E+01  0.12645395943E+02  0.00000000000E+00 0.  1.
</event>
<event>
 7    1  0.2740409E-010  0.4778727E+02  0.7816164E-02  0.1312668E+00
        -11   -1    0    0    0    0  0.00000000000E+00  0.00000000000E+00  0.45593999997E+02  0.45594000000E+02  0.51100000000E-03 0.  1.
         11   -1    0    0    0    0 -0.00000000000E+00 -0.00000000000E+00 -0.45593999997E+02  0.45594000000E+02  0.51100000000E-03 0. -1.
    9900012    2    1    2    0    0  0.24472821084E+01 -0.72114101312E+01 -0.42727386875E+02  0.47787271723E+02  0.20000003094E+02 0.  0.
        -12    1    1    2    0    0 -0.24472821084E+01  0.72114101312E+01  0.42727386875E+02  0.43400728277E+02  0.00000000000E+00 0.  1.
         11    1    3    3    0    0 -0.49250136975E+01 -0.74514857809E+01 -0.20984556558E+02  0.22806402927E+02  0.51100000000E-03 0. -1.
        -11    1    3    3    0    0  0.15525876276E+01  0.47113454801E+01 -0.86556157056E+01  0.99763213701E+01  0.51100000000E-03 0.  1.
        -12    1    3    3    0    0  0.58197081783E+01 -0.44712698305E+01 -0.13087214611E+02  0.15004547426E+02  0.00000000000E+00 0.  1.
</event>
<event>
 7    1  0.2740409E-010  0.4778727E+02  0.7816164E-02  0.1312668E+00
        -11   -1    0    0    0    0  0.00000000000E+00  0.00000000000E+00  0.45593999997E+02  0.45594000000E+02  0.51100000000E-03 0. -1.
         11   -1    0    0    0    0 -0.00000000000E+00 -0.00000000000E+00 -0.45593999997E+02  0.45594000000E+02  0.51100000000E-03 0.  1.
    9900012    2    1    2    0    0 -0.28885847890E+02 -0.27763370596E+02 -0.16686121853E+02  0.47787267083E+02  0.19999981939E+02 0.  0.
        -12    1    1    2    0    0  0.28885847890E+02  0.27763370596E+02  0.16686121853E+02  0.43400732917E+02  0.00000000000E+00 0.  1.
         11    1    3    3    0    0 -0.16299984096E+02 -0.18182139043E+02 -0.83591258289E+01  0.25809971844E+02  0.51100000000E-03 0. -1.
        -11    1    3    3    0    0 -0.10429957767E+02 -0.11119808861E+01 -0.93439036789E+00  0.10530603313E+02  0.51100000000E-03 0.  1.
        -12    1    3    3    0    0 -0.21559060272E+01 -0.84692506675E+01 -0.73926056564E+01  0.11446691926E+02  0.00000000000E+00 0.  1.
</event>
<event>
 7    1  0.2740409E-010  0.4778727E+02  0.7816164E-02  0.1312668E+00
        -11   -1    0    0    0    0  0.00000000000E+00  0.00000000000E+00  0.45593999997E+02  0.45594000000E+02  0.51100000000E-03 0.  1.
         11   -1    0    0    0    0 -0.00000000000E+00 -0.00000000000E+00 -0.45593999997E+02  0.45594000000E+02  0.51100000000E-03 0. -1.
    9900012    2    1    2    0    0 -0.27048485057E+02 -0.17643721948E+02 -0.28994857716E+02  0.47787271411E+02  0.20000001673E+02 0.  0.
        -12    1    1    2    0    0  0.27048485057E+02  0.17643721948E+02  0.28994857716E+02  0.43400728589E+02  0.00000000000E+00 0.  1.
         11    1    3    3    0    0 -0.62120742041E+01 -0.84605983234E+01 -0.13445723140E+02  0.17057522121E+02  0.51100000000E-03 0. -1.
        -11    1    3    3    0    0 -0.12844788587E+02  0.17361922399E+01 -0.80803646166E+01  0.15274005694E+02  0.51100000000E-03 0.  1.
        -12    1    3    3    0    0 -0.79916222656E+01 -0.10919315865E+02 -0.74687699593E+01  0.15455743596E+02  0.00000000000E+00 0.  1.
</event>
<event>
 7    1  0.2740409E-010  0.4778727E+02  0.7816164E-02  0.1312668E+00
        -11   -1    0    0    0    0  0.00000000000E+00  0.00000000000E+00  0.45593999997E+02  0.45594000000E+02  0.51100000000E-03 0. -1.
         11   -1    0    0    0    0 -0.00000000000E+00 -0.00000000000E+00 -0.45593999997E+02  0.45594000000E+02  0.51100000000E-03 0.  1.
    9900012    2    1    2    0    0 -0.27982665395E+02 -0.32661850249E+02  0.58135791141E+01  0.47787265831E+02  0.19999976229E+02 0.  0.
        -12    1    1    2    0    0  0.27982665395E+02  0.32661850249E+02 -0.58135791141E+01  0.43400734169E+02  0.00000000000E+00 0.  1.
         11    1    3    3    0    0 -0.12165338827E+02 -0.77326345459E+01 -0.35625903793E+01  0.14848607890E+02  0.51100000000E-03 0. -1.
        -11    1    3    3    0    0 -0.88350289695E+01 -0.45102237448E+01  0.18962643675E+01  0.10099290764E+02  0.51100000000E-03 0.  1.
         12    1    3    3    0    0 -0.69822975986E+01 -0.20418991959E+02  0.74799051259E+01  0.22839367177E+02  0.00000000000E+00 0. -1.
</event>
<event>
 7    1  0.2740409E-010  0.4778727E+02  0.7816164E-02  0.1312668E+00
        -11   -1    0    0    0    0  0.00000000000E+00  0.00000000000E+00  0.45593999997E+02  0.45594000000E+02  0.51100000000E-03 0.  1.
         11   -1    0    0    0    0 -0.00000000000E+00 -0.00000000000E+00 -0.45593999997E+02  0.45594000000E+02  0.51100000000E-03 0. -1.
    9900012    2    1    2    0    0 -0.14013153320E+02  0.23985590572E+02 -0.33345855453E+02  0.47787273083E+02  0.20000009293E+02 0.  0.
        -12    1    1    2    0    0  0.14013153320E+02 -0.23985590572E+02  0.33345855453E+02  0.43400726917E+02  0.00000000000E+00 0.  1.
         11    1    3    3    0    0 -0.12460029778E+02  0.89048551839E+01 -0.18232828390E+02  0.23811443032E+02  0.51100000000E-03 0. -1.
        -11    1    3    3    0    0  0.26587543232E+01 -0.23031647914E+00 -0.29128409692E+01  0.39505269275E+01  0.51100000000E-03 0.  1.
         12    1    3    3    0    0 -0.42118778653E+01  0.15311051867E+02 -0.12200186094E+02  0.20025303123E+02  0.00000000000E+00 0. -1.
</event>
<event>
 7    1  0.2740409E-010  0.4778727E+02  0.7816164E-02  0.1312668E+00
        -11   -1    0    0    0    0  0.00000000000E+00  0.00000000000E+00  0.45593999997E+02  0.45594000000E+02  0.51100000000E-03 0.  1.
         11   -1    0    0    0    0 -0.00000000000E+00 -0.00000000000E+00 -0.45593999997E+02  0.45594000000E+02  0.51100000000E-03 0. -1.
    9900012    2    1    2    0    0  0.47093761307E+01  0.18924549242E+02 -0.38772496781E+02  0.47787270811E+02  0.19999998934E+02 0.  0.
        -12    1    1    2    0    0 -0.47093761307E+01 -0.18924549242E+02  0.38772496781E+02  0.43400729189E+02  0.00000000000E+00 0.  1.
         11    1    3    3    0    0 -0.10815812075E+01  0.15672578828E+01 -0.41529903070E+01  0.45687464288E+01  0.51100000000E-03 0. -1.
        -11    1    3    3    0    0  0.62828601851E+01  0.19325972784E+02 -0.35579266853E+02  0.40973793896E+02  0.51100000000E-03 0.  1.
        -12    1    3    3    0    0 -0.49190284688E+00 -0.19686814256E+01  0.95976037944E+00  0.22447304855E+01  0.00000000000E+00 0.  1.
</event>
<event>
 7    1  0.2740409E-010  0.4778727E+02  0.7816164E-02  0.1312668E+00
        -11   -1    0    0    0    0  0.00000000000E+00  0.00000000000E+00  0.45593999997E+02  0.45594000000E+02  0.51100000000E-03 0.  1.
         11   -1    0    0    0    0 -0.00000000000E+00 -0.00000000000E+00 -0.45593999997E+02  0.45594000000E+02  0.51100000000E-03 0. -1.
    9900012    2    1    2    0    0 -0.86405770834E+01 -0.75845684380E+01 -0.41850185335E+02  0.47787271166E+02  0.20000000555E+02 0.  0.
        -12    1    1    2    0    0  0.86405770834E+01  0.75845684380E+01  0.41850185335E+02  0.43400728834E+02  0.00000000000E+00 0.  1.
         11    1    3    3    0    0 -0.90368454855E+01  0.11163791831E-01 -0.27215537260E+02  0.28676648507E+02  0.51100000000E-03 0. -1.
        -11    1    3    3    0    0 -0.39056967111E+01 -0.23263304858E+01 -0.96822443367E+01  0.10696360876E+02  0.51100000000E-03 0.  1.
         12    1    3    3    0    0  0.43019651133E+01 -0.52694017440E+01 -0.49524037381E+01  0.84142617835E+01  0.00000000000E+00 0. -1.
</event>
<event>
 7    1  0.2740409E-010  0.4778727E+02  0.7816164E-02  0.1312668E+00
        -11   -1    0    0    0    0  0.00000000000E+00  0.00000000000E+00  0.45593999997E+02  0.45594000000E+02  0.51100000000E-03 0. -1.
         11   -1    0    0    0    0 -0.00000000000E+00 -0.00000000000E+00 -0.45593999997E+02  0.45594000000E+02  0.51100000000E-03 0.  1.
    9900012    2    1    2    0    0  0.94256941099E+01 -0.24269844284E+02  0.34723971249E+02  0.47787271546E+02  0.20000002287E+02 0.  0.
        -12    1    1    2    0    0 -0.94256941099E+01  0.24269844284E+02 -0.34723971249E+02  0.43400728454E+02  0.00000000000E+00 0.  1.
         11    1    3    3    0    0 -0.46410328978E+01 -0.10678937899E+02  0.15127615276E+02  0.19089883321E+02  0.51100000000E-03 0. -1.
        -11    1    3    3    0    0 -0.62096916267E+00  0.33444622998E+00  0.45062742402E+00  0.83697211311E+00  0.51100000000E-03 0.  1.
         12    1    3    3    0    0  0.14687696170E+02 -0.13925352615E+02  0.19145728549E+02  0.27860416112E+02  0.00000000000E+00 0. -1.
</event>
<event>
 7    1  0.2740409E-010  0.4778732E+02  0.7816164E-02  0.1312668E+00
        -11   -1    0    0    0    0  0.00000000000E+00  0.00000000000E+00  0.45593999997E+02  0.45594000000E+02  0.51100000000E-03 0.  1.
         11   -1    0    0    0    0 -0.00000000000E+00 -0.00000000000E+00 -0.45593999997E+02  0.45594000000E+02  0.51100000000E-03 0. -1.
    9900012    2    1    2    0    0 -0.33563375999E+02 -0.11362643888E+02 -0.25060114753E+02  0.47787317563E+02  0.20000212094E+02 0.  0.
        -12    1    1    2    0    0  0.33563375999E+02  0.11362643888E+02  0.25060114753E+02  0.43400682437E+02  0.00000000000E+00 0.  1.
         11    1    3    3    0    0 -0.21897668041E+02 -0.14051743271E+02 -0.18418936434E+02  0.31878151989E+02  0.51100000000E-03 0. -1.
        -11    1    3    3    0    0  0.36049741086E+00  0.15611328790E+01  0.72786257346E+00  0.17597949983E+01  0.51100000000E-03 0.  1.
         12    1    3    3    0    0 -0.12026205369E+02  0.11279665041E+01 -0.73690408921E+01  0.14149370576E+02  0.00000000000E+00 0. -1.
</event>
<event>
 7    1  0.2740409E-010  0.4778727E+02  0.7816164E-02  0.1312668E+00
        -11   -1    0    0    0    0  0.00000000000E+00  0.00000000000E+00  0.45593999997E+02  0.45594000000E+02  0.51100000000E-03 0.  1.
         11   -1    0    0    0    0 -0.00000000000E+00 -0.00000000000E+00 -0.45593999997E+02  0.45594000000E+02  0.51100000000E-03 0. -1.
    9900012    2    1    2    0    0  0.20718184928E+02 -0.33140408624E+02  0.18870435129E+02  0.47787271982E+02  0.20000004277E+02 0.  0.
        -12    1    1    2    0    0 -0.20718184928E+02  0.33140408624E+02 -0.18870435129E+02  0.43400728018E+02  0.00000000000E+00 0.  1.
         11    1    3    3    0    0 -0.10376855502E+01 -0.10800382299E+02  0.45891906838E+01  0.11780735142E+02  0.51100000000E-03 0. -1.
        -11    1    3    3    0    0  0.47315299618E+00 -0.48467192289E+01 -0.21791332490E+00  0.48746330652E+01  0.51100000000E-03 0.  1.
         12    1    3    3    0    0  0.21282717482E+02 -0.17493307096E+02  0.14499157771E+02  0.31131903775E+02  0.00000000000E+00 0. -1.
</event>
<event>
 7    1  0.2740409E-010  0.4778727E+02  0.7816164E-02  0.1312668E+00
        -11   -1    0    0    0    0  0.00000000000E+00  0.00000000000E+00  0.45593999997E+02  0.45594000000E+02  0.51100000000E-03 0.  1.
         11   -1    0    0    0    0 -0.00000000000E+00 -0.00000000000E+00 -0.45593999997E+02  0.45594000000E+02  0.51100000000E-03 0. -1.
    9900012    2    1    2    0    0 -0.95752702392E+01  0.24938638471E+02 -0.34205287811E+02  0.47787271859E+02  0.20000003714E+02 0.  0.
        -12    1    1    2    0    0  0.95752702392E+01 -0.24938638471E+02  0.34205287811E+02  0.43400728141E+02  0.00000000000E+00 0.  1.
         11    1    3    3    0    0 -0.99840584493E+01  0.12809581143E+02 -0.85850447835E+01  0.18370350742E+02  0.51100000000E-03 0. -1.
        -11    1    3    3    0    0  0.34582826685E-01  0.21961987176E+01 -0.30169448938E+00  0.22170937295E+01  0.51100000000E-03 0.  1.
         12    1    3    3    0    0  0.37420538338E+00  0.99328586102E+01 -0.25318548538E+02  0.27199827388E+02  0.00000000000E+00 0. -1.
</event>
<event>
 7    1  0.2740409E-010  0.4778727E+02  0.7816164E-02  0.1312668E+00
        -11   -1    0    0    0    0  0.00000000000E+00  0.00000000000E+00  0.45593999997E+02  0.45594000000E+02  0.51100000000E-03 0.  1.
         11   -1    0    0    0    0 -0.00000000000E+00 -0.00000000000E+00 -0.45593999997E+02  0.45594000000E+02  0.51100000000E-03 0. -1.
    9900012    2    1    2    0    0  0.24200169234E+02 -0.13458697074E+02 -0.33419135195E+02  0.47787270570E+02  0.19999997837E+02 0.  0.
        -12    1    1    2    0    0 -0.24200169234E+02  0.13458697074E+02  0.33419135195E+02  0.43400729430E+02  0.00000000000E+00 0.  1.
         11    1    3    3    0    0  0.24950779006E+02 -0.10487230902E+02 -0.22845578901E+02  0.35418128982E+02  0.51100000000E-03 0. -1.
        -11    1    3    3    0    0 -0.18631439728E+01 -0.32360448756E+01 -0.10586253377E+02  0.11225509019E+02  0.51100000000E-03 0.  1.
        -12    1    3    3    0    0  0.11125342002E+01  0.26457870427E+00  0.12697083038E-01  0.11436325692E+01  0.00000000000E+00 0.  1.
</event>
<event>
 7    1  0.2740409E-010  0.4778727E+02  0.7816164E-02  0.1312668E+00
        -11   -1    0    0    0    0  0.00000000000E+00  0.00000000000E+00  0.45593999997E+02  0.45594000000E+02  0.51100000000E-03 0.  1.
         11   -1    0    0    0    0 -0.00000000000E+00 -0.00000000000E+00 -0.45593999997E+02  0.45594000000E+02  0.51100000000E-03 0. -1.
    9900012    2    1    2    0    0  0.13175547233E+02  0.33491076530E+02 -0.24256461971E+02  0.47787271902E+02  0.20000003911E+02 0.  0.
        -12    1    1    2    0    0 -0.13175547233E+02 -0.33491076530E+02  0.24256461971E+02  0.43400728098E+02  0.00000000000E+00 0.  1.
         11    1    3    3    0    0  0.15375782947E+02  0.26509693976E+02 -0.16180016984E+02  0.34655036082E+02  0.51100000000E-03 0. -1.
        -11    1    3    3    0    0 -0.25705569456E+01  0.27175560176E+01  0.27208630927E+00  0.37505872793E+01  0.51100000000E-03 0.  1.
         12    1    3    3    0    0  0.37032123138E+00  0.42638265364E+01 -0.83485312959E+01  0.93816485409E+01  0.00000000000E+00 0. -1.
</event>
<event>
 7    1  0.2740409E-010  0.4778726E+02  0.7816164E-02  0.1312668E+00
        -11   -1    0    0    0    0  0.00000000000E+00  0.00000000000E+00  0.45593999997E+02  0.45594000000E+02  0.51100000000E-03 0.  1.
         11   -1    0    0    0    0 -0.00000000000E+00 -0.00000000000E+00 -0.45593999997E+02  0.45594000000E+02  0.51100000000E-03 0. -1.
    9900012    2    1    2    0    0  0.74835861211E+01 -0.19584560008E+02 -0.38000862099E+02  0.47787256087E+02  0.19999931804E+02 0.  0.
        -12    1    1    2    0    0 -0.74835861211E+01  0.19584560008E+02  0.38000862099E+02  0.43400743913E+02  0.00000000000E+00 0.  1.
         11    1    3    3    0    0 -0.24961755924E+01 -0.68711111666E+01 -0.25242509822E+02  0.26279790022E+02  0.51100000000E-03 0. -1.
        -11    1    3    3    0    0  0.49224482588E+01 -0.75579087544E+01 -0.32935773216E+01  0.96020900555E+01  0.51100000000E-03 0.  1.
         12    1    3    3    0    0  0.50573134548E+01 -0.51555400870E+01 -0.94647749556E+01  0.11905376010E+02  0.00000000000E+00 0. -1.
</event>
<event>
 7    1  0.2740409E-010  0.4778727E+02  0.7816164E-02  0.1312668E+00
        -11   -1    0    0    0    0  0.00000000000E+00  0.00000000000E+00  0.45593999997E+02  0.45594000000E+02  0.51100000000E-03 0.  1.
         11   -1    0    0    0    0 -0.00000000000E+00 -0.00000000000E+00 -0.45593999997E+02  0.45594000000E+02  0.51100000000E-03 0. -1.
    9900012    2    1    2    0    0 -0.18722379534E+02  0.11218244855E+01 -0.39138694582E+02  0.47787269601E+02  0.19999993419E+02 0.  0.
        -12    1    1    2    0    0  0.18722379534E+02 -0.11218244855E+01  0.39138694582E+02  0.43400730399E+02  0.00000000000E+00 0.  1.
         11    1    3    3    0    0 -0.19298016394E+02  0.62659122718E+01 -0.30661462165E+02  0.36766837717E+02  0.51100000000E-03 0. -1.
        -11    1    3    3    0    0  0.16360140616E+01 -0.35741066893E+01 -0.82161299586E+01  0.91079949711E+01  0.51100000000E-03 0.  1.
         12    1    3    3    0    0 -0.10603772007E+01 -0.15699810969E+01 -0.26110245890E+00  0.19124369131E+01  0.00000000000E+00 0. -1.
</event>
<event>
 7    1  0.2740409E-010  0.4778727E+02  0.7816164E-02  0.1312668E+00
        -11   -1    0    0    0    0  0.00000000000E+00  0.00000000000E+00  0.45593999997E+02  0.45594000000E+02  0.51100000000E-03 0. -1.
         11   -1    0    0    0    0 -0.00000000000E+00 -0.00000000000E+00 -0.45593999997E+02  0.45594000000E+02  0.51100000000E-03 0.  1.
    9900012    2    1    2    0    0 -0.66257908251E+01 -0.28776054152E+02  0.31806616627E+02  0.47787271228E+02  0.20000000839E+02 0.  0.
        -12    1    1    2    0    0  0.66257908251E+01  0.28776054152E+02 -0.31806616627E+02  0.43400728772E+02  0.00000000000E+00 0.  1.
         11    1    3    3    0    0  0.48706182128E+01 -0.69324950659E+01  0.10356626167E+02  0.13380661996E+02  0.51100000000E-03 0. -1.
        -11    1    3    3    0    0 -0.10099970614E+02 -0.22885228637E+02  0.20847572217E+02  0.32563236383E+02  0.51100000000E-03 0.  1.
        -12    1    3    3    0    0 -0.13964384237E+01  0.10416695502E+01  0.60241824335E+00  0.18433728497E+01  0.00000000000E+00 0.  1.
</event>
<event>
 7    1  0.2740409E-010  0.4778727E+02  0.7816164E-02  0.1312668E+00
        -11   -1    0    0    0    0  0.00000000000E+00  0.00000000000E+00  0.45593999997E+02  0.45594000000E+02  0.51100000000E-03 0.  1.
         11   -1    0    0    0    0 -0.00000000000E+00 -0.00000000000E+00 -0.45593999997E+02  0.45594000000E+02  0.51100000000E-03 0. -1.
    9900012    2    1    2    0    0  0.11479029773E+02 -0.29794261402E-01 -0.41855164315E+02  0.47787265075E+02  0.19999972781E+02 0.  0.
        -12    1    1    2    0    0 -0.11479029773E+02  0.29794261402E-01  0.41855164315E+02  0.43400734925E+02  0.00000000000E+00 0.  1.
         11    1    3    3    0    0  0.14001853171E+01 -0.59404866160E+01 -0.28548930938E+02  0.29194029494E+02  0.51100000000E-03 0. -1.
        -11    1    3    3    0    0  0.46722457129E+00 -0.69322898092E+00  0.79939860761E-01  0.83979513125E+00  0.51100000000E-03 0.  1.
         12    1    3    3    0    0  0.96116198849E+01  0.66039213356E+01 -0.13386173238E+02  0.17753440449E+02  0.00000000000E+00 0. -1.
</event>
<event>
 7    1  0.2740409E-010  0.4778727E+02  0.7816164E-02  0.1312668E+00
        -11   -1    0    0    0    0  0.00000000000E+00  0.00000000000E+00  0.45593999997E+02  0.45594000000E+02  0.51100000000E-03 0. -1.
         11   -1    0    0    0    0 -0.00000000000E+00 -0.00000000000E+00 -0.45593999997E+02  0.45594000000E+02  0.51100000000E-03 0.  1.
    9900012    2    1    2    0    0  0.82292561486E+01 -0.41523938420E+02  0.95742010389E+01  0.47787269083E+02  0.19999991055E+02 0.  0.
        -12    1    1    2    0    0 -0.82292561486E+01  0.41523938420E+02 -0.95742010389E+01  0.43400730917E+02  0.00000000000E+00 0.  1.
         11    1    3    3    0    0  0.63009226496E+01 -0.21230038682E+02  0.82912211509E+01  0.23646575167E+02  0.51100000000E-03 0. -1.
        -11    1    3    3    0    0 -0.29104734213E+01 -0.20225848823E+01 -0.31330207932E+01  0.47304888430E+01  0.51100000000E-03 0.  1.
        -12    1    3    3    0    0  0.48388069203E+01 -0.18271314855E+02  0.44160006812E+01  0.19410205073E+02  0.00000000000E+00 0.  1.
</event>
<event>
 7    1  0.2740409E-010  0.4778724E+02  0.7816164E-02  0.1312668E+00
        -11   -1    0    0    0    0  0.00000000000E+00  0.00000000000E+00  0.45593999997E+02  0.45594000000E+02  0.51100000000E-03 0.  1.
         11   -1    0    0    0    0 -0.00000000000E+00 -0.00000000000E+00 -0.45593999997E+02  0.45594000000E+02  0.51100000000E-03 0. -1.
    9900012    2    1    2    0    0  0.41047694080E+02 -0.13432790723E+02  0.42746537190E+01  0.47787242860E+02  0.19999871496E+02 0.  0.
        -12    1    1    2    0    0 -0.41047694080E+02  0.13432790723E+02 -0.42746537190E+01  0.43400757140E+02  0.00000000000E+00 0.  1.
         11    1    3    3    0    0  0.67222482556E+01 -0.90636594129E+01 -0.18614496807E+01  0.11436937472E+02  0.51100000000E-03 0.  1.
        -11    1    3    3    0    0  0.29102964347E+02 -0.66791608216E+01  0.67310435070E+01  0.30608833202E+02  0.51100000000E-03 0. -1.
        -12    1    3    3    0    0  0.52224814777E+01  0.23100295117E+01 -0.59494010725E+00  0.57414721859E+01  0.00000000000E+00 0.  1.
</event>
<event>
 7    1  0.2740409E-010  0.4778722E+02  0.7816164E-02  0.1312668E+00
        -11   -1    0    0    0    0  0.00000000000E+00  0.00000000000E+00  0.45593999997E+02  0.45594000000E+02  0.51100000000E-03 0.  1.
         11   -1    0    0    0    0 -0.00000000000E+00 -0.00000000000E+00 -0.45593999997E+02  0.45594000000E+02  0.51100000000E-03 0. -1.
    9900012    2    1    2    0    0  0.35789972817E+02  0.16102536590E+02 -0.18531419227E+02  0.47787224230E+02  0.19999786554E+02 0.  0.
        -12    1    1    2    0    0 -0.35789972817E+02 -0.16102536590E+02  0.18531419227E+02  0.43400775770E+02  0.00000000000E+00 0.  1.
         11    1    3    3    0    0  0.72443268465E+01  0.79291479826E+01 -0.13321891141E+01  0.10822494504E+02  0.51100000000E-03 0. -1.
        -11    1    3    3    0    0  0.12637660297E+02 -0.33505530992E+01 -0.70711533441E+01  0.14863979068E+02  0.51100000000E-03 0.  1.
        -12    1    3    3    0    0  0.15907985673E+02  0.11523941707E+02 -0.10128076769E+02  0.22100750658E+02  0.00000000000E+00 0.  1.
</event>
<event>
 7    1  0.2740409E-010  0.4778727E+02  0.7816164E-02  0.1312668E+00
        -11   -1    0    0    0    0  0.00000000000E+00  0.00000000000E+00  0.45593999997E+02  0.45594000000E+02  0.51100000000E-03 0. -1.
         11   -1    0    0    0    0 -0.00000000000E+00 -0.00000000000E+00 -0.45593999997E+02  0.45594000000E+02  0.51100000000E-03 0.  1.
    9900012    2    1    2    0    0  0.37111366065E+02  0.22081094695E+02  0.43353349521E+01  0.47787270014E+02  0.19999995301E+02 0.  0.
        -12    1    1    2    0    0 -0.37111366065E+02 -0.22081094695E+02 -0.43353349521E+01  0.43400729986E+02  0.00000000000E+00 0.  1.
         11    1    3    3    0    0  0.23356073432E+02  0.59426825866E+01  0.78499393401E-01  0.24100369394E+02  0.51100000000E-03 0. -1.
        -11    1    3    3    0    0 -0.14370188932E+01  0.24734976145E+01  0.71328083779E+00  0.29482170142E+01  0.51100000000E-03 0.  1.
        -12    1    3    3    0    0  0.15192311526E+02  0.13664914494E+02  0.35435547209E+01  0.20738683606E+02  0.00000000000E+00 0.  1.
</event>
<event>
 7    1  0.2740409E-010  0.4778724E+02  0.7816164E-02  0.1312668E+00
        -11   -1    0    0    0    0  0.00000000000E+00  0.00000000000E+00  0.45593999997E+02  0.45594000000E+02  0.51100000000E-03 0.  1.
         11   -1    0    0    0    0 -0.00000000000E+00 -0.00000000000E+00 -0.45593999997E+02  0.45594000000E+02  0.51100000000E-03 0. -1.
    9900012    2    1    2    0    0 -0.36974816283E+02  0.22331168351E+02 -0.42199412321E+01  0.47787239373E+02  0.19999855595E+02 0.  0.
        -12    1    1    2    0    0  0.36974816283E+02 -0.22331168351E+02  0.42199412321E+01  0.43400760627E+02  0.00000000000E+00 0.  1.
         11    1    3    3    0    0 -0.34775832625E+01  0.91496646901E+01  0.84251115560E+00  0.98244478011E+01  0.51100000000E-03 0.  1.
        -11    1    3    3    0    0 -0.31618853483E+02  0.14685957261E+02 -0.60083850676E+01  0.35376968887E+02  0.51100000000E-03 0. -1.
        -12    1    3    3    0    0 -0.18783795374E+01 -0.15044536005E+01  0.94593267991E+00  0.25858226849E+01  0.00000000000E+00 0.  1.
</event>
<event>
 7    1  0.2740409E-010  0.4778727E+02  0.7816164E-02  0.1312668E+00
        -11   -1    0    0    0    0  0.00000000000E+00  0.00000000000E+00  0.45593999997E+02  0.45594000000E+02  0.51100000000E-03 0.  1.
         11   -1    0    0    0    0 -0.00000000000E+00 -0.00000000000E+00 -0.45593999997E+02  0.45594000000E+02  0.51100000000E-03 0. -1.
    9900012    2    1    2    0    0  0.24438505862E+02  0.16472097212E+01 -0.35828330419E+02  0.47787272710E+02  0.20000007595E+02 0.  0.
        -12    1    1    2    0    0 -0.24438505862E+02 -0.16472097212E+01  0.35828330419E+02  0.43400727290E+02  0.00000000000E+00 0.  1.
         11    1    3    3    0    0  0.12344057392E+02  0.10999081006E+01 -0.27374664198E+02  0.30049256080E+02  0.51100000000E-03 0. -1.
        -11    1    3    3    0    0  0.28376266559E+01  0.46843561828E-02  0.22172270921E+01  0.36011447098E+01  0.51100000000E-03 0.  1.
         12    1    3    3    0    0  0.92568218140E+01  0.54261726442E+00 -0.10670893313E+02  0.14136871920E+02  0.00000000000E+00 0. -1.
</event>
<event>
 7    1  0.2740409E-010  0.4778727E+02  0.7816164E-02  0.1312668E+00
        -11   -1    0    0    0    0  0.00000000000E+00  0.00000000000E+00  0.45593999997E+02  0.45594000000E+02  0.51100000000E-03 0.  1.
         11   -1    0    0    0    0 -0.00000000000E+00 -0.00000000000E+00 -0.45593999997E+02  0.45594000000E+02  0.51100000000E-03 0. -1.
    9900012    2    1    2    0    0  0.19580340687E+01 -0.19423532705E+02 -0.38762294541E+02  0.47787274220E+02  0.20000014478E+02 0.  0.
        -12    1    1    2    0    0 -0.19580340687E+01  0.19423532705E+02  0.38762294541E+02  0.43400725780E+02  0.00000000000E+00 0.  1.
         11    1    3    3    0    0 -0.61944117688E+01 -0.99250058051E+01 -0.23438420901E+02  0.26196107573E+02  0.51100000000E-03 0. -1.
        -11    1    3    3    0    0  0.21732706250E+01 -0.71837369275E+01 -0.38206919420E+01  0.84218091067E+01  0.51100000000E-03 0.  1.
         12    1    3    3    0    0  0.59791752125E+01 -0.23147899728E+01 -0.11503181698E+02  0.13169357540E+02  0.00000000000E+00 0. -1.
</event>
<event>
 7    1  0.2740409E-010  0.4778727E+02  0.7816164E-02  0.1312668E+00
        -11   -1    0    0    0    0  0.00000000000E+00  0.00000000000E+00  0.45593999997E+02  0.45594000000E+02  0.51100000000E-03 0.  1.
         11   -1    0    0    0    0 -0.00000000000E+00 -0.00000000000E+00 -0.45593999997E+02  0.45594000000E+02  0.51100000000E-03 0. -1.
    9900012    2    1    2    0    0 -0.25108244230E+02 -0.27210121889E+02 -0.22645275996E+02  0.47787272051E+02  0.20000004589E+02 0.  0.
        -12    1    1    2    0    0  0.25108244230E+02  0.27210121889E+02  0.22645275996E+02  0.43400727949E+02  0.00000000000E+00 0.  1.
         11    1    3    3    0    0 -0.36394612313E+01  0.11662613953E+01 -0.66444911477E+01  0.76651879670E+01  0.51100000000E-03 0. -1.
        -11    1    3    3    0    0 -0.14126051812E+02 -0.21182412327E+02 -0.68656397716E+01  0.26370000787E+02  0.51100000000E-03 0.  1.
        -12    1    3    3    0    0 -0.73427311870E+01 -0.71939709581E+01 -0.91351450771E+01  0.13752083297E+02  0.00000000000E+00 0.  1.
</event>
<event>
 7    1  0.2740409E-010  0.4778727E+02  0.7816164E-02  0.1312668E+00
        -11   -1    0    0    0    0  0.00000000000E+00  0.00000000000E+00  0.45593999997E+02  0.45594000000E+02  0.51100000000E-03 0.  1.
         11   -1    0    0    0    0 -0.00000000000E+00 -0.00000000000E+00 -0.45593999997E+02  0.45594000000E+02  0.51100000000E-03 0. -1.
    9900012    2    1    2    0    0  0.19729248958E+02  0.21603957205E+01 -0.38596794520E+02  0.47787272802E+02  0.20000008012E+02 0.  0.
        -12    1    1    2    0    0 -0.19729248958E+02 -0.21603957205E+01  0.38596794520E+02  0.43400727198E+02  0.00000000000E+00 0.  1.
         11    1    3    3    0    0  0.20971779119E+00  0.96541407551E+00 -0.11207759445E+02  0.11251216731E+02  0.51100000000E-03 0. -1.
        -11    1    3    3    0    0  0.18078669267E+02 -0.40399770781E+01 -0.23139800645E+02  0.29641357448E+02  0.51100000000E-03 0.  1.
        -12    1    3    3    0    0  0.14408619004E+01  0.52349587231E+01 -0.42492344298E+01  0.68946986220E+01  0.00000000000E+00 0.  1.
</event>
<event>
 7    1  0.2740409E-010  0.4778728E+02  0.7816164E-02  0.1312668E+00
        -11   -1    0    0    0    0  0.00000000000E+00  0.00000000000E+00  0.45593999997E+02  0.45594000000E+02  0.51100000000E-03 0. -1.
         11   -1    0    0    0    0 -0.00000000000E+00 -0.00000000000E+00 -0.45593999997E+02  0.45594000000E+02  0.51100000000E-03 0.  1.
    9900012    2    1    2    0    0 -0.93196017165E+01 -0.41541983187E+02  0.84280228489E+01  0.47787275209E+02  0.20000018987E+02 0.  0.
        -12    1    1    2    0    0  0.93196017165E+01  0.41541983187E+02 -0.84280228489E+01  0.43400724791E+02  0.00000000000E+00 0.  1.
         11    1    3    3    0    0 -0.79354462273E+01 -0.96917423557E+01  0.16817336150E+01  0.12638409905E+02  0.51100000000E-03 0. -1.
        -11    1    3    3    0    0  0.39088412441E+00 -0.15729065834E+02  0.99510734793E+01  0.18616663666E+02  0.51100000000E-03 0.  1.
        -12    1    3    3    0    0 -0.17750396136E+01 -0.16121174998E+02 -0.32047842454E+01  0.16532201638E+02  0.00000000000E+00 0.  1.
</event>
<event>
 7    1  0.2740409E-010  0.4778727E+02  0.7816164E-02  0.1312668E+00
        -11   -1    0    0    0    0  0.00000000000E+00  0.00000000000E+00  0.45593999997E+02  0.45594000000E+02  0.51100000000E-03 0.  1.
         11   -1    0    0    0    0 -0.00000000000E+00 -0.00000000000E+00 -0.45593999997E+02  0.45594000000E+02  0.51100000000E-03 0. -1.
    9900012    2    1    2    0    0 -0.11609174576E+02  0.35440085060E+02  0.22200245363E+02  0.47787268929E+02  0.19999990353E+02 0.  0.
        -12    1    1    2    0    0  0.11609174576E+02 -0.35440085060E+02 -0.22200245363E+02  0.43400731071E+02  0.00000000000E+00 0.  1.
         11    1    3    3    0    0 -0.49839935460E+01  0.10987519065E+02  0.15958807091E+02  0.20006231301E+02  0.51100000000E-03 0. -1.
        -11    1    3    3    0    0 -0.88267148161E+01  0.17237241940E+02  0.31131621362E+01  0.19614412632E+02  0.51100000000E-03 0.  1.
        -12    1    3    3    0    0  0.22015337864E+01  0.72153240553E+01  0.31282761356E+01  0.81666249954E+01  0.00000000000E+00 0.  1.
</event>
<event>
 7    1  0.2740409E-010  0.4778728E+02  0.7816164E-02  0.1312668E+00
        -11   -1    0    0    0    0  0.00000000000E+00  0.00000000000E+00  0.45593999997E+02  0.45594000000E+02  0.51100000000E-03 0.  1.
         11   -1    0    0    0    0 -0.00000000000E+00 -0.00000000000E+00 -0.45593999997E+02  0.45594000000E+02  0.51100000000E-03 0. -1.
    9900012    2    1    2    0    0 -0.37485910909E+01  0.40128542864E+02 -0.16101870053E+02  0.47787284490E+02  0.20000061303E+02 0.  0.
        -12    1    1    2    0    0  0.37485910909E+01 -0.40128542864E+02  0.16101870053E+02  0.43400715510E+02  0.00000000000E+00 0.  1.
         11    1    3    3    0    0  0.19505313639E+00  0.16387425920E+02 -0.11920390661E+02  0.20265277886E+02  0.51100000000E-03 0. -1.
        -11    1    3    3    0    0 -0.75990738079E+01  0.79657058192E+01 -0.16554990465E+01  0.11132792520E+02  0.51100000000E-03 0.  1.
        -12    1    3    3    0    0  0.36554295807E+01  0.15775411125E+02 -0.25259803455E+01  0.16389214084E+02  0.00000000000E+00 0.  1.
</event>
<event>
 7    1  0.2740409E-010  0.4778728E+02  0.7816164E-02  0.1312668E+00
        -11   -1    0    0    0    0  0.00000000000E+00  0.00000000000E+00  0.45593999997E+02  0.45594000000E+02  0.51100000000E-03 0.  1.
         11   -1    0    0    0    0 -0.00000000000E+00 -0.00000000000E+00 -0.45593999997E+02  0.45594000000E+02  0.51100000000E-03 0. -1.
    9900012    2    1    2    0    0  0.26037967552E+01  0.36750029033E+02 -0.22940755117E+02  0.47787278384E+02  0.20000033463E+02 0.  0.
        -12    1    1    2    0    0 -0.26037967552E+01 -0.36750029033E+02  0.22940755117E+02  0.43400721616E+02  0.00000000000E+00 0.  1.
         11    1    3    3    0    0 -0.49986372900E+01  0.23392380489E+02 -0.60231217754E+01  0.24667140813E+02  0.51100000000E-03 0. -1.
        -11    1    3    3    0    0  0.45746519265E+01  0.11002140084E+02 -0.12493625660E+02  0.17264565128E+02  0.51100000000E-03 0.  1.
        -12    1    3    3    0    0  0.30277821188E+01  0.23555084600E+01 -0.44240076812E+01  0.58555724423E+01  0.00000000000E+00 0.  1.
</event>
<event>
 7    1  0.2740409E-010  0.4778727E+02  0.7816164E-02  0.1312668E+00
        -11   -1    0    0    0    0  0.00000000000E+00  0.00000000000E+00  0.45593999997E+02  0.45594000000E+02  0.51100000000E-03 0.  1.
         11   -1    0    0    0    0 -0.00000000000E+00 -0.00000000000E+00 -0.45593999997E+02  0.45594000000E+02  0.51100000000E-03 0. -1.
    9900012    2    1    2    0    0  0.19130155532E+02  0.89036027785E+01 -0.37926062685E+02  0.47787271620E+02  0.20000002624E+02 0.  0.
        -12    1    1    2    0    0 -0.19130155532E+02 -0.89036027785E+01  0.37926062685E+02  0.43400728380E+02  0.00000000000E+00 0.  1.
         11    1    3    3    0    0  0.95923762267E+01  0.69836549910E+01 -0.14418962833E+02  0.18673285949E+02  0.51100000000E-03 0. -1.
        -11    1    3    3    0    0  0.28403687565E+01 -0.49905335877E+01 -0.15715722106E+02  0.16731916858E+02  0.51100000000E-03 0.  1.
        -12    1    3    3    0    0  0.66974105490E+01  0.69104813753E+01 -0.77913777462E+01  0.12382068813E+02  0.00000000000E+00 0.  1.
</event>
<event>
 7    1  0.2740409E-010  0.4778725E+02  0.7816164E-02  0.1312668E+00
        -11   -1    0    0    0    0  0.00000000000E+00  0.00000000000E+00  0.45593999997E+02  0.45594000000E+02  0.51100000000E-03 0. -1.
         11   -1    0    0    0    0 -0.00000000000E+00 -0.00000000000E+00 -0.45593999997E+02  0.45594000000E+02  0.51100000000E-03 0.  1.
    9900012    2    1    2    0    0  0.25466162800E+02 -0.33104995993E+02 -0.11796544975E+02  0.47787254836E+02  0.19999926100E+02 0.  0.
        -12    1    1    2    0    0 -0.25466162800E+02  0.33104995993E+02  0.11796544975E+02  0.43400745164E+02  0.00000000000E+00 0.  1.
         11    1    3    3    0    0  0.63119765896E+01 -0.15993276581E+02 -0.10175515236E+02  0.19979165520E+02  0.51100000000E-03 0. -1.
        -11    1    3    3    0    0 -0.11054490679E+01 -0.36038050959E+00 -0.96643759979E+00  0.15119172097E+01  0.51100000000E-03 0.  1.
         12    1    3    3    0    0  0.20259635278E+02 -0.16751338902E+02 -0.65459213849E+00  0.26296172107E+02  0.00000000000E+00 0. -1.
</event>
<event>
 7    1  0.2740409E-010  0.4778727E+02  0.7816164E-02  0.1312668E+00
        -11   -1    0    0    0    0  0.00000000000E+00  0.00000000000E+00  0.45593999997E+02  0.45594000000E+02  0.51100000000E-03 0. -1.
         11   -1    0    0    0    0 -0.00000000000E+00 -0.00000000000E+00 -0.45593999997E+02  0.45594000000E+02  0.51100000000E-03 0.  1.
    9900012    2    1    2    0    0  0.27817261380E+02 -0.15585145147E+02  0.29443612390E+02  0.47787273157E+02  0.20000009632E+02 0.  0.
        -12    1    1    2    0    0 -0.27817261380E+02  0.15585145147E+02 -0.29443612390E+02  0.43400726843E+02  0.00000000000E+00 0.  1.
         11    1    3    3    0    0  0.16225345360E+02 -0.13802892465E+01  0.73842890797E+01  0.17880009954E+02  0.51100000000E-03 0. -1.
        -11    1    3    3    0    0  0.30286811937E+01 -0.91470779602E+01  0.72066428679E+01  0.12032358317E+02  0.51100000000E-03 0.  1.
         12    1    3    3    0    0  0.85632348258E+01 -0.50577779405E+01  0.14852680442E+02  0.17874904886E+02  0.00000000000E+00 0. -1.
</event>
<event>
 7    1  0.2740409E-010  0.4778728E+02  0.7816164E-02  0.1312668E+00
        -11   -1    0    0    0    0  0.00000000000E+00  0.00000000000E+00  0.45593999997E+02  0.45594000000E+02  0.51100000000E-03 0.  1.
         11   -1    0    0    0    0 -0.00000000000E+00 -0.00000000000E+00 -0.45593999997E+02  0.45594000000E+02  0.51100000000E-03 0. -1.
    9900012    2    1    2    0    0 -0.51337341839E+01 -0.41100836818E+02 -0.12961044401E+02  0.47787277820E+02  0.20000030891E+02 0.  0.
        -12    1    1    2    0    0  0.51337341839E+01  0.41100836818E+02  0.12961044401E+02  0.43400722180E+02  0.00000000000E+00 0.  1.
         11    1    3    3    0    0 -0.11641726828E+02 -0.16995855893E+02 -0.86588115761E+01  0.22346452498E+02  0.51100000000E-03 0. -1.
        -11    1    3    3    0    0  0.38106502955E+01 -0.13439483230E+02 -0.35530326369E+01  0.14414048922E+02  0.51100000000E-03 0.  1.
         12    1    3    3    0    0  0.26973423487E+01 -0.10665497695E+02 -0.74920018807E+00  0.11026776399E+02  0.00000000000E+00 0. -1.
</event>
<event>
 7    1  0.2740409E-010  0.4778727E+02  0.7816164E-02  0.1312668E+00
        -11   -1    0    0    0    0  0.00000000000E+00  0.00000000000E+00  0.45593999997E+02  0.45594000000E+02  0.51100000000E-03 0.  1.
         11   -1    0    0    0    0 -0.00000000000E+00 -0.00000000000E+00 -0.45593999997E+02  0.45594000000E+02  0.51100000000E-03 0. -1.
    9900012    2    1    2    0    0 -0.35912489451E+02  0.24348651647E+02 -0.10292931696E+01  0.47787272126E+02  0.20000004930E+02 0.  0.
        -12    1    1    2    0    0  0.35912489451E+02 -0.24348651647E+02  0.10292931696E+01  0.43400727874E+02  0.00000000000E+00 0.  1.
         11    1    3    3    0    0 -0.14511571245E+02  0.38313756827E+01  0.61905029156E+01  0.16235376997E+02  0.51100000000E-03 0. -1.
        -11    1    3    3    0    0 -0.10552058710E+01  0.52897717459E-01  0.10940588938E+01  0.15209282438E+01  0.51100000000E-03 0.  1.
         12    1    3    3    0    0 -0.20345712335E+02  0.20464378247E+02 -0.83138549790E+01  0.30030966885E+02  0.00000000000E+00 0. -1.
</event>
<event>
 7    1  0.2740409E-010  0.4778727E+02  0.7816164E-02  0.1312668E+00
        -11   -1    0    0    0    0  0.00000000000E+00  0.00000000000E+00  0.45593999997E+02  0.45594000000E+02  0.51100000000E-03 0.  1.
         11   -1    0    0    0    0 -0.00000000000E+00 -0.00000000000E+00 -0.45593999997E+02  0.45594000000E+02  0.51100000000E-03 0. -1.
    9900012    2    1    2    0    0 -0.75610986656E+00  0.71081897587E+01 -0.42808002982E+02  0.47787272091E+02  0.20000004769E+02 0.  0.
        -12    1    1    2    0    0  0.75610986656E+00 -0.71081897587E+01  0.42808002982E+02  0.43400727909E+02  0.00000000000E+00 0.  1.
         11    1    3    3    0    0 -0.81276134114E+00  0.22851036795E+00 -0.63978652421E+01  0.64533307604E+01  0.51100000000E-03 0. -1.
        -11    1    3    3    0    0 -0.88773271414E+01  0.32280201597E+01 -0.13526779193E+02  0.16498509233E+02  0.51100000000E-03 0.  1.
        -12    1    3    3    0    0  0.89339786160E+01  0.36516592311E+01 -0.22883358547E+02  0.24835432097E+02  0.00000000000E+00 0.  1.
</event>
<event>
 7    1  0.2740409E-010  0.4778727E+02  0.7816164E-02  0.1312668E+00
        -11   -1    0    0    0    0  0.00000000000E+00  0.00000000000E+00  0.45593999997E+02  0.45594000000E+02  0.51100000000E-03 0. -1.
         11   -1    0    0    0    0 -0.00000000000E+00 -0.00000000000E+00 -0.45593999997E+02  0.45594000000E+02  0.51100000000E-03 0.  1.
    9900012    2    1    2    0    0  0.39470069206E+01  0.70849171297E+01  0.42636232794E+02  0.47787271190E+02  0.20000000663E+02 0.  0.
        -12    1    1    2    0    0 -0.39470069206E+01 -0.70849171297E+01 -0.42636232794E+02  0.43400728810E+02  0.00000000000E+00 0.  1.
         11    1    3    3    0    0  0.45598241578E+00  0.11706210852E+02  0.16806631244E+02  0.20486730987E+02  0.51100000000E-03 0. -1.
        -11    1    3    3    0    0 -0.11891283789E+01  0.51815194316E+00  0.89838746783E+01  0.90770321269E+01  0.51100000000E-03 0.  1.
         12    1    3    3    0    0  0.46801528837E+01 -0.51394456656E+01  0.16845726872E+02  0.18223508076E+02  0.00000000000E+00 0. -1.
</event>
<event>
 7    1  0.2740409E-010  0.4778727E+02  0.7816164E-02  0.1312668E+00
        -11   -1    0    0    0    0  0.00000000000E+00  0.00000000000E+00  0.45593999997E+02  0.45594000000E+02  0.51100000000E-03 0.  1.
         11   -1    0    0    0    0 -0.00000000000E+00 -0.00000000000E+00 -0.45593999997E+02  0.45594000000E+02  0.51100000000E-03 0. -1.
    9900012    2    1    2    0    0  0.43091307510E+02 -0.38228742871E+01  0.34853976865E+01  0.47787272498E+02  0.20000006626E+02 0.  0.
        -12    1    1    2    0    0 -0.43091307510E+02  0.38228742871E+01 -0.34853976865E+01  0.43400727502E+02  0.00000000000E+00 0.  1.
         11    1    3    3    0    0  0.13211504542E+02 -0.22412595579E+00  0.23868742901E+01  0.13427257868E+02  0.51100000000E-03 0. -1.
        -11    1    3    3    0    0  0.28894919279E+02  0.14439225891E+01  0.24872519273E+01  0.29037694382E+02  0.51100000000E-03 0.  1.
        -12    1    3    3    0    0  0.98488368800E+00 -0.50426709204E+01 -0.13887285309E+01  0.53223202480E+01  0.00000000000E+00 0.  1.
</event>
<event>
 7    1  0.2740409E-010  0.4778727E+02  0.7816164E-02  0.1312668E+00
        -11   -1    0    0    0    0  0.00000000000E+00  0.00000000000E+00  0.45593999997E+02  0.45594000000E+02  0.51100000000E-03 0.  1.
         11   -1    0    0    0    0 -0.00000000000E+00 -0.00000000000E+00 -0.45593999997E+02  0.45594000000E+02  0.51100000000E-03 0. -1.
    9900012    2    1    2    0    0  0.24096680823E+02  0.30168906974E+02 -0.19819449262E+02  0.47787267936E+02  0.19999985826E+02 0.  0.
        -12    1    1    2    0    0 -0.24096680823E+02 -0.30168906974E+02  0.19819449262E+02  0.43400732064E+02  0.00000000000E+00 0.  1.
         11    1    3    3    0    0  0.20083543070E+02  0.21720572273E+02 -0.12445579414E+02  0.32093993352E+02  0.51100000000E-03 0. -1.
        -11    1    3    3    0    0 -0.38963943337E+00 -0.13030359128E+01 -0.43752720862E+01  0.45817821388E+01  0.51100000000E-03 0.  1.
        -12    1    3    3    0    0  0.44027771861E+01  0.97513706145E+01 -0.29985977617E+01  0.11111492445E+02  0.00000000000E+00 0.  1.
</event>
<event>
 7    1  0.2740409E-010  0.4778730E+02  0.7816164E-02  0.1312668E+00
        -11   -1    0    0    0    0  0.00000000000E+00  0.00000000000E+00  0.45593999997E+02  0.45594000000E+02  0.51100000000E-03 0.  1.
         11   -1    0    0    0    0 -0.00000000000E+00 -0.00000000000E+00 -0.45593999997E+02  0.45594000000E+02  0.51100000000E-03 0. -1.
    9900012    2    1    2    0    0  0.34590096748E+02  0.20012883001E+01 -0.26136961431E+02  0.47787300688E+02  0.20000135157E+02 0.  0.
        -12    1    1    2    0    0 -0.34590096748E+02 -0.20012883001E+01  0.26136961431E+02  0.43400699312E+02  0.00000000000E+00 0.  1.
         11    1    3    3    0    0  0.15308590466E+02  0.16550651078E+01 -0.11537703673E+02  0.19240862477E+02  0.51100000000E-03 0. -1.
        -11    1    3    3    0    0 -0.40241651075E+00 -0.41558389379E+01 -0.38106362664E+01  0.56527767816E+01  0.51100000000E-03 0.  1.
        -12    1    3    3    0    0  0.19683922793E+02  0.45020621302E+01 -0.10788621492E+02  0.22893661430E+02  0.00000000000E+00 0.  1.
</event>
<event>
 7    1  0.2740409E-010  0.4778727E+02  0.7816164E-02  0.1312668E+00
        -11   -1    0    0    0    0  0.00000000000E+00  0.00000000000E+00  0.45593999997E+02  0.45594000000E+02  0.51100000000E-03 0.  1.
         11   -1    0    0    0    0 -0.00000000000E+00 -0.00000000000E+00 -0.45593999997E+02  0.45594000000E+02  0.51100000000E-03 0. -1.
    9900012    2    1    2    0    0  0.89661665578E+01 -0.38132524140E+02 -0.18685326273E+02  0.47787274684E+02  0.20000016594E+02 0.  0.
        -12    1    1    2    0    0 -0.89661665578E+01  0.38132524140E+02  0.18685326273E+02  0.43400725316E+02  0.00000000000E+00 0.  1.
         11    1    3    3    0    0  0.87564031837E+01 -0.19916596082E+02 -0.16591282193E+02  0.27360848695E+02  0.51100000000E-03 0. -1.
        -11    1    3    3    0    0  0.13024564977E+01 -0.22876712483E+00 -0.20098936478E+01  0.24059094044E+01  0.51100000000E-03 0.  1.
         12    1    3    3    0    0 -0.10926931236E+01 -0.17987160933E+02 -0.84150432111E-01  0.18020516585E+02  0.00000000000E+00 0. -1.
</event>
<event>
 7    1  0.2740409E-010  0.4778727E+02  0.7816164E-02  0.1312668E+00
        -11   -1    0    0    0    0  0.00000000000E+00  0.00000000000E+00  0.45593999997E+02  0.45594000000E+02  0.51100000000E-03 0.  1.
         11   -1    0    0    0    0 -0.00000000000E+00 -0.00000000000E+00 -0.45593999997E+02  0.45594000000E+02  0.51100000000E-03 0. -1.
    9900012    2    1    2    0    0 -0.76937805056E+01 -0.42631428587E+02  0.26439911795E+01  0.47787266697E+02  0.19999980179E+02 0.  0.
        -12    1    1    2    0    0  0.76937805056E+01  0.42631428587E+02 -0.26439911795E+01  0.43400733303E+02  0.00000000000E+00 0.  1.
         11    1    3    3    0    0 -0.24408296500E+01  0.14177422327E+01 -0.42043890152E+00  0.28538415425E+01  0.51100000000E-03 0. -1.
        -11    1    3    3    0    0  0.64456002003E+00 -0.19182193447E+02 -0.49744388850E-02  0.19193020296E+02  0.51100000000E-03 0.  1.
         12    1    3    3    0    0 -0.58975108755E+01 -0.24866977373E+02  0.30694045199E+01  0.25740404859E+02  0.00000000000E+00 0. -1.
</event>
<event>
 7    1  0.2740409E-010  0.4778727E+02  0.7816164E-02  0.1312668E+00
        -11   -1    0    0    0    0  0.00000000000E+00  0.00000000000E+00  0.45593999997E+02  0.45594000000E+02  0.51100000000E-03 0.  1.
         11   -1    0    0    0    0 -0.00000000000E+00 -0.00000000000E+00 -0.45593999997E+02  0.45594000000E+02  0.51100000000E-03 0. -1.
    9900012    2    1    2    0    0 -0.12057302065E+01 -0.35810369331E+02 -0.24490555096E+02  0.47787266990E+02  0.19999981513E+02 0.  0.
        -12    1    1    2    0    0  0.12057302065E+01  0.35810369331E+02  0.24490555096E+02  0.43400733010E+02  0.00000000000E+00 0.  1.
         11    1    3    3    0    0 -0.40972065094E+01 -0.20701597791E+02 -0.13283742150E+02  0.24935939085E+02  0.51100000000E-03 0. -1.
        -11    1    3    3    0    0  0.52503697285E+01 -0.40669637867E+01 -0.92575057131E+01  0.11393330901E+02  0.51100000000E-03 0.  1.
        -12    1    3    3    0    0 -0.23588934255E+01 -0.11041807753E+02 -0.19493072327E+01  0.11457997004E+02  0.00000000000E+00 0.  1.
</event>
<event>
 7    1  0.2740409E-010  0.4778727E+02  0.7816164E-02  0.1312668E+00
        -11   -1    0    0    0    0  0.00000000000E+00  0.00000000000E+00  0.45593999997E+02  0.45594000000E+02  0.51100000000E-03 0.  1.
         11   -1    0    0    0    0 -0.00000000000E+00 -0.00000000000E+00 -0.45593999997E+02  0.45594000000E+02  0.51100000000E-03 0. -1.
    9900012    2    1    2    0    0 -0.39922192750E+01 -0.27642680869E+02 -0.33219990824E+02  0.47787269468E+02  0.19999992812E+02 0.  0.
        -12    1    1    2    0    0  0.39922192750E+01  0.27642680869E+02  0.33219990824E+02  0.43400730532E+02  0.00000000000E+00 0.  1.
         11    1    3    3    0    0 -0.23046718936E+01 -0.49922519514E+01 -0.17522450108E+02  0.18364921730E+02  0.51100000000E-03 0.  1.
        -11    1    3    3    0    0  0.24193482231E+01 -0.10912946776E+02 -0.28355351480E+01  0.11531951830E+02  0.51100000000E-03 0. -1.
         12    1    3    3    0    0 -0.41068956044E+01 -0.11737482142E+02 -0.12862005568E+02  0.17890395908E+02  0.00000000000E+00 0. -1.
</event>
<event>
 7    1  0.2740409E-010  0.4778727E+02  0.7816164E-02  0.1312668E+00
        -11   -1    0    0    0    0  0.00000000000E+00  0.00000000000E+00  0.45593999997E+02  0.45594000000E+02  0.51100000000E-03 0.  1.
         11   -1    0    0    0    0 -0.00000000000E+00 -0.00000000000E+00 -0.45593999997E+02  0.45594000000E+02  0.51100000000E-03 0. -1.
    9900012    2    1    2    0    0  0.74318832827E+01 -0.35918613992E+02 -0.23200082539E+02  0.47787267862E+02  0.19999985492E+02 0.  0.
        -12    1    1    2    0    0 -0.74318832827E+01  0.35918613992E+02  0.23200082539E+02  0.43400732138E+02  0.00000000000E+00 0.  1.
         11    1    3    3    0    0 -0.11902666776E+01 -0.91402734620E+01 -0.12184209184E+02  0.15277967385E+02  0.51100000000E-03 0. -1.
        -11    1    3    3    0    0  0.25675250027E+01 -0.19705315554E+02 -0.27543556894E+01  0.20061857373E+02  0.51100000000E-03 0.  1.
        -12    1    3    3    0    0  0.60546249576E+01 -0.70730249764E+01 -0.82615176662E+01  0.12447443105E+02  0.00000000000E+00 0.  1.
</event>
<event>
 7    1  0.2740409E-010  0.4778728E+02  0.7816164E-02  0.1312668E+00
        -11   -1    0    0    0    0  0.00000000000E+00  0.00000000000E+00  0.45593999997E+02  0.45594000000E+02  0.51100000000E-03 0.  1.
         11   -1    0    0    0    0 -0.00000000000E+00 -0.00000000000E+00 -0.45593999997E+02  0.45594000000E+02  0.51100000000E-03 0. -1.
    9900012    2    1    2    0    0 -0.66068975344E+01 -0.12654597728E+02 -0.40985762872E+02  0.47787277692E+02  0.20000030308E+02 0.  0.
        -12    1    1    2    0    0  0.66068975344E+01  0.12654597728E+02  0.40985762872E+02  0.43400722308E+02  0.00000000000E+00 0.  1.
         11    1    3    3    0    0 -0.13025370316E+02 -0.10221847120E+02 -0.30042488320E+02  0.34303025160E+02  0.51100000000E-03 0. -1.
        -11    1    3    3    0    0  0.27229044386E+01 -0.30968023328E+01 -0.57049592213E+01  0.70392437980E+01  0.51100000000E-03 0.  1.
         12    1    3    3    0    0  0.36955683432E+01  0.66405172472E+00 -0.52383153305E+01  0.64450087334E+01  0.00000000000E+00 0. -1.
</event>
<event>
 7    1  0.2740409E-010  0.4778726E+02  0.7816164E-02  0.1312668E+00
        -11   -1    0    0    0    0  0.00000000000E+00  0.00000000000E+00  0.45593999997E+02  0.45594000000E+02  0.51100000000E-03 0. -1.
         11   -1    0    0    0    0 -0.00000000000E+00 -0.00000000000E+00 -0.45593999997E+02  0.45594000000E+02  0.51100000000E-03 0.  1.
    9900012    2    1    2    0    0  0.17931709641E+02 -0.23224088021E+01  0.39454835255E+02  0.47787264772E+02  0.19999971402E+02 0.  0.
        -12    1    1    2    0    0 -0.17931709641E+02  0.23224088021E+01 -0.39454835255E+02  0.43400735228E+02  0.00000000000E+00 0.  1.
         11    1    3    3    0    0  0.33921772575E+01 -0.59273036239E+01  0.21876142701E+02  0.22917360549E+02  0.51100000000E-03 0. -1.
        -11    1    3    3    0    0  0.87174049190E+01  0.47974595194E+01  0.54062673735E+01  0.11324155312E+02  0.51100000000E-03 0.  1.
        -12    1    3    3    0    0  0.58221274647E+01 -0.11925646976E+01  0.12172425181E+02  0.13545748911E+02  0.00000000000E+00 0.  1.
</event>
<event>
 7    1  0.2740409E-010  0.4778727E+02  0.7816164E-02  0.1312668E+00
        -11   -1    0    0    0    0  0.00000000000E+00  0.00000000000E+00  0.45593999997E+02  0.45594000000E+02  0.51100000000E-03 0.  1.
         11   -1    0    0    0    0 -0.00000000000E+00 -0.00000000000E+00 -0.45593999997E+02  0.45594000000E+02  0.51100000000E-03 0. -1.
    9900012    2    1    2    0    0 -0.31595792810E+02  0.28238729077E+02 -0.93756677622E+01  0.47787273172E+02  0.20000009702E+02 0.  0.
        -12    1    1    2    0    0  0.31595792810E+02 -0.28238729077E+02  0.93756677622E+01  0.43400726828E+02  0.00000000000E+00 0.  1.
         11    1    3    3    0    0 -0.17020408168E+02  0.11703093486E+02 -0.11094128291E+02  0.23446457604E+02  0.51100000000E-03 0. -1.
        -11    1    3    3    0    0 -0.57620585734E+01  0.95360672562E+01  0.55555506178E+01  0.12449981552E+02  0.51100000000E-03 0.  1.
        -12    1    3    3    0    0 -0.88133260683E+01  0.69995683346E+01 -0.38370900886E+01  0.11890834016E+02  0.00000000000E+00 0.  1.
</event>
<event>
 7    1  0.2740409E-010  0.4778727E+02  0.7816164E-02  0.1312668E+00
        -11   -1    0    0    0    0  0.00000000000E+00  0.00000000000E+00  0.45593999997E+02  0.45594000000E+02  0.51100000000E-03 0.  1.
         11   -1    0    0    0    0 -0.00000000000E+00 -0.00000000000E+00 -0.45593999997E+02  0.45594000000E+02  0.51100000000E-03 0. -1.
    9900012    2    1    2    0    0 -0.28200522394E+02  0.22869340498E+02 -0.23777027976E+02  0.47787271233E+02  0.20000000860E+02 0.  0.
        -12    1    1    2    0    0  0.28200522394E+02 -0.22869340498E+02  0.23777027976E+02  0.43400728767E+02  0.00000000000E+00 0.  1.
         11    1    3    3    0    0 -0.16506760736E+02  0.65113125880E+01 -0.44206441062E+01  0.18286947154E+02  0.51100000000E-03 0. -1.
        -11    1    3    3    0    0 -0.72462969571E+00  0.41887983505E+00  0.10740874990E+01  0.13616948001E+01  0.51100000000E-03 0.  1.
         12    1    3    3    0    0 -0.10969131962E+02  0.15939148075E+02 -0.20430471369E+02  0.28138629279E+02  0.00000000000E+00 0. -1.
</event>
<event>
 7    1  0.2740409E-010  0.4778728E+02  0.7816164E-02  0.1312668E+00
        -11   -1    0    0    0    0  0.00000000000E+00  0.00000000000E+00  0.45593999997E+02  0.45594000000E+02  0.51100000000E-03 0.  1.
         11   -1    0    0    0    0 -0.00000000000E+00 -0.00000000000E+00 -0.45593999997E+02  0.45594000000E+02  0.51100000000E-03 0. -1.
    9900012    2    1    2    0    0  0.13409254737E+02  0.63638942198E+01 -0.40783760601E+02  0.47787281215E+02  0.20000046373E+02 0.  0.
        -12    1    1    2    0    0 -0.13409254737E+02 -0.63638942198E+01  0.40783760601E+02  0.43400718785E+02  0.00000000000E+00 0.  1.
         11    1    3    3    0    0  0.11315238949E+02  0.38938043123E+01 -0.13705059048E+02  0.18194092126E+02  0.51100000000E-03 0. -1.
        -11    1    3    3    0    0  0.15564319039E+01  0.93839933860E-02 -0.27029181747E+02  0.27073958604E+02  0.51100000000E-03 0.  1.
         12    1    3    3    0    0  0.53758388336E+00  0.24607059141E+01 -0.49519806051E-01  0.25192304854E+01  0.00000000000E+00 0. -1.
</event>
<event>
 7    1  0.2740409E-010  0.4778727E+02  0.7816164E-02  0.1312668E+00
        -11   -1    0    0    0    0  0.00000000000E+00  0.00000000000E+00  0.45593999997E+02  0.45594000000E+02  0.51100000000E-03 0.  1.
         11   -1    0    0    0    0 -0.00000000000E+00 -0.00000000000E+00 -0.45593999997E+02  0.45594000000E+02  0.51100000000E-03 0. -1.
    9900012    2    1    2    0    0  0.32810544545E+01 -0.29138726640E+02 -0.31996758654E+02  0.47787271055E+02  0.20000000049E+02 0.  0.
        -12    1    1    2    0    0 -0.32810544545E+01  0.29138726640E+02  0.31996758654E+02  0.43400728945E+02  0.00000000000E+00 0.  1.
         11    1    3    3    0    0 -0.27322162525E+01 -0.28445869022E+02 -0.24035211197E+02  0.37340646053E+02  0.51100000000E-03 0. -1.
        -11    1    3    3    0    0  0.24663090054E+01  0.10063366273E+01 -0.21195334848E+01  0.34040881264E+01  0.51100000000E-03 0.  1.
         12    1    3    3    0    0  0.35469617016E+01 -0.16991942453E+01 -0.58420139728E+01  0.70425368763E+01  0.00000000000E+00 0. -1.
</event>
<event>
 7    1  0.2740409E-010  0.4778727E+02  0.7816164E-02  0.1312668E+00
        -11   -1    0    0    0    0  0.00000000000E+00  0.00000000000E+00  0.45593999997E+02  0.45594000000E+02  0.51100000000E-03 0.  1.
         11   -1    0    0    0    0 -0.00000000000E+00 -0.00000000000E+00 -0.45593999997E+02  0.45594000000E+02  0.51100000000E-03 0. -1.
    9900012    2    1    2    0    0 -0.28506749389E+02  0.10291072050E+02 -0.31065777433E+02  0.47787268990E+02  0.19999990634E+02 0.  0.
        -12    1    1    2    0    0  0.28506749389E+02 -0.10291072050E+02  0.31065777433E+02  0.43400731010E+02  0.00000000000E+00 0.  1.
         11    1    3    3    0    0 -0.15972309177E+02  0.15474129422E+02 -0.16631085235E+02  0.27769701802E+02  0.51100000000E-03 0. -1.
        -11    1    3    3    0    0 -0.85685127807E+01 -0.48485074703E+01 -0.95415667311E+01  0.13710176217E+02  0.51100000000E-03 0.  1.
         12    1    3    3    0    0 -0.39659274317E+01 -0.33454990177E+00 -0.48931254663E+01  0.63073909709E+01  0.00000000000E+00 0. -1.
</event>
<event>
 7    1  0.2740409E-010  0.4778728E+02  0.7816164E-02  0.1312668E+00
        -11   -1    0    0    0    0  0.00000000000E+00  0.00000000000E+00  0.45593999997E+02  0.45594000000E+02  0.51100000000E-03 0.  1.
         11   -1    0    0    0    0 -0.00000000000E+00 -0.00000000000E+00 -0.45593999997E+02  0.45594000000E+02  0.51100000000E-03 0. -1.
    9900012    2    1    2    0    0  0.27141924642E+02  0.17997550047E+01 -0.33818622242E+02  0.47787281093E+02  0.20000045814E+02 0.  0.
        -12    1    1    2    0    0 -0.27141924642E+02 -0.17997550047E+01  0.33818622242E+02  0.43400718907E+02  0.00000000000E+00 0.  1.
         11    1    3    3    0    0  0.12989061314E+02  0.61300982803E+01 -0.21254210941E+02  0.25652198770E+02  0.51100000000E-03 0. -1.
        -11    1    3    3    0    0  0.13902686569E+02 -0.37193865344E+01 -0.60900229628E+01  0.15627120975E+02  0.51100000000E-03 0.  1.
        -12    1    3    3    0    0  0.25017675851E+00 -0.61095674127E+00 -0.64743883380E+01  0.65079613475E+01  0.00000000000E+00 0.  1.
</event>
<event>
 7    1  0.2740409E-010  0.4778728E+02  0.7816164E-02  0.1312668E+00
        -11   -1    0    0    0    0  0.00000000000E+00  0.00000000000E+00  0.45593999997E+02  0.45594000000E+02  0.51100000000E-03 0.  1.
         11   -1    0    0    0    0 -0.00000000000E+00 -0.00000000000E+00 -0.45593999997E+02  0.45594000000E+02  0.51100000000E-03 0. -1.
    9900012    2    1    2    0    0  0.38882527239E+02 -0.18259422568E+02 -0.61939881373E+01  0.47787275051E+02  0.20000018269E+02 0.  0.
        -12    1    1    2    0    0 -0.38882527239E+02  0.18259422568E+02  0.61939881373E+01  0.43400724949E+02  0.00000000000E+00 0.  1.
         11    1    3    3    0    0  0.31136932559E+02 -0.11113363511E+02  0.33698320863E+01  0.33232080679E+02  0.51100000000E-03 0. -1.
        -11    1    3    3    0    0  0.30575381437E+01 -0.26604827324E+01 -0.57310842446E+01  0.70194041592E+01  0.51100000000E-03 0.  1.
         12    1    3    3    0    0  0.46880565364E+01 -0.44855763240E+01 -0.38327359790E+01  0.75357902128E+01  0.00000000000E+00 0. -1.
</event>
<event>
 7    1  0.2740409E-010  0.4778727E+02  0.7816164E-02  0.1312668E+00
        -11   -1    0    0    0    0  0.00000000000E+00  0.00000000000E+00  0.45593999997E+02  0.45594000000E+02  0.51100000000E-03 0. -1.
         11   -1    0    0    0    0 -0.00000000000E+00 -0.00000000000E+00 -0.45593999997E+02  0.45594000000E+02  0.51100000000E-03 0.  1.
    9900012    2    1    2    0    0 -0.25179266130E+02 -0.32959748244E+02  0.12778220257E+02  0.47787270051E+02  0.19999995471E+02 0.  0.
        -12    1    1    2    0    0  0.25179266130E+02  0.32959748244E+02 -0.12778220257E+02  0.43400729949E+02  0.00000000000E+00 0.  1.
         11    1    3    3    0    0 -0.46655556863E+01 -0.15796725042E+02 -0.10230721184E+01  0.16503048468E+02  0.51100000000E-03 0. -1.
        -11    1    3    3    0    0 -0.58151645820E-01  0.82988656806E+00  0.44313035818E+00  0.94258055636E+00  0.51100000000E-03 0.  1.
         12    1    3    3    0    0 -0.20455558798E+02 -0.17992909770E+02  0.13358162017E+02  0.30341641027E+02  0.00000000000E+00 0. -1.
</event>
<event>
 7    1  0.2740409E-010  0.4778727E+02  0.7816164E-02  0.1312668E+00
        -11   -1    0    0    0    0  0.00000000000E+00  0.00000000000E+00  0.45593999997E+02  0.45594000000E+02  0.51100000000E-03 0. -1.
         11   -1    0    0    0    0 -0.00000000000E+00 -0.00000000000E+00 -0.45593999997E+02  0.45594000000E+02  0.51100000000E-03 0.  1.
    9900012    2    1    2    0    0 -0.34648976613E+02 -0.24779634296E+02 -0.83091096705E+01  0.47787272360E+02  0.20000005996E+02 0.  0.
        -12    1    1    2    0    0  0.34648976613E+02  0.24779634296E+02  0.83091096705E+01  0.43400727640E+02  0.00000000000E+00 0.  1.
         11    1    3    3    0    0 -0.13779668281E+02 -0.28140106946E+01  0.31965358816E+01  0.14422751333E+02  0.51100000000E-03 0. -1.
        -11    1    3    3    0    0 -0.18727539140E+02 -0.16989618771E+02 -0.11873455357E+02  0.27934688304E+02  0.51100000000E-03 0.  1.
         12    1    3    3    0    0 -0.21417691925E+01 -0.49760048302E+01  0.36780980517E+00  0.54298327228E+01  0.00000000000E+00 0. -1.
</event>
<event>
 7    1  0.2740409E-010  0.4778728E+02  0.7816164E-02  0.1312668E+00
        -11   -1    0    0    0    0  0.00000000000E+00  0.00000000000E+00  0.45593999997E+02  0.45594000000E+02  0.51100000000E-03 0. -1.
         11   -1    0    0    0    0 -0.00000000000E+00 -0.00000000000E+00 -0.45593999997E+02  0.45594000000E+02  0.51100000000E-03 0.  1.
    9900012    2    1    2    0    0  0.17121088572E+02 -0.12510250778E+02  0.37867991053E+02  0.47787276563E+02  0.20000025162E+02 0.  0.
        -12    1    1    2    0    0 -0.17121088572E+02  0.12510250778E+02 -0.37867991053E+02  0.43400723437E+02  0.00000000000E+00 0.  1.
         11    1    3    3    0    0  0.14938839932E+02 -0.51221590277E+01  0.19262437079E+02  0.24908772232E+02  0.51100000000E-03 0. -1.
        -11    1    3    3    0    0  0.12577444482E+01 -0.15729450491E+01 -0.11119800256E+01  0.23005601628E+01  0.51100000000E-03 0.  1.
         12    1    3    3    0    0  0.92450419172E+00 -0.58151467013E+01  0.19717534000E+02  0.20577944168E+02  0.00000000000E+00 0. -1.
</event>
<event>
 7    1  0.2740409E-010  0.4778727E+02  0.7816164E-02  0.1312668E+00
        -11   -1    0    0    0    0  0.00000000000E+00  0.00000000000E+00  0.45593999997E+02  0.45594000000E+02  0.51100000000E-03 0.  1.
         11   -1    0    0    0    0 -0.00000000000E+00 -0.00000000000E+00 -0.45593999997E+02  0.45594000000E+02  0.51100000000E-03 0. -1.
    9900012    2    1    2    0    0 -0.42133020846E+02  0.34904593823E+01 -0.98106524069E+01  0.47787266678E+02  0.19999980090E+02 0.  0.
        -12    1    1    2    0    0  0.42133020846E+02 -0.34904593823E+01  0.98106524069E+01  0.43400733322E+02  0.00000000000E+00 0.  1.
         11    1    3    3    0    0 -0.36610318232E+02  0.21264780478E+00 -0.59399722855E+01  0.37089673646E+02  0.51100000000E-03 0. -1.
        -11    1    3    3    0    0  0.17839079326E+01 -0.28430254430E+00 -0.35375747284E+00  0.18407335655E+01  0.51100000000E-03 0.  1.
        -12    1    3    3    0    0 -0.73066105461E+01  0.35621141218E+01 -0.35169226485E+01  0.88568594663E+01  0.00000000000E+00 0.  1.
</event>
<event>
 7    1  0.2740409E-010  0.4778727E+02  0.7816164E-02  0.1312668E+00
        -11   -1    0    0    0    0  0.00000000000E+00  0.00000000000E+00  0.45593999997E+02  0.45594000000E+02  0.51100000000E-03 0.  1.
         11   -1    0    0    0    0 -0.00000000000E+00 -0.00000000000E+00 -0.45593999997E+02  0.45594000000E+02  0.51100000000E-03 0. -1.
    9900012    2    1    2    0    0 -0.91241813947E+01 -0.19230154418E+02 -0.37822926340E+02  0.47787270951E+02  0.19999999573E+02 0.  0.
        -12    1    1    2    0    0  0.91241813947E+01  0.19230154418E+02  0.37822926340E+02  0.43400729049E+02  0.00000000000E+00 0.  1.
         11    1    3    3    0    0 -0.96791097844E+01 -0.43213642381E+01 -0.20694490052E+02  0.23251263920E+02  0.51100000000E-03 0. -1.
        -11    1    3    3    0    0  0.11926892749E+01 -0.13187078909E+02 -0.85458341167E+01  0.15759214412E+02  0.51100000000E-03 0.  1.
        -12    1    3    3    0    0 -0.63776088512E+00 -0.17217112706E+01 -0.85826021713E+01  0.87767926190E+01  0.00000000000E+00 0.  1.
</event>
<event>
 7    1  0.2740409E-010  0.4778726E+02  0.7816164E-02  0.1312668E+00
        -11   -1    0    0    0    0  0.00000000000E+00  0.00000000000E+00  0.45593999997E+02  0.45594000000E+02  0.51100000000E-03 0.  1.
         11   -1    0    0    0    0 -0.00000000000E+00 -0.00000000000E+00 -0.45593999997E+02  0.45594000000E+02  0.51100000000E-03 0. -1.
    9900012    2    1    2    0    0 -0.37790778887E+01  0.16882443873E+02 -0.39803588844E+02  0.47787262383E+02  0.19999960511E+02 0.  0.
        -12    1    1    2    0    0  0.37790778887E+01 -0.16882443873E+02  0.39803588844E+02  0.43400737617E+02  0.00000000000E+00 0.  1.
         11    1    3    3    0    0  0.54589592256E+01  0.10452223205E+02 -0.17159429002E+02  0.20820547776E+02  0.51100000000E-03 0. -1.
        -11    1    3    3    0    0  0.16476508141E+01  0.47879375630E+00 -0.91322725104E+00  0.19437028938E+01  0.51100000000E-03 0.  1.
         12    1    3    3    0    0 -0.10885687928E+02  0.59514269120E+01 -0.21730932591E+02  0.25023011714E+02  0.00000000000E+00 0. -1.
</event>
<event>
 7    1  0.2740409E-010  0.4778727E+02  0.7816164E-02  0.1312668E+00
        -11   -1    0    0    0    0  0.00000000000E+00  0.00000000000E+00  0.45593999997E+02  0.45594000000E+02  0.51100000000E-03 0.  1.
         11   -1    0    0    0    0 -0.00000000000E+00 -0.00000000000E+00 -0.45593999997E+02  0.45594000000E+02  0.51100000000E-03 0. -1.
    9900012    2    1    2    0    0  0.11327637595E+02 -0.40126946391E+02 -0.12047242533E+02  0.47787271287E+02  0.20000001107E+02 0.  0.
        -12    1    1    2    0    0 -0.11327637595E+02  0.40126946391E+02  0.12047242533E+02  0.43400728713E+02  0.00000000000E+00 0.  1.
         11    1    3    3    0    0 -0.51357137961E+00 -0.19476739937E+02 -0.91916424966E+01  0.21542828184E+02  0.51100000000E-03 0. -1.
        -11    1    3    3    0    0  0.10299075807E+02 -0.72836256268E+01 -0.88115823109E+00  0.12645102010E+02  0.51100000000E-03 0.  1.
        -12    1    3    3    0    0  0.15421331672E+01 -0.13366580827E+02 -0.19744418053E+01  0.13599341093E+02  0.00000000000E+00 0.  1.
</event>
<event>
 7    1  0.2740409E-010  0.4778727E+02  0.7816164E-02  0.1312668E+00
        -11   -1    0    0    0    0  0.00000000000E+00  0.00000000000E+00  0.45593999997E+02  0.45594000000E+02  0.51100000000E-03 0.  1.
         11   -1    0    0    0    0 -0.00000000000E+00 -0.00000000000E+00 -0.45593999997E+02  0.45594000000E+02  0.51100000000E-03 0. -1.
    9900012    2    1    2    0    0  0.30246832122E+02 -0.31124794620E+02  0.40216822446E-02  0.47787266023E+02  0.19999977107E+02 0.  0.
        -12    1    1    2    0    0 -0.30246832122E+02  0.31124794620E+02 -0.40216822446E-02  0.43400733977E+02  0.00000000000E+00 0.  1.
         11    1    3    3    0    0  0.21580018642E+02 -0.28770507496E+02 -0.64295153688E+01  0.36534613374E+02  0.51100000000E-03 0. -1.
        -11    1    3    3    0    0  0.68027509008E+01 -0.27308075067E+01  0.51079373624E+01  0.89345259425E+01  0.51100000000E-03 0.  1.
         12    1    3    3    0    0  0.18640625789E+01  0.37652038357E+00  0.13255996887E+01  0.23181267074E+01  0.00000000000E+00 0. -1.
</event>
<event>
 7    1  0.2740409E-010  0.4778725E+02  0.7816164E-02  0.1312668E+00
        -11   -1    0    0    0    0  0.00000000000E+00  0.00000000000E+00  0.45593999997E+02  0.45594000000E+02  0.51100000000E-03 0. -1.
         11   -1    0    0    0    0 -0.00000000000E+00 -0.00000000000E+00 -0.45593999997E+02  0.45594000000E+02  0.51100000000E-03 0.  1.
    9900012    2    1    2    0    0 -0.29164309731E+02 -0.16478760466E+02  0.27595628825E+02  0.47787248407E+02  0.19999896787E+02 0.  0.
        -12    1    1    2    0    0  0.29164309731E+02  0.16478760466E+02 -0.27595628825E+02  0.43400751593E+02  0.00000000000E+00 0.  1.
         11    1    3    3    0    0 -0.24849685245E+02 -0.65533801965E+01  0.19200010702E+02  0.32079495944E+02  0.51100000000E-03 0. -1.
        -11    1    3    3    0    0 -0.36832444275E+01 -0.39038064244E+00  0.20030675054E+01  0.42108153903E+01  0.51100000000E-03 0.  1.
         12    1    3    3    0    0 -0.63138005835E+00 -0.95349996274E+01  0.63925506174E+01  0.11496937073E+02  0.00000000000E+00 0. -1.
</event>
<event>
 7    1  0.2740409E-010  0.4778727E+02  0.7816164E-02  0.1312668E+00
        -11   -1    0    0    0    0  0.00000000000E+00  0.00000000000E+00  0.45593999997E+02  0.45594000000E+02  0.51100000000E-03 0.  1.
         11   -1    0    0    0    0 -0.00000000000E+00 -0.00000000000E+00 -0.45593999997E+02  0.45594000000E+02  0.51100000000E-03 0. -1.
    9900012    2    1    2    0    0  0.31937611649E+02  0.19176779252E+02 -0.22267987587E+02  0.47787272224E+02  0.20000005378E+02 0.  0.
        -12    1    1    2    0    0 -0.31937611649E+02 -0.19176779252E+02  0.22267987587E+02  0.43400727776E+02  0.00000000000E+00 0.  1.
         11    1    3    3    0    0  0.12080288281E+02  0.12370175023E+02 -0.57610058316E+01  0.18224812304E+02  0.51100000000E-03 0. -1.
        -11    1    3    3    0    0  0.79877617997E+01  0.22186951582E+01 -0.14467898552E+02  0.16674742443E+02  0.51100000000E-03 0.  1.
         12    1    3    3    0    0  0.11869561567E+02  0.45879090712E+01 -0.20390832036E+01  0.12887717477E+02  0.00000000000E+00 0. -1.
</event>
<event>
 7    1  0.2740409E-010  0.4778727E+02  0.7816164E-02  0.1312668E+00
        -11   -1    0    0    0    0  0.00000000000E+00  0.00000000000E+00  0.45593999997E+02  0.45594000000E+02  0.51100000000E-03 0. -1.
         11   -1    0    0    0    0 -0.00000000000E+00 -0.00000000000E+00 -0.45593999997E+02  0.45594000000E+02  0.51100000000E-03 0.  1.
    9900012    2    1    2    0    0  0.40743839030E+02  0.11144846312E+02 -0.99677069585E+01  0.47787271893E+02  0.20000003868E+02 0.  0.
        -12    1    1    2    0    0 -0.40743839030E+02 -0.11144846312E+02  0.99677069585E+01  0.43400728107E+02  0.00000000000E+00 0.  1.
         11    1    3    3    0    0  0.34901113158E+02  0.16177755503E+02 -0.86885043274E+01  0.39437261321E+02  0.51100000000E-03 0. -1.
        -11    1    3    3    0    0  0.13703381374E+00 -0.15077663530E+01 -0.51789843802E+00  0.16001114632E+01  0.51100000000E-03 0.  1.
         12    1    3    3    0    0  0.57056920582E+01 -0.35251428389E+01 -0.76130419309E+00  0.67498991083E+01  0.00000000000E+00 0. -1.
</event>
<event>
 7    1  0.2740409E-010  0.4778727E+02  0.7816164E-02  0.1312668E+00
        -11   -1    0    0    0    0  0.00000000000E+00  0.00000000000E+00  0.45593999997E+02  0.45594000000E+02  0.51100000000E-03 0.  1.
         11   -1    0    0    0    0 -0.00000000000E+00 -0.00000000000E+00 -0.45593999997E+02  0.45594000000E+02  0.51100000000E-03 0. -1.
    9900012    2    1    2    0    0  0.68938436490E-02  0.88892052815E+00 -0.43391623123E+02  0.47787272075E+02  0.20000004697E+02 0.  0.
        -12    1    1    2    0    0 -0.68938436490E-02 -0.88892052815E+00  0.43391623123E+02  0.43400727925E+02  0.00000000000E+00 0.  1.
         11    1    3    3    0    0  0.60747866961E+01  0.24916944092E+01 -0.10259372317E+02  0.12180570390E+02  0.51100000000E-03 0. -1.
        -11    1    3    3    0    0  0.54018619559E+00  0.32033460990E+01 -0.31279140858E+01  0.45096645269E+01  0.51100000000E-03 0.  1.
         12    1    3    3    0    0 -0.66080790481E+01 -0.48061199800E+01 -0.30004336720E+02  0.31097037158E+02  0.00000000000E+00 0. -1.
</event>
<event>
 7    1  0.2740409E-010  0.4778727E+02  0.7816164E-02  0.1312668E+00
        -11   -1    0    0    0    0  0.00000000000E+00  0.00000000000E+00  0.45593999997E+02  0.45594000000E+02  0.51100000000E-03 0.  1.
         11   -1    0    0    0    0 -0.00000000000E+00 -0.00000000000E+00 -0.45593999997E+02  0.45594000000E+02  0.51100000000E-03 0. -1.
    9900012    2    1    2    0    0  0.36153778790E+01 -0.30449530311E+02 -0.30714474159E+02  0.47787265257E+02  0.19999973614E+02 0.  0.
        -12    1    1    2    0    0 -0.36153778790E+01  0.30449530311E+02  0.30714474159E+02  0.43400734743E+02  0.00000000000E+00 0.  1.
         11    1    3    3    0    0  0.21660826138E+01 -0.19456472961E+02 -0.27487537124E+02  0.33746273147E+02  0.51100000000E-03 0. -1.
        -11    1    3    3    0    0  0.20495801360E+01 -0.10220446997E+01  0.17484805240E+01  0.28814125887E+01  0.51100000000E-03 0.  1.
        -12    1    3    3    0    0 -0.60028487079E+00 -0.99710126503E+01 -0.49754175595E+01  0.11159579521E+02  0.00000000000E+00 0.  1.
</event>
<event>
 7    1  0.2740409E-010  0.4778727E+02  0.7816164E-02  0.1312668E+00
        -11   -1    0    0    0    0  0.00000000000E+00  0.00000000000E+00  0.45593999997E+02  0.45594000000E+02  0.51100000000E-03 0.  1.
         11   -1    0    0    0    0 -0.00000000000E+00 -0.00000000000E+00 -0.45593999997E+02  0.45594000000E+02  0.51100000000E-03 0. -1.
    9900012    2    1    2    0    0 -0.36981576959E+02 -0.22583828530E+02  0.24407341968E+01  0.47787268106E+02  0.19999986604E+02 0.  0.
        -12    1    1    2    0    0  0.36981576959E+02  0.22583828530E+02 -0.24407341968E+01  0.43400731894E+02  0.00000000000E+00 0.  1.
         11    1    3    3    0    0 -0.13148147560E+02  0.77816077606E+00  0.54404011974E+00  0.13182385914E+02  0.51100000000E-03 0. -1.
        -11    1    3    3    0    0 -0.52740463078E+01 -0.10541615205E+02  0.24585886123E+01  0.12041008006E+02  0.51100000000E-03 0.  1.
         12    1    3    3    0    0 -0.18559383091E+02 -0.12820374102E+02 -0.56189453523E+00  0.22563874186E+02  0.00000000000E+00 0. -1.
</event>
<event>
 7    1  0.2740409E-010  0.4778727E+02  0.7816164E-02  0.1312668E+00
        -11   -1    0    0    0    0  0.00000000000E+00  0.00000000000E+00  0.45593999997E+02  0.45594000000E+02  0.51100000000E-03 0. -1.
         11   -1    0    0    0    0 -0.00000000000E+00 -0.00000000000E+00 -0.45593999997E+02  0.45594000000E+02  0.51100000000E-03 0.  1.
    9900012    2    1    2    0    0 -0.32498060052E+02  0.27540807887E+02  0.83068484349E+01  0.47787265707E+02  0.19999975666E+02 0.  0.
        -12    1    1    2    0    0  0.32498060052E+02 -0.27540807887E+02 -0.83068484349E+01  0.43400734293E+02  0.00000000000E+00 0.  1.
         11    1    3    3    0    0 -0.29475091641E+01  0.44069817525E+01  0.69289267831E+01  0.87246389648E+01  0.51100000000E-03 0. -1.
        -11    1    3    3    0    0 -0.20852539505E+02  0.10475089410E+02 -0.17025647933E+01  0.23397748376E+02  0.51100000000E-03 0.  1.
        -12    1    3    3    0    0 -0.86980113826E+01  0.12658736725E+02  0.30804864451E+01  0.15664878366E+02  0.00000000000E+00 0.  1.
</event>
<event>
 7    1  0.2740409E-010  0.4778727E+02  0.7816164E-02  0.1312668E+00
        -11   -1    0    0    0    0  0.00000000000E+00  0.00000000000E+00  0.45593999997E+02  0.45594000000E+02  0.51100000000E-03 0.  1.
         11   -1    0    0    0    0 -0.00000000000E+00 -0.00000000000E+00 -0.45593999997E+02  0.45594000000E+02  0.51100000000E-03 0. -1.
    9900012    2    1    2    0    0 -0.11101043243E+02  0.25789420235E+02 -0.33095259072E+02  0.47787268092E+02  0.19999986537E+02 0.  0.
        -12    1    1    2    0    0  0.11101043243E+02 -0.25789420235E+02  0.33095259072E+02  0.43400731908E+02  0.00000000000E+00 0.  1.
         11    1    3    3    0    0 -0.80802545767E+01  0.22400809956E+02 -0.28310211854E+02  0.36993984595E+02  0.51100000000E-03 0. -1.
        -11    1    3    3    0    0 -0.13048278942E+01 -0.10365560972E+01  0.19429223662E+01  0.25596820034E+01  0.51100000000E-03 0.  1.
        -12    1    3    3    0    0 -0.17159607721E+01  0.44251663766E+01 -0.67279695839E+01  0.82336014935E+01  0.00000000000E+00 0.  1.
</event>
<event>
 7    1  0.2740409E-010  0.4778727E+02  0.7816164E-02  0.1312668E+00
        -11   -1    0    0    0    0  0.00000000000E+00  0.00000000000E+00  0.45593999997E+02  0.45594000000E+02  0.51100000000E-03 0.  1.
         11   -1    0    0    0    0 -0.00000000000E+00 -0.00000000000E+00 -0.45593999997E+02  0.45594000000E+02  0.51100000000E-03 0. -1.
    9900012    2    1    2    0    0  0.93441950435E+01 -0.34090595869E+02 -0.25182145828E+02  0.47787272169E+02  0.20000005128E+02 0.  0.
        -12    1    1    2    0    0 -0.93441950435E+01  0.34090595869E+02  0.25182145828E+02  0.43400727831E+02  0.00000000000E+00 0.  1.
         11    1    3    3    0    0  0.10899024038E+02 -0.24559758211E+02 -0.17265605494E+02  0.31938559481E+02  0.51100000000E-03 0. -1.
        -11    1    3    3    0    0 -0.56601324925E+01 -0.54761774546E+01 -0.54273978107E+01  0.95646362504E+01  0.51100000000E-03 0.  1.
        -12    1    3    3    0    0  0.41053034979E+01 -0.40546602040E+01 -0.24891425231E+01  0.62840764381E+01  0.00000000000E+00 0.  1.
</event>
<event>
 7    1  0.2740409E-010  0.4778722E+02  0.7816164E-02  0.1312668E+00
        -11   -1    0    0    0    0  0.00000000000E+00  0.00000000000E+00  0.45593999997E+02  0.45594000000E+02  0.51100000000E-03 0.  1.
         11   -1    0    0    0    0 -0.00000000000E+00 -0.00000000000E+00 -0.45593999997E+02  0.45594000000E+02  0.51100000000E-03 0. -1.
    9900012    2    1    2    0    0  0.32764535309E+02 -0.13519390779E+02 -0.25046734760E+02  0.47787220938E+02  0.19999771543E+02 0.  0.
        -12    1    1    2    0    0 -0.32764535309E+02  0.13519390779E+02  0.25046734760E+02  0.43400779062E+02  0.00000000000E+00 0.  1.
         11    1    3    3    0    0  0.22906523732E+02 -0.79709232307E+01 -0.94627704324E+01  0.26034370957E+02  0.51100000000E-03 0. -1.
        -11    1    3    3    0    0  0.80392856644E+01 -0.80291877882E+01 -0.14646979379E+02  0.18537313066E+02  0.51100000000E-03 0.  1.
        -12    1    3    3    0    0  0.18187259125E+01  0.24807202397E+01 -0.93698494932E+00  0.32155369144E+01  0.00000000000E+00 0.  1.
</event>
<event>
 7    1  0.2740409E-010  0.4778727E+02  0.7816164E-02  0.1312668E+00
        -11   -1    0    0    0    0  0.00000000000E+00  0.00000000000E+00  0.45593999997E+02  0.45594000000E+02  0.51100000000E-03 0. -1.
         11   -1    0    0    0    0 -0.00000000000E+00 -0.00000000000E+00 -0.45593999997E+02  0.45594000000E+02  0.51100000000E-03 0.  1.
    9900012    2    1    2    0    0 -0.84222878455E+01  0.41617040986E+02 -0.89838828190E+01  0.47787272085E+02  0.20000004746E+02 0.  0.
        -12    1    1    2    0    0  0.84222878455E+01 -0.41617040986E+02  0.89838828190E+01  0.43400727915E+02  0.00000000000E+00 0.  1.
         11    1    3    3    0    0 -0.13077787482E+01  0.26481159196E+02 -0.28555179050E+01  0.26666759466E+02  0.51100000000E-03 0. -1.
        -11    1    3    3    0    0 -0.53893812934E+00  0.16853633888E+01 -0.58865820720E+01  0.61467676718E+01  0.51100000000E-03 0.  1.
        -12    1    3    3    0    0 -0.65755709680E+01  0.13450518401E+02 -0.24178284194E+00  0.14973744948E+02  0.00000000000E+00 0.  1.
</event>
<event>
 7    1  0.2740409E-010  0.4778725E+02  0.7816164E-02  0.1312668E+00
        -11   -1    0    0    0    0  0.00000000000E+00  0.00000000000E+00  0.45593999997E+02  0.45594000000E+02  0.51100000000E-03 0.  1.
         11   -1    0    0    0    0 -0.00000000000E+00 -0.00000000000E+00 -0.45593999997E+02  0.45594000000E+02  0.51100000000E-03 0. -1.
    9900012    2    1    2    0    0 -0.38618068502E+02 -0.18261733269E+02 -0.76667306046E+01  0.47787252599E+02  0.19999915898E+02 0.  0.
        -12    1    1    2    0    0  0.38618068502E+02  0.18261733269E+02  0.76667306046E+01  0.43400747401E+02  0.00000000000E+00 0.  1.
         11    1    3    3    0    0 -0.38070625803E+01 -0.97477662947E+01 -0.20813351114E+01  0.10669799873E+02  0.51100000000E-03 0.  1.
        -11    1    3    3    0    0 -0.59762165730E+01 -0.38250252934E+01 -0.32686914784E+01  0.78121909388E+01  0.51100000000E-03 0. -1.
         12    1    3    3    0    0 -0.28834789349E+02 -0.46889416810E+01 -0.23167040149E+01  0.29305261787E+02  0.00000000000E+00 0. -1.
</event>
<event>
 7    1  0.2740409E-010  0.4778728E+02  0.7816164E-02  0.1312668E+00
        -11   -1    0    0    0    0  0.00000000000E+00  0.00000000000E+00  0.45593999997E+02  0.45594000000E+02  0.51100000000E-03 0.  1.
         11   -1    0    0    0    0 -0.00000000000E+00 -0.00000000000E+00 -0.45593999997E+02  0.45594000000E+02  0.51100000000E-03 0. -1.
    9900012    2    1    2    0    0 -0.30341297183E+02  0.29615951816E+02 -0.92695056518E+01  0.47787278212E+02  0.20000032681E+02 0.  0.
        -12    1    1    2    0    0  0.30341297183E+02 -0.29615951816E+02  0.92695056518E+01  0.43400721788E+02  0.00000000000E+00 0.  1.
         11    1    3    3    0    0 -0.26473176988E+02  0.20748801620E+02 -0.10082095765E+02  0.35113964797E+02  0.51100000000E-03 0. -1.
        -11    1    3    3    0    0 -0.59018818376E+01  0.78314582940E+01  0.21343572712E+01  0.10035907007E+02  0.51100000000E-03 0.  1.
         12    1    3    3    0    0  0.20337616435E+01  0.10356919021E+01 -0.13217671580E+01  0.26374064076E+01  0.00000000000E+00 0. -1.
</event>
<event>
 7    1  0.2740409E-010  0.4778727E+02  0.7816164E-02  0.1312668E+00
        -11   -1    0    0    0    0  0.00000000000E+00  0.00000000000E+00  0.45593999997E+02  0.45594000000E+02  0.51100000000E-03 0.  1.
         11   -1    0    0    0    0 -0.00000000000E+00 -0.00000000000E+00 -0.45593999997E+02  0.45594000000E+02  0.51100000000E-03 0. -1.
    9900012    2    1    2    0    0 -0.24098759294E+02 -0.35762414384E+02 -0.48910622834E+01  0.47787274518E+02  0.20000015839E+02 0.  0.
        -12    1    1    2    0    0  0.24098759294E+02  0.35762414384E+02  0.48910622834E+01  0.43400725482E+02  0.00000000000E+00 0.  1.
         11    1    3    3    0    0 -0.15286891181E+02 -0.19508400115E+02  0.42892450459E+01  0.25152819729E+02  0.51100000000E-03 0. -1.
        -11    1    3    3    0    0 -0.14918562623E+01  0.98002768166E+00 -0.17199335125E+01  0.24787619718E+01  0.51100000000E-03 0.  1.
         12    1    3    3    0    0 -0.73200118514E+01 -0.17234041951E+02 -0.74603738168E+01  0.20155692817E+02  0.00000000000E+00 0. -1.
</event>
<event>
 7    1  0.2740409E-010  0.4778727E+02  0.7816164E-02  0.1312668E+00
        -11   -1    0    0    0    0  0.00000000000E+00  0.00000000000E+00  0.45593999997E+02  0.45594000000E+02  0.51100000000E-03 0. -1.
         11   -1    0    0    0    0 -0.00000000000E+00 -0.00000000000E+00 -0.45593999997E+02  0.45594000000E+02  0.51100000000E-03 0.  1.
    9900012    2    1    2    0    0  0.57420036418E+01 -0.36125083701E+02 -0.23358743405E+02  0.47787272222E+02  0.20000005368E+02 0.  0.
        -12    1    1    2    0    0 -0.57420036418E+01  0.36125083701E+02  0.23358743405E+02  0.43400727778E+02  0.00000000000E+00 0.  1.
         11    1    3    3    0    0 -0.12302367449E+01 -0.22954148352E+02 -0.51750493037E+01  0.23562418055E+02  0.51100000000E-03 0. -1.
        -11    1    3    3    0    0  0.25054790874E+01 -0.14894098421E+01 -0.64403047576E+01  0.70691790731E+01  0.51100000000E-03 0.  1.
         12    1    3    3    0    0  0.44667612993E+01 -0.11681525507E+02 -0.11743389343E+02  0.17155675094E+02  0.00000000000E+00 0. -1.
</event>
<event>
 7    1  0.2740409E-010  0.4778727E+02  0.7816164E-02  0.1312668E+00
        -11   -1    0    0    0    0  0.00000000000E+00  0.00000000000E+00  0.45593999997E+02  0.45594000000E+02  0.51100000000E-03 0. -1.
         11   -1    0    0    0    0 -0.00000000000E+00 -0.00000000000E+00 -0.45593999997E+02  0.45594000000E+02  0.51100000000E-03 0.  1.
    9900012    2    1    2    0    0  0.35677726749E+02  0.23734975490E+02  0.68829112335E+01  0.47787265967E+02  0.19999976851E+02 0.  0.
        -12    1    1    2    0    0 -0.35677726749E+02 -0.23734975490E+02 -0.68829112335E+01  0.43400734033E+02  0.00000000000E+00 0.  1.
         11    1    3    3    0    0  0.31719138714E+02  0.23402922187E+02  0.27348172038E+01  0.39513032699E+02  0.51100000000E-03 0. -1.
        -11    1    3    3    0    0 -0.15656604393E+01  0.24243355040E+00  0.13481444495E+01  0.20802789129E+01  0.51100000000E-03 0.  1.
         12    1    3    3    0    0  0.55242484746E+01  0.89619753114E-01  0.27999495802E+01  0.61939543557E+01  0.00000000000E+00 0. -1.
</event>
<event>
 7    1  0.2740409E-010  0.4778727E+02  0.7816164E-02  0.1312668E+00
        -11   -1    0    0    0    0  0.00000000000E+00  0.00000000000E+00  0.45593999997E+02  0.45594000000E+02  0.51100000000E-03 0.  1.
         11   -1    0    0    0    0 -0.00000000000E+00 -0.00000000000E+00 -0.45593999997E+02  0.45594000000E+02  0.51100000000E-03 0. -1.
    9900012    2    1    2    0    0 -0.69222294436E+01  0.65411900040E+01 -0.42342876087E+02  0.47787267489E+02  0.19999983790E+02 0.  0.
        -12    1    1    2    0    0  0.69222294436E+01 -0.65411900040E+01  0.42342876087E+02  0.43400732511E+02  0.00000000000E+00 0.  1.
         11    1    3    3    0    0 -0.94875187374E+01  0.12356609237E+02 -0.32552487287E+02  0.36088270012E+02  0.51100000000E-03 0. -1.
        -11    1    3    3    0    0  0.11463099826E+01 -0.25414880366E+01 -0.50130465929E+01  0.57361855288E+01  0.51100000000E-03 0.  1.
         12    1    3    3    0    0  0.14189793112E+01 -0.32739311966E+01 -0.47773422075E+01  0.59628119485E+01  0.00000000000E+00 0. -1.
</event>
<event>
 7    1  0.2740409E-010  0.4778727E+02  0.7816164E-02  0.1312668E+00
        -11   -1    0    0    0    0  0.00000000000E+00  0.00000000000E+00  0.45593999997E+02  0.45594000000E+02  0.51100000000E-03 0.  1.
         11   -1    0    0    0    0 -0.00000000000E+00 -0.00000000000E+00 -0.45593999997E+02  0.45594000000E+02  0.51100000000E-03 0. -1.
    9900012    2    1    2    0    0 -0.62186908933E+01 -0.14374362203E+02 -0.40476273648E+02  0.47787272660E+02  0.20000007367E+02 0.  0.
        -12    1    1    2    0    0  0.62186908933E+01  0.14374362203E+02  0.40476273648E+02  0.43400727340E+02  0.00000000000E+00 0.  1.
         11    1    3    3    0    0 -0.79849812731E+01 -0.12311727578E+02 -0.36141176346E+02  0.39006706985E+02  0.51100000000E-03 0. -1.
        -11    1    3    3    0    0 -0.17015226033E+01 -0.12174458030E+01  0.10336244416E+01  0.23336094790E+01  0.51100000000E-03 0.  1.
        -12    1    3    3    0    0  0.34678129832E+01 -0.84518882145E+00 -0.53687217437E+01  0.64469561959E+01  0.00000000000E+00 0.  1.
</event>
<event>
 7    1  0.2740409E-010  0.4778728E+02  0.7816164E-02  0.1312668E+00
        -11   -1    0    0    0    0  0.00000000000E+00  0.00000000000E+00  0.45593999997E+02  0.45594000000E+02  0.51100000000E-03 0.  1.
         11   -1    0    0    0    0 -0.00000000000E+00 -0.00000000000E+00 -0.45593999997E+02  0.45594000000E+02  0.51100000000E-03 0. -1.
    9900012    2    1    2    0    0 -0.79800615943E+01 -0.16621199715E+02 -0.39289654647E+02  0.47787278516E+02  0.20000034067E+02 0.  0.
        -12    1    1    2    0    0  0.79800615943E+01  0.16621199715E+02  0.39289654647E+02  0.43400721484E+02  0.00000000000E+00 0.  1.
         11    1    3    3    0    0 -0.81785796604E+01 -0.15652026634E+02 -0.30502451395E+02  0.35245916705E+02  0.51100000000E-03 0. -1.
        -11    1    3    3    0    0 -0.30433366107E+01  0.18641228584E+01 -0.11069177095E+01  0.37365918741E+01  0.51100000000E-03 0.  1.
         12    1    3    3    0    0  0.32418546767E+01 -0.28332959399E+01 -0.76802855430E+01  0.88047699374E+01  0.00000000000E+00 0. -1.
</event>
<event>
 7    1  0.2740409E-010  0.4778733E+02  0.7816164E-02  0.1312667E+00
        -11   -1    0    0    0    0  0.00000000000E+00  0.00000000000E+00  0.45593999997E+02  0.45594000000E+02  0.51100000000E-03 0.  1.
         11   -1    0    0    0    0 -0.00000000000E+00 -0.00000000000E+00 -0.45593999997E+02  0.45594000000E+02  0.51100000000E-03 0. -1.
    9900012    2    1    2    0    0 -0.16237272493E+01  0.23286679426E+02 -0.36588413375E+02  0.47787332699E+02  0.20000281105E+02 0.  0.
        -12    1    1    2    0    0  0.16237272493E+01 -0.23286679426E+02  0.36588413375E+02  0.43400667301E+02  0.00000000000E+00 0.  1.
         11    1    3    3    0    0 -0.56662134151E+01  0.15776119708E+01 -0.16919766307E+02  0.17912937396E+02  0.51100000000E-03 0. -1.
        -11    1    3    3    0    0  0.29071915492E+01  0.16561119442E+02 -0.12385336590E+02  0.20883462418E+02  0.51100000000E-03 0.  1.
         12    1    3    3    0    0  0.11352946165E+01  0.51479480137E+01 -0.72833104778E+01  0.89909328845E+01  0.00000000000E+00 0. -1.
</event>
<event>
 7    1  0.2740409E-010  0.4778727E+02  0.7816164E-02  0.1312668E+00
        -11   -1    0    0    0    0  0.00000000000E+00  0.00000000000E+00  0.45593999997E+02  0.45594000000E+02  0.51100000000E-03 0. -1.
         11   -1    0    0    0    0 -0.00000000000E+00 -0.00000000000E+00 -0.45593999997E+02  0.45594000000E+02  0.51100000000E-03 0.  1.
    9900012    2    1    2    0    0 -0.17031607281E+02  0.27960581268E+02  0.28491288931E+02  0.47787270785E+02  0.19999998818E+02 0.  0.
        -12    1    1    2    0    0  0.17031607281E+02 -0.27960581268E+02 -0.28491288931E+02  0.43400729215E+02  0.00000000000E+00 0.  1.
         11    1    3    3    0    0 -0.57226557481E+01 -0.16333940729E+01  0.30922176938E+01  0.67066068571E+01  0.51100000000E-03 0. -1.
        -11    1    3    3    0    0 -0.11146725426E+02  0.29898945050E+02  0.25297788423E+02  0.40720688872E+02  0.51100000000E-03 0.  1.
         12    1    3    3    0    0 -0.16222610682E+00 -0.30496970855E+00  0.10128281359E+00  0.35997505636E+00  0.00000000000E+00 0. -1.
</event>
<event>
 7    1  0.2740409E-010  0.4778727E+02  0.7816164E-02  0.1312668E+00
        -11   -1    0    0    0    0  0.00000000000E+00  0.00000000000E+00  0.45593999997E+02  0.45594000000E+02  0.51100000000E-03 0.  1.
         11   -1    0    0    0    0 -0.00000000000E+00 -0.00000000000E+00 -0.45593999997E+02  0.45594000000E+02  0.51100000000E-03 0. -1.
    9900012    2    1    2    0    0 -0.25473572662E+02  0.64643904846E+01 -0.34538849563E+02  0.47787269849E+02  0.19999994549E+02 0.  0.
        -12    1    1    2    0    0  0.25473572662E+02 -0.64643904846E+01  0.34538849563E+02  0.43400730151E+02  0.00000000000E+00 0.  1.
         11    1    3    3    0    0 -0.63991097454E+01 -0.67221196617E+01 -0.11245176591E+02  0.14580449070E+02  0.51100000000E-03 0. -1.
        -11    1    3    3    0    0 -0.13848098117E+02  0.69485420079E+01 -0.14406336977E+02  0.21156431714E+02  0.51100000000E-03 0.  1.
         12    1    3    3    0    0 -0.52263647995E+01  0.62379681384E+01 -0.88873359957E+01  0.12050389065E+02  0.00000000000E+00 0. -1.
</event>
<event>
 7    1  0.2740409E-010  0.4778728E+02  0.7816164E-02  0.1312668E+00
        -11   -1    0    0    0    0  0.00000000000E+00  0.00000000000E+00  0.45593999997E+02  0.45594000000E+02  0.51100000000E-03 0.  1.
         11   -1    0    0    0    0 -0.00000000000E+00 -0.00000000000E+00 -0.45593999997E+02  0.45594000000E+02  0.51100000000E-03 0. -1.
    9900012    2    1    2    0    0 -0.44245518141E+01  0.30237352376E+02 -0.30817989359E+02  0.47787278743E+02  0.20000035103E+02 0.  0.
        -12    1    1    2    0    0  0.44245518141E+01 -0.30237352376E+02  0.30817989359E+02  0.43400721257E+02  0.00000000000E+00 0.  1.
         11    1    3    3    0    0  0.35345238412E+01  0.16591340205E+02 -0.18302949996E+02  0.24955228057E+02  0.51100000000E-03 0. -1.
        -11    1    3    3    0    0 -0.49460124143E+01  0.90378470611E+01 -0.13597774035E+01  0.10392050479E+02  0.51100000000E-03 0.  1.
        -12    1    3    3    0    0 -0.30130632409E+01  0.46081651099E+01 -0.11155261960E+02  0.12440000207E+02  0.00000000000E+00 0.  1.
</event>
<event>
 7    1  0.2740409E-010  0.4778728E+02  0.7816164E-02  0.1312668E+00
        -11   -1    0    0    0    0  0.00000000000E+00  0.00000000000E+00  0.45593999997E+02  0.45594000000E+02  0.51100000000E-03 0.  1.
         11   -1    0    0    0    0 -0.00000000000E+00 -0.00000000000E+00 -0.45593999997E+02  0.45594000000E+02  0.51100000000E-03 0. -1.
    9900012    2    1    2    0    0  0.15559941801E+02 -0.31849613972E+00 -0.40514310774E+02  0.47787278737E+02  0.20000035075E+02 0.  0.
        -12    1    1    2    0    0 -0.15559941801E+02  0.31849613972E+00  0.40514310774E+02  0.43400721263E+02  0.00000000000E+00 0.  1.
         11    1    3    3    0    0  0.17059118851E+02 -0.40772563252E+01 -0.35456500318E+02  0.39557565271E+02  0.51100000000E-03 0. -1.
        -11    1    3    3    0    0 -0.52498358318E+00  0.21483495208E+01  0.57973002276E+00  0.22862853248E+01  0.51100000000E-03 0.  1.
         12    1    3    3    0    0 -0.97419346739E+00  0.16104106647E+01 -0.56375404790E+01  0.59434281415E+01  0.00000000000E+00 0. -1.
</event>
<event>
 7    1  0.2740409E-010  0.4778725E+02  0.7816164E-02  0.1312668E+00
        -11   -1    0    0    0    0  0.00000000000E+00  0.00000000000E+00  0.45593999997E+02  0.45594000000E+02  0.51100000000E-03 0.  1.
         11   -1    0    0    0    0 -0.00000000000E+00 -0.00000000000E+00 -0.45593999997E+02  0.45594000000E+02  0.51100000000E-03 0. -1.
    9900012    2    1    2    0    0 -0.20557408298E+02  0.93603390632E+01 -0.37059441135E+02  0.47787249309E+02  0.19999900900E+02 0.  0.
        -12    1    1    2    0    0  0.20557408298E+02 -0.93603390632E+01  0.37059441135E+02  0.43400750691E+02  0.00000000000E+00 0.  1.
         11    1    3    3    0    0 -0.39882514298E+01 -0.22362020576E+00  0.11770393938E+01  0.41643219688E+01  0.51100000000E-03 0.  1.
        -11    1    3    3    0    0 -0.94065347063E+01  0.10087371077E+02 -0.26149155759E+02  0.29563766634E+02  0.51100000000E-03 0. -1.
        -12    1    3    3    0    0 -0.71626221615E+01 -0.50341180779E+00 -0.12087324770E+02  0.14059160707E+02  0.00000000000E+00 0.  1.
</event>
<event>
 7    1  0.2740409E-010  0.4778727E+02  0.7816164E-02  0.1312668E+00
        -11   -1    0    0    0    0  0.00000000000E+00  0.00000000000E+00  0.45593999997E+02  0.45594000000E+02  0.51100000000E-03 0.  1.
         11   -1    0    0    0    0 -0.00000000000E+00 -0.00000000000E+00 -0.45593999997E+02  0.45594000000E+02  0.51100000000E-03 0. -1.
    9900012    2    1    2    0    0  0.15735323214E+02  0.32962989280E+02 -0.23440653195E+02  0.47787270961E+02  0.19999999619E+02 0.  0.
        -12    1    1    2    0    0 -0.15735323214E+02 -0.32962989280E+02  0.23440653195E+02  0.43400729039E+02  0.00000000000E+00 0.  1.
         11    1    3    3    0    0  0.60880615195E+01  0.25947482128E+01 -0.86842621330E-02  0.66179518758E+01  0.51100000000E-03 0. -1.
        -11    1    3    3    0    0  0.18902945380E+01  0.23078242487E+02 -0.15000113508E+02  0.27589525100E+02  0.51100000000E-03 0.  1.
        -12    1    3    3    0    0  0.77569671567E+01  0.72899985802E+01 -0.84318554249E+01  0.13579793985E+02  0.00000000000E+00 0.  1.
</event>
<event>
 7    1  0.2740409E-010  0.4778727E+02  0.7816164E-02  0.1312668E+00
        -11   -1    0    0    0    0  0.00000000000E+00  0.00000000000E+00  0.45593999997E+02  0.45594000000E+02  0.51100000000E-03 0.  1.
         11   -1    0    0    0    0 -0.00000000000E+00 -0.00000000000E+00 -0.45593999997E+02  0.45594000000E+02  0.51100000000E-03 0. -1.
    9900012    2    1    2    0    0  0.23080719943E+01  0.42154148450E+02 -0.10065977835E+02  0.47787270310E+02  0.19999996652E+02 0.  0.
        -12    1    1    2    0    0 -0.23080719943E+01 -0.42154148450E+02  0.10065977835E+02  0.43400729690E+02  0.00000000000E+00 0.  1.
         11    1    3    3    0    0 -0.45505529034E+01  0.26207243664E+02 -0.13456043779E+02  0.29809264779E+02  0.51100000000E-03 0. -1.
        -11    1    3    3    0    0  0.71981521233E+01  0.14773384264E+02  0.31737080129E+01  0.16737344455E+02  0.51100000000E-03 0.  1.
         12    1    3    3    0    0 -0.33952722568E+00  0.11735205215E+01  0.21635793165E+00  0.12406610761E+01  0.00000000000E+00 0. -1.
</event>
<event>
 7    1  0.2740409E-010  0.4778727E+02  0.7816164E-02  0.1312668E+00
        -11   -1    0    0    0    0  0.00000000000E+00  0.00000000000E+00  0.45593999997E+02  0.45594000000E+02  0.51100000000E-03 0.  1.
         11   -1    0    0    0    0 -0.00000000000E+00 -0.00000000000E+00 -0.45593999997E+02  0.45594000000E+02  0.51100000000E-03 0. -1.
    9900012    2    1    2    0    0  0.23552763690E+02  0.12384722780E+01 -0.36432907868E+02  0.47787271127E+02  0.20000000375E+02 0.  0.
        -12    1    1    2    0    0 -0.23552763690E+02 -0.12384722780E+01  0.36432907868E+02  0.43400728873E+02  0.00000000000E+00 0.  1.
         11    1    3    3    0    0  0.43526639530E+01  0.77443577286E+01 -0.12020635486E+02  0.14947121390E+02  0.51100000000E-03 0. -1.
        -11    1    3    3    0    0  0.10950424509E+02 -0.69654068866E+01 -0.10651474368E+02  0.16789359621E+02  0.51100000000E-03 0.  1.
        -12    1    3    3    0    0  0.82496752282E+01  0.45952143606E+00 -0.13760798015E+02  0.16050790115E+02  0.00000000000E+00 0.  1.
</event>
<event>
 7    1  0.2740409E-010  0.4778728E+02  0.7816164E-02  0.1312668E+00
        -11   -1    0    0    0    0  0.00000000000E+00  0.00000000000E+00  0.45593999997E+02  0.45594000000E+02  0.51100000000E-03 0.  1.
         11   -1    0    0    0    0 -0.00000000000E+00 -0.00000000000E+00 -0.45593999997E+02  0.45594000000E+02  0.51100000000E-03 0. -1.
    9900012    2    1    2    0    0  0.26771512227E+02 -0.14036495214E+02 -0.31142987327E+02  0.47787277374E+02  0.20000028861E+02 0.  0.
        -12    1    1    2    0    0 -0.26771512227E+02  0.14036495214E+02  0.31142987327E+02  0.43400722626E+02  0.00000000000E+00 0.  1.
         11    1    3    3    0    0  0.17233159640E+02 -0.81664053090E-01 -0.82265865241E+01  0.19096208689E+02  0.51100000000E-03 0. -1.
        -11    1    3    3    0    0  0.57683249144E+01 -0.11137561200E+02 -0.16139274036E+02  0.20440034454E+02  0.51100000000E-03 0.  1.
         12    1    3    3    0    0  0.37700276726E+01 -0.28172699609E+01 -0.67771267665E+01  0.82510342318E+01  0.00000000000E+00 0. -1.
</event>
<event>
 7    1  0.2740409E-010  0.4778726E+02  0.7816164E-02  0.1312668E+00
        -11   -1    0    0    0    0  0.00000000000E+00  0.00000000000E+00  0.45593999997E+02  0.45594000000E+02  0.51100000000E-03 0. -1.
         11   -1    0    0    0    0 -0.00000000000E+00 -0.00000000000E+00 -0.45593999997E+02  0.45594000000E+02  0.51100000000E-03 0.  1.
    9900012    2    1    2    0    0  0.16757492852E+02 -0.10702959080E+02  0.38577934599E+02  0.47787263397E+02  0.19999965131E+02 0.  0.
        -12    1    1    2    0    0 -0.16757492852E+02  0.10702959080E+02 -0.38577934599E+02  0.43400736603E+02  0.00000000000E+00 0.  1.
         11    1    3    3    0    0 -0.10888003415E+01 -0.29286331713E+01  0.51510302066E-01  0.31249051198E+01  0.51100000000E-03 0.  1.
        -11    1    3    3    0    0  0.17854876292E+02 -0.33504031168E+01  0.31243065985E+02  0.36140710851E+02  0.51100000000E-03 0. -1.
         12    1    3    3    0    0 -0.85830979371E-02 -0.44239227918E+01  0.72833583127E+01  0.85216474257E+01  0.00000000000E+00 0. -1.
</event>
<event>
 7    1  0.2740409E-010  0.4778727E+02  0.7816164E-02  0.1312668E+00
        -11   -1    0    0    0    0  0.00000000000E+00  0.00000000000E+00  0.45593999997E+02  0.45594000000E+02  0.51100000000E-03 0.  1.
         11   -1    0    0    0    0 -0.00000000000E+00 -0.00000000000E+00 -0.45593999997E+02  0.45594000000E+02  0.51100000000E-03 0. -1.
    9900012    2    1    2    0    0 -0.41623687441E+02 -0.94670651118E+01 -0.78400556621E+01  0.47787272462E+02  0.20000006462E+02 0.  0.
        -12    1    1    2    0    0  0.41623687441E+02  0.94670651118E+01  0.78400556621E+01  0.43400727538E+02  0.00000000000E+00 0.  1.
         11    1    3    3    0    0 -0.84894768728E+01  0.46811042875E+01 -0.44890980152E+01  0.10683443086E+02  0.51100000000E-03 0. -1.
        -11    1    3    3    0    0 -0.18842095061E+02 -0.49689686095E+01  0.11862196037E+01  0.19522354175E+02  0.51100000000E-03 0.  1.
         12    1    3    3    0    0 -0.14292115508E+02 -0.91792007898E+01 -0.45371772506E+01  0.17581475201E+02  0.00000000000E+00 0. -1.
</event>
<event>
 7    1  0.2740409E-010  0.4778727E+02  0.7816164E-02  0.1312668E+00
        -11   -1    0    0    0    0  0.00000000000E+00  0.00000000000E+00  0.45593999997E+02  0.45594000000E+02  0.51100000000E-03 0.  1.
         11   -1    0    0    0    0 -0.00000000000E+00 -0.00000000000E+00 -0.45593999997E+02  0.45594000000E+02  0.51100000000E-03 0. -1.
    9900012    2    1    2    0    0 -0.17029407197E+02 -0.14703720659E+02 -0.37113652255E+02  0.47787270808E+02  0.19999998922E+02 0.  0.
        -12    1    1    2    0    0  0.17029407197E+02  0.14703720659E+02  0.37113652255E+02  0.43400729192E+02  0.00000000000E+00 0.  1.
         11    1    3    3    0    0 -0.68219203021E+01 -0.39283580844E+01 -0.29516522448E+02  0.30548251858E+02  0.51100000000E-03 0. -1.
        -11    1    3    3    0    0 -0.75473722861E+01 -0.82208448314E+01 -0.76847401664E+01  0.13549920659E+02  0.51100000000E-03 0.  1.
         12    1    3    3    0    0 -0.26601146087E+01 -0.25545177431E+01  0.87610359868E-01  0.36890982918E+01  0.00000000000E+00 0. -1.
</event>
<event>
 7    1  0.2740409E-010  0.4778727E+02  0.7816164E-02  0.1312668E+00
        -11   -1    0    0    0    0  0.00000000000E+00  0.00000000000E+00  0.45593999997E+02  0.45594000000E+02  0.51100000000E-03 0.  1.
         11   -1    0    0    0    0 -0.00000000000E+00 -0.00000000000E+00 -0.45593999997E+02  0.45594000000E+02  0.51100000000E-03 0. -1.
    9900012    2    1    2    0    0 -0.10739021393E+02  0.22235344273E+01 -0.41992291110E+02  0.47787271913E+02  0.20000003960E+02 0.  0.
        -12    1    1    2    0    0  0.10739021393E+02 -0.22235344273E+01  0.41992291110E+02  0.43400728087E+02  0.00000000000E+00 0.  1.
         11    1    3    3    0    0 -0.20420547674E+01  0.49570689222E+01 -0.61690509497E+01  0.81731089466E+01  0.51100000000E-03 0. -1.
        -11    1    3    3    0    0 -0.62394699519E+01  0.51629169005E+01 -0.22711303837E+02  0.24112030575E+02  0.51100000000E-03 0.  1.
         12    1    3    3    0    0 -0.24574966732E+01 -0.78964513955E+01 -0.13111936323E+02  0.15502132392E+02  0.00000000000E+00 0. -1.
</event>
<event>
 7    1  0.2740409E-010  0.4778727E+02  0.7816164E-02  0.1312668E+00
        -11   -1    0    0    0    0  0.00000000000E+00  0.00000000000E+00  0.45593999997E+02  0.45594000000E+02  0.51100000000E-03 0.  1.
         11   -1    0    0    0    0 -0.00000000000E+00 -0.00000000000E+00 -0.45593999997E+02  0.45594000000E+02  0.51100000000E-03 0. -1.
    9900012    2    1    2    0    0  0.15208356770E+02 -0.79025386462E+00 -0.40641170929E+02  0.47787269692E+02  0.19999993832E+02 0.  0.
        -12    1    1    2    0    0 -0.15208356770E+02  0.79025386462E+00  0.40641170929E+02  0.43400730308E+02  0.00000000000E+00 0.  1.
         11    1    3    3    0    0  0.63541182899E+01 -0.62693667133E+01 -0.21052736253E+02  0.22866951747E+02  0.51100000000E-03 0. -1.
        -11    1    3    3    0    0  0.91514499550E+01  0.59912059084E+01 -0.20839798178E+02  0.23535946399E+02  0.51100000000E-03 0.  1.
        -12    1    3    3    0    0 -0.29721147531E+00 -0.51209305970E+00  0.12513635016E+01  0.13843715455E+01  0.00000000000E+00 0.  1.
</event>
<event>
 7    1  0.2740409E-010  0.4778728E+02  0.7816164E-02  0.1312668E+00
        -11   -1    0    0    0    0  0.00000000000E+00  0.00000000000E+00  0.45593999997E+02  0.45594000000E+02  0.51100000000E-03 0. -1.
         11   -1    0    0    0    0 -0.00000000000E+00 -0.00000000000E+00 -0.45593999997E+02  0.45594000000E+02  0.51100000000E-03 0.  1.
    9900012    2    1    2    0    0 -0.21477358194E+02 -0.98072426011E+01  0.36416533618E+02  0.47787276006E+02  0.20000022623E+02 0.  0.
        -12    1    1    2    0    0  0.21477358194E+02  0.98072426011E+01 -0.36416533618E+02  0.43400723994E+02  0.00000000000E+00 0.  1.
         11    1    3    3    0    0 -0.18360952782E+01 -0.12101490693E+01  0.49792100098E+01  0.54431828210E+01  0.51100000000E-03 0. -1.
        -11    1    3    3    0    0 -0.16332875685E+02 -0.82713610222E+01  0.33679748347E+02  0.38334106098E+02  0.51100000000E-03 0.  1.
        -12    1    3    3    0    0 -0.33083872304E+01 -0.32573250958E+00 -0.22424247388E+01  0.40099870877E+01  0.00000000000E+00 0.  1.
</event>
<event>
 7    1  0.2740409E-010  0.4778727E+02  0.7816164E-02  0.1312668E+00
        -11   -1    0    0    0    0  0.00000000000E+00  0.00000000000E+00  0.45593999997E+02  0.45594000000E+02  0.51100000000E-03 0.  1.
         11   -1    0    0    0    0 -0.00000000000E+00 -0.00000000000E+00 -0.45593999997E+02  0.45594000000E+02  0.51100000000E-03 0. -1.
    9900012    2    1    2    0    0 -0.27140478020E+02 -0.13124399858E+02 -0.31221280449E+02  0.47787265310E+02  0.19999973853E+02 0.  0.
        -12    1    1    2    0    0  0.27140478020E+02  0.13124399858E+02  0.31221280449E+02  0.43400734690E+02  0.00000000000E+00 0.  1.
         11    1    3    3    0    0 -0.47874807666E+01 -0.14052330993E+01 -0.29245655038E+01  0.57834017500E+01  0.51100000000E-03 0. -1.
        -11    1    3    3    0    0 -0.21310310937E+02 -0.66651020917E+01 -0.29206541536E+02  0.36763773023E+02  0.51100000000E-03 0.  1.
        -12    1    3    3    0    0 -0.10426863160E+01 -0.50540646669E+01  0.90982659030E+00  0.52400905369E+01  0.00000000000E+00 0.  1.
</event>
<event>
 7    1  0.2740409E-010  0.4778727E+02  0.7816164E-02  0.1312668E+00
        -11   -1    0    0    0    0  0.00000000000E+00  0.00000000000E+00  0.45593999997E+02  0.45594000000E+02  0.51100000000E-03 0.  1.
         11   -1    0    0    0    0 -0.00000000000E+00 -0.00000000000E+00 -0.45593999997E+02  0.45594000000E+02  0.51100000000E-03 0. -1.
    9900012    2    1    2    0    0  0.28633870597E+02 -0.33294502329E+01 -0.32444404661E+02  0.47787272149E+02  0.20000005035E+02 0.  0.
        -12    1    1    2    0    0 -0.28633870597E+02  0.33294502329E+01  0.32444404661E+02  0.43400727851E+02  0.00000000000E+00 0.  1.
         11    1    3    3    0    0  0.47932831590E+01 -0.52935406822E+01 -0.49793507909E+01  0.87058067378E+01  0.51100000000E-03 0. -1.
        -11    1    3    3    0    0  0.22288669580E+02 -0.10008911881E+00 -0.28600867277E+02  0.36260231918E+02  0.51100000000E-03 0.  1.
        -12    1    3    3    0    0  0.15519178573E+01  0.20641795681E+01  0.11358134070E+01  0.28212334927E+01  0.00000000000E+00 0.  1.
</event>
<event>
 7    1  0.2740409E-010  0.4778727E+02  0.7816164E-02  0.1312668E+00
        -11   -1    0    0    0    0  0.00000000000E+00  0.00000000000E+00  0.45593999997E+02  0.45594000000E+02  0.51100000000E-03 0.  1.
         11   -1    0    0    0    0 -0.00000000000E+00 -0.00000000000E+00 -0.45593999997E+02  0.45594000000E+02  0.51100000000E-03 0. -1.
    9900012    2    1    2    0    0  0.78536191204E+01  0.39281057111E+02 -0.16701568166E+02  0.47787272353E+02  0.20000005967E+02 0.  0.
        -12    1    1    2    0    0 -0.78536191204E+01 -0.39281057111E+02  0.16701568166E+02  0.43400727647E+02  0.00000000000E+00 0.  1.
         11    1    3    3    0    0  0.19936499874E+01  0.18464229238E+02 -0.70716618277E+01  0.19872362791E+02  0.51100000000E-03 0. -1.
        -11    1    3    3    0    0 -0.18829984796E+01  0.68101313943E+01  0.28510714136E+01  0.76191982090E+01  0.51100000000E-03 0.  1.
        -12    1    3    3    0    0  0.77429676125E+01  0.14006696479E+02 -0.12480977752E+02  0.20295711354E+02  0.00000000000E+00 0.  1.
</event>
<event>
 7    1  0.2740409E-010  0.4778727E+02  0.7816164E-02  0.1312668E+00
        -11   -1    0    0    0    0  0.00000000000E+00  0.00000000000E+00  0.45593999997E+02  0.45594000000E+02  0.51100000000E-03 0.  1.
         11   -1    0    0    0    0 -0.00000000000E+00 -0.00000000000E+00 -0.45593999997E+02  0.45594000000E+02  0.51100000000E-03 0. -1.
    9900012    2    1    2    0    0  0.39243056926E+02 -0.12053478518E+02 -0.14082591656E+02  0.47787271331E+02  0.20000001305E+02 0.  0.
        -12    1    1    2    0    0 -0.39243056926E+02  0.12053478518E+02  0.14082591656E+02  0.43400728669E+02  0.00000000000E+00 0.  1.
         11    1    3    3    0    0  0.11450746850E+02  0.40958902826E-01 -0.70952193935E+01  0.13470835890E+02  0.51100000000E-03 0. -1.
        -11    1    3    3    0    0  0.15835298717E+01 -0.60113973900E+01 -0.36394725721E+01  0.72034870930E+01  0.51100000000E-03 0.  1.
        -12    1    3    3    0    0  0.26208780204E+02 -0.60830400313E+01 -0.33478996905E+01  0.27112948348E+02  0.00000000000E+00 0.  1.
</event>
<event>
 7    1  0.2740409E-010  0.4778727E+02  0.7816164E-02  0.1312668E+00
        -11   -1    0    0    0    0  0.00000000000E+00  0.00000000000E+00  0.45593999997E+02  0.45594000000E+02  0.51100000000E-03 0.  1.
         11   -1    0    0    0    0 -0.00000000000E+00 -0.00000000000E+00 -0.45593999997E+02  0.45594000000E+02  0.51100000000E-03 0. -1.
    9900012    2    1    2    0    0  0.24971397503E+02 -0.34812805169E+02  0.69369338923E+01  0.47787272485E+02  0.20000006570E+02 0.  0.
        -12    1    1    2    0    0 -0.24971397503E+02  0.34812805169E+02 -0.69369338923E+01  0.43400727515E+02  0.00000000000E+00 0.  1.
         11    1    3    3    0    0  0.98542811705E+01 -0.22221765281E+02 -0.31425559971E+01  0.24511005040E+02  0.51100000000E-03 0. -1.
        -11    1    3    3    0    0  0.51424643592E+01 -0.87434947313E+00  0.45612188506E+01  0.69292239357E+01  0.51100000000E-03 0.  1.
         12    1    3    3    0    0  0.99746519731E+01 -0.11716690414E+02  0.55182710388E+01  0.16347043510E+02  0.00000000000E+00 0. -1.
</event>
<event>
 7    1  0.2740409E-010  0.4778727E+02  0.7816164E-02  0.1312668E+00
        -11   -1    0    0    0    0  0.00000000000E+00  0.00000000000E+00  0.45593999997E+02  0.45594000000E+02  0.51100000000E-03 0. -1.
         11   -1    0    0    0    0 -0.00000000000E+00 -0.00000000000E+00 -0.45593999997E+02  0.45594000000E+02  0.51100000000E-03 0.  1.
    9900012    2    1    2    0    0 -0.29364418054E+02  0.30945702821E+02  0.79823520041E+01  0.47787268275E+02  0.19999987373E+02 0.  0.
        -12    1    1    2    0    0  0.29364418054E+02 -0.30945702821E+02 -0.79823520041E+01  0.43400731725E+02  0.00000000000E+00 0.  1.
         11    1    3    3    0    0 -0.14247543439E+02  0.18402459958E+02  0.11817591881E+02  0.26101695437E+02  0.51100000000E-03 0. -1.
        -11    1    3    3    0    0 -0.43080828253E+01  0.81588609152E+01 -0.39111432691E+01  0.10021159164E+02  0.51100000000E-03 0.  1.
         12    1    3    3    0    0 -0.10808791790E+02  0.43843819483E+01  0.75903391811E-01  0.11664413674E+02  0.00000000000E+00 0. -1.
</event>
<event>
 7    1  0.2740409E-010  0.4778727E+02  0.7816164E-02  0.1312668E+00
        -11   -1    0    0    0    0  0.00000000000E+00  0.00000000000E+00  0.45593999997E+02  0.45594000000E+02  0.51100000000E-03 0.  1.
         11   -1    0    0    0    0 -0.00000000000E+00 -0.00000000000E+00 -0.45593999997E+02  0.45594000000E+02  0.51100000000E-03 0. -1.
    9900012    2    1    2    0    0 -0.70723302029E+01  0.37148520046E+02  0.21297715011E+02  0.47787273499E+02  0.20000011193E+02 0.  0.
        -12    1    1    2    0    0  0.70723302029E+01 -0.37148520046E+02 -0.21297715011E+02  0.43400726501E+02  0.00000000000E+00 0.  1.
         11    1    3    3    0    0  0.38874313731E+00  0.80880420536E+01  0.16135776480E+01  0.82565839531E+01  0.51100000000E-03 0.  1.
        -11    1    3    3    0    0 -0.24400134920E+01  0.22619617220E+02  0.58910319496E+01  0.23501170326E+02  0.51100000000E-03 0. -1.
        -12    1    3    3    0    0 -0.50210598482E+01  0.64408607727E+01  0.13793105413E+02  0.16029519220E+02  0.00000000000E+00 0.  1.
</event>
<event>
 7    1  0.2740409E-010  0.4778726E+02  0.7816164E-02  0.1312668E+00
        -11   -1    0    0    0    0  0.00000000000E+00  0.00000000000E+00  0.45593999997E+02  0.45594000000E+02  0.51100000000E-03 0.  1.
         11   -1    0    0    0    0 -0.00000000000E+00 -0.00000000000E+00 -0.45593999997E+02  0.45594000000E+02  0.51100000000E-03 0. -1.
    9900012    2    1    2    0    0 -0.95371824548E+01  0.14575931286E+01 -0.42314799127E+02  0.47787255167E+02  0.19999927607E+02 0.  0.
        -12    1    1    2    0    0  0.95371824548E+01 -0.14575931286E+01  0.42314799127E+02  0.43400744833E+02  0.00000000000E+00 0.  1.
         11    1    3    3    0    0 -0.21380176964E+01 -0.51463704997E+01 -0.16722234251E+02  0.17626382715E+02  0.51100000000E-03 0.  1.
        -11    1    3    3    0    0 -0.82784381299E+01 -0.16008338164E+00 -0.18761822914E+02  0.20507661102E+02  0.51100000000E-03 0. -1.
         12    1    3    3    0    0  0.87927337150E+00  0.67640470100E+01 -0.68307419618E+01  0.96532113498E+01  0.00000000000E+00 0. -1.
</event>
<event>
 7    1  0.2740409E-010  0.4778727E+02  0.7816164E-02  0.1312668E+00
        -11   -1    0    0    0    0  0.00000000000E+00  0.00000000000E+00  0.45593999997E+02  0.45594000000E+02  0.51100000000E-03 0. -1.
         11   -1    0    0    0    0 -0.00000000000E+00 -0.00000000000E+00 -0.45593999997E+02  0.45594000000E+02  0.51100000000E-03 0.  1.
    9900012    2    1    2    0    0 -0.10238320342E+02 -0.42075814235E+02  0.29027534428E+01  0.47787270461E+02  0.19999997341E+02 0.  0.
        -12    1    1    2    0    0  0.10238320342E+02  0.42075814235E+02 -0.29027534428E+01  0.43400729539E+02  0.00000000000E+00 0.  1.
         11    1    3    3    0    0 -0.11285507052E+02 -0.25401012621E+02  0.71349891453E+00  0.27804373623E+02  0.51100000000E-03 0. -1.
        -11    1    3    3    0    0  0.14739592813E+01 -0.84029365348E+00 -0.28874176694E+01  0.33490043962E+01  0.51100000000E-03 0.  1.
        -12    1    3    3    0    0 -0.42677257136E+00 -0.15834507961E+02  0.50766721977E+01  0.16633892442E+02  0.00000000000E+00 0.  1.
</event>
<event>
 7    1  0.2740409E-010  0.4778727E+02  0.7816164E-02  0.1312668E+00
        -11   -1    0    0    0    0  0.00000000000E+00  0.00000000000E+00  0.45593999997E+02  0.45594000000E+02  0.51100000000E-03 0.  1.
         11   -1    0    0    0    0 -0.00000000000E+00 -0.00000000000E+00 -0.45593999997E+02  0.45594000000E+02  0.51100000000E-03 0. -1.
    9900012    2    1    2    0    0 -0.27194641717E+02  0.29464330063E+02  0.16611087824E+02  0.47787268176E+02  0.19999986922E+02 0.  0.
        -12    1    1    2    0    0  0.27194641717E+02 -0.29464330063E+02 -0.16611087824E+02  0.43400731824E+02  0.00000000000E+00 0.  1.
         11    1    3    3    0    0  0.21723242748E+01  0.91139736646E+00 -0.22132694855E+00  0.23661411187E+01  0.51100000000E-03 0. -1.
        -11    1    3    3    0    0 -0.95437822328E+01  0.48060672870E+01  0.11724910024E+01  0.10749734764E+02  0.51100000000E-03 0.  1.
         12    1    3    3    0    0 -0.19823183759E+02  0.23746865409E+02  0.15659923770E+02  0.34671392294E+02  0.00000000000E+00 0. -1.
</event>
<event>
 7    1  0.2740409E-010  0.4778727E+02  0.7816164E-02  0.1312668E+00
        -11   -1    0    0    0    0  0.00000000000E+00  0.00000000000E+00  0.45593999997E+02  0.45594000000E+02  0.51100000000E-03 0.  1.
         11   -1    0    0    0    0 -0.00000000000E+00 -0.00000000000E+00 -0.45593999997E+02  0.45594000000E+02  0.51100000000E-03 0. -1.
    9900012    2    1    2    0    0 -0.41162179070E+02 -0.80938667244E+01  0.11125993128E+02  0.47787269736E+02  0.19999994036E+02 0.  0.
        -12    1    1    2    0    0  0.41162179070E+02  0.80938667244E+01 -0.11125993128E+02  0.43400730264E+02  0.00000000000E+00 0.  1.
         11    1    3    3    0    0 -0.25911077851E+01 -0.24505176798E+01 -0.39861197660E+01  0.53486472591E+01  0.51100000000E-03 0. -1.
        -11    1    3    3    0    0 -0.29399903662E+01  0.14749132347E+01  0.79052929090E+00  0.33828758807E+01  0.51100000000E-03 0.  1.
         12    1    3    3    0    0 -0.35631080919E+02 -0.71182622794E+01  0.14321583603E+02  0.39055746596E+02  0.00000000000E+00 0. -1.
</event>
<event>
 7    1  0.2740409E-010  0.4778727E+02  0.7816164E-02  0.1312668E+00
        -11   -1    0    0    0    0  0.00000000000E+00  0.00000000000E+00  0.45593999997E+02  0.45594000000E+02  0.51100000000E-03 0. -1.
         11   -1    0    0    0    0 -0.00000000000E+00 -0.00000000000E+00 -0.45593999997E+02  0.45594000000E+02  0.51100000000E-03 0.  1.
    9900012    2    1    2    0    0 -0.78239340467E+01 -0.41027527039E+02  0.11796238062E+02  0.47787272456E+02  0.20000006436E+02 0.  0.
        -12    1    1    2    0    0  0.78239340467E+01  0.41027527039E+02 -0.11796238062E+02  0.43400727544E+02  0.00000000000E+00 0.  1.
         11    1    3    3    0    0  0.32932422537E+01 -0.10886627426E+02  0.91680622928E+01  0.14608814727E+02  0.51100000000E-03 0. -1.
        -11    1    3    3    0    0 -0.12011919707E+02 -0.29657739548E+02  0.28907371969E+01  0.32128244458E+02  0.51100000000E-03 0.  1.
        -12    1    3    3    0    0  0.89474340656E+00 -0.48316006511E+00 -0.26256142747E+00  0.10502132713E+01  0.00000000000E+00 0.  1.
</event>
<event>
 7    1  0.2740409E-010  0.4778725E+02  0.7816164E-02  0.1312668E+00
        -11   -1    0    0    0    0  0.00000000000E+00  0.00000000000E+00  0.45593999997E+02  0.45594000000E+02  0.51100000000E-03 0.  1.
         11   -1    0    0    0    0 -0.00000000000E+00 -0.00000000000E+00 -0.45593999997E+02  0.45594000000E+02  0.51100000000E-03 0. -1.
    9900012    2    1    2    0    0  0.23446772950E+02 -0.32559844831E+02 -0.16544805859E+02  0.47787248185E+02  0.19999895774E+02 0.  0.
        -12    1    1    2    0    0 -0.23446772950E+02  0.32559844831E+02  0.16544805859E+02  0.43400751815E+02  0.00000000000E+00 0.  1.
         11    1    3    3    0    0  0.19553930668E+02 -0.28515377718E+02 -0.81167781460E+01  0.35515701580E+02  0.51100000000E-03 0. -1.
        -11    1    3    3    0    0  0.23234536202E+01 -0.38418165313E+01 -0.93980784188E+01  0.10415462986E+02  0.51100000000E-03 0.  1.
        -12    1    3    3    0    0  0.15693886616E+01 -0.20265058164E+00  0.97005070545E+00  0.18560836190E+01  0.00000000000E+00 0.  1.
</event>
<event>
 7    1  0.2740409E-010  0.4778727E+02  0.7816164E-02  0.1312668E+00
        -11   -1    0    0    0    0  0.00000000000E+00  0.00000000000E+00  0.45593999997E+02  0.45594000000E+02  0.51100000000E-03 0.  1.
         11   -1    0    0    0    0 -0.00000000000E+00 -0.00000000000E+00 -0.45593999997E+02  0.45594000000E+02  0.51100000000E-03 0. -1.
    9900012    2    1    2    0    0 -0.35885940852E+02  0.97663073691E+01 -0.22370559423E+02  0.47787269138E+02  0.19999991308E+02 0.  0.
        -12    1    1    2    0    0  0.35885940852E+02 -0.97663073691E+01  0.22370559423E+02  0.43400730862E+02  0.00000000000E+00 0.  1.
         11    1    3    3    0    0 -0.20072354949E+02  0.48914560178E+01 -0.31988264493E+01  0.20905938536E+02  0.51100000000E-03 0. -1.
        -11    1    3    3    0    0 -0.14533869661E+02  0.22006759594E+01 -0.18843182533E+02  0.23898574648E+02  0.51100000000E-03 0.  1.
        -12    1    3    3    0    0 -0.12797162420E+01  0.26741753918E+01 -0.32855044123E+00  0.29827559536E+01  0.00000000000E+00 0.  1.
</event>
<event>
 7    1  0.2740409E-010  0.4778729E+02  0.7816164E-02  0.1312668E+00
        -11   -1    0    0    0    0  0.00000000000E+00  0.00000000000E+00  0.45593999997E+02  0.45594000000E+02  0.51100000000E-03 0.  1.
         11   -1    0    0    0    0 -0.00000000000E+00 -0.00000000000E+00 -0.45593999997E+02  0.45594000000E+02  0.51100000000E-03 0. -1.
    9900012    2    1    2    0    0  0.18184752115E+02  0.37471059342E+02  0.12200646651E+02  0.47787294056E+02  0.20000104920E+02 0.  0.
        -12    1    1    2    0    0 -0.18184752115E+02 -0.37471059342E+02 -0.12200646651E+02  0.43400705944E+02  0.00000000000E+00 0.  1.
         11    1    3    3    0    0  0.34273063748E+01  0.70554579292E+01  0.28049571244E+01  0.83302881288E+01  0.51100000000E-03 0. -1.
        -11    1    3    3    0    0  0.61905981291E+01  0.22823206059E+02 -0.14441490785E+01  0.23691935481E+02  0.51100000000E-03 0.  1.
        -12    1    3    3    0    0  0.85668476111E+01  0.75923953535E+01  0.10839838605E+02  0.15765070446E+02  0.00000000000E+00 0.  1.
</event>
<event>
 7    1  0.2740409E-010  0.4778726E+02  0.7816164E-02  0.1312668E+00
        -11   -1    0    0    0    0  0.00000000000E+00  0.00000000000E+00  0.45593999997E+02  0.45594000000E+02  0.51100000000E-03 0.  1.
         11   -1    0    0    0    0 -0.00000000000E+00 -0.00000000000E+00 -0.45593999997E+02  0.45594000000E+02  0.51100000000E-03 0. -1.
    9900012    2    1    2    0    0 -0.28311251323E+02  0.29404900003E+02 -0.14746148467E+02  0.47787262791E+02  0.19999962370E+02 0.  0.
        -12    1    1    2    0    0  0.28311251323E+02 -0.29404900003E+02  0.14746148467E+02  0.43400737209E+02  0.00000000000E+00 0.  1.
         11    1    3    3    0    0 -0.13474675193E+01 -0.59079512015E+00  0.27025704350E+01  0.30771081890E+01  0.51100000000E-03 0. -1.
        -11    1    3    3    0    0 -0.16018030597E+01  0.58448471352E+00  0.69927681313E+00  0.18429280357E+01  0.51100000000E-03 0.  1.
         12    1    3    3    0    0 -0.25361980744E+02  0.29411210409E+02 -0.18147995716E+02  0.42867226566E+02  0.00000000000E+00 0. -1.
</event>
<event>
 7    1  0.2740409E-010  0.4778727E+02  0.7816164E-02  0.1312668E+00
        -11   -1    0    0    0    0  0.00000000000E+00  0.00000000000E+00  0.45593999997E+02  0.45594000000E+02  0.51100000000E-03 0. -1.
         11   -1    0    0    0    0 -0.00000000000E+00 -0.00000000000E+00 -0.45593999997E+02  0.45594000000E+02  0.51100000000E-03 0.  1.
    9900012    2    1    2    0    0 -0.16787165913E+02  0.35963927989E+02  0.17561603923E+02  0.47787274336E+02  0.20000015009E+02 0.  0.
        -12    1    1    2    0    0  0.16787165913E+02 -0.35963927989E+02 -0.17561603923E+02  0.43400725664E+02  0.00000000000E+00 0.  1.
         11    1    3    3    0    0 -0.41417540259E+01  0.13165934289E-01  0.16564473098E+01  0.44607306245E+01  0.51100000000E-03 0. -1.
        -11    1    3    3    0    0 -0.77402189386E+01  0.29983105752E+02  0.17308706471E+02  0.35475187663E+02  0.51100000000E-03 0.  1.
        -12    1    3    3    0    0 -0.49051929483E+01  0.59676563024E+01 -0.14035498576E+01  0.78513560489E+01  0.00000000000E+00 0.  1.
</event>
<event>
 7    1  0.2740409E-010  0.4778727E+02  0.7816164E-02  0.1312668E+00
        -11   -1    0    0    0    0  0.00000000000E+00  0.00000000000E+00  0.45593999997E+02  0.45594000000E+02  0.51100000000E-03 0.  1.
         11   -1    0    0    0    0 -0.00000000000E+00 -0.00000000000E+00 -0.45593999997E+02  0.45594000000E+02  0.51100000000E-03 0. -1.
    9900012    2    1    2    0    0  0.83659028646E+01  0.16667775841E+02 -0.39189545826E+02  0.47787267468E+02  0.19999983694E+02 0.  0.
        -12    1    1    2    0    0 -0.83659028646E+01 -0.16667775841E+02  0.39189545826E+02  0.43400732532E+02  0.00000000000E+00 0.  1.
         11    1    3    3    0    0 -0.22301748106E+00  0.10434574287E+02 -0.91218190250E+01  0.13861372946E+02  0.51100000000E-03 0. -1.
        -11    1    3    3    0    0  0.46889179724E+00 -0.75845524003E+00 -0.17014657108E+02  0.17038006651E+02  0.51100000000E-03 0.  1.
         12    1    3    3    0    0  0.81200285484E+01  0.69916567933E+01 -0.13053069693E+02  0.16887887871E+02  0.00000000000E+00 0. -1.
</event>
<event>
 7    1  0.2740409E-010  0.4778727E+02  0.7816164E-02  0.1312668E+00
        -11   -1    0    0    0    0  0.00000000000E+00  0.00000000000E+00  0.45593999997E+02  0.45594000000E+02  0.51100000000E-03 0.  1.
         11   -1    0    0    0    0 -0.00000000000E+00 -0.00000000000E+00 -0.45593999997E+02  0.45594000000E+02  0.51100000000E-03 0. -1.
    9900012    2    1    2    0    0 -0.21623085140E+02 -0.49101186766E+01 -0.37308930839E+02  0.47787269629E+02  0.19999993547E+02 0.  0.
        -12    1    1    2    0    0  0.21623085140E+02  0.49101186766E+01  0.37308930839E+02  0.43400730371E+02  0.00000000000E+00 0.  1.
         11    1    3    3    0    0 -0.60720098696E+01 -0.99339030136E+01 -0.13253454091E+02  0.17641025439E+02  0.51100000000E-03 0.  1.
        -11    1    3    3    0    0 -0.15166422358E+02  0.22784666670E+01 -0.19427801277E+02  0.24751792667E+02  0.51100000000E-03 0. -1.
        -12    1    3    3    0    0 -0.38465291242E+00  0.27453176700E+01 -0.46276754713E+01  0.53944515236E+01  0.00000000000E+00 0.  1.
</event>
<event>
 7    1  0.2740409E-010  0.4778728E+02  0.7816164E-02  0.1312668E+00
        -11   -1    0    0    0    0  0.00000000000E+00  0.00000000000E+00  0.45593999997E+02  0.45594000000E+02  0.51100000000E-03 0.  1.
         11   -1    0    0    0    0 -0.00000000000E+00 -0.00000000000E+00 -0.45593999997E+02  0.45594000000E+02  0.51100000000E-03 0. -1.
    9900012    2    1    2    0    0  0.15292542602E+02  0.35696899430E+02 -0.19377606693E+02  0.47787284231E+02  0.20000060121E+02 0.  0.
        -12    1    1    2    0    0 -0.15292542602E+02 -0.35696899430E+02  0.19377606693E+02  0.43400715769E+02  0.00000000000E+00 0.  1.
         11    1    3    3    0    0  0.23624895250E+01  0.26199101278E+02 -0.73210179096E+01  0.27305156436E+02  0.51100000000E-03 0. -1.
        -11    1    3    3    0    0  0.10417724465E+01  0.49456814750E+00  0.21050274060E+00  0.11722624057E+01  0.51100000000E-03 0.  1.
         12    1    3    3    0    0  0.11888280631E+02  0.90032300047E+01 -0.12267091524E+02  0.19309865389E+02  0.00000000000E+00 0. -1.
</event>
<event>
 7    1  0.2740409E-010  0.4778727E+02  0.7816164E-02  0.1312668E+00
        -11   -1    0    0    0    0  0.00000000000E+00  0.00000000000E+00  0.45593999997E+02  0.45594000000E+02  0.51100000000E-03 0. -1.
         11   -1    0    0    0    0 -0.00000000000E+00 -0.00000000000E+00 -0.45593999997E+02  0.45594000000E+02  0.51100000000E-03 0.  1.
    9900012    2    1    2    0    0 -0.30115945614E+02 -0.23779123513E+02  0.20278223351E+02  0.47787271463E+02  0.20000001908E+02 0.  0.
        -12    1    1    2    0    0  0.30115945614E+02  0.23779123513E+02 -0.20278223351E+02  0.43400728537E+02  0.00000000000E+00 0.  1.
         11    1    3    3    0    0 -0.14866340074E+02 -0.23151076860E+01  0.10591238227E+02  0.18399514076E+02  0.51100000000E-03 0. -1.
        -11    1    3    3    0    0 -0.71623089948E+01 -0.13433783296E+02  0.95859348705E+01  0.17990423880E+02  0.51100000000E-03 0.  1.
        -12    1    3    3    0    0 -0.80872965453E+01 -0.80302325313E+01  0.10105025343E+00  0.11397333507E+02  0.00000000000E+00 0.  1.
</event>
<event>
 7    1  0.2740409E-010  0.4778727E+02  0.7816164E-02  0.1312668E+00
        -11   -1    0    0    0    0  0.00000000000E+00  0.00000000000E+00  0.45593999997E+02  0.45594000000E+02  0.51100000000E-03 0.  1.
         11   -1    0    0    0    0 -0.00000000000E+00 -0.00000000000E+00 -0.45593999997E+02  0.45594000000E+02  0.51100000000E-03 0. -1.
    9900012    2    1    2    0    0  0.22379089562E+02 -0.36074992132E+02  0.90218914555E+01  0.47787271523E+02  0.20000002180E+02 0.  0.
        -12    1    1    2    0    0 -0.22379089562E+02  0.36074992132E+02 -0.90218914555E+01  0.43400728477E+02  0.00000000000E+00 0.  1.
         11    1    3    3    0    0  0.22753326293E+02 -0.23694276603E+02  0.60759055310E+01  0.33407322991E+02  0.51100000000E-03 0. -1.
        -11    1    3    3    0    0 -0.95482307356E+00 -0.34940462383E+01  0.40184508688E+01  0.54099901906E+01  0.51100000000E-03 0.  1.
        -12    1    3    3    0    0  0.58058634209E+00 -0.88866692902E+01 -0.10724649443E+01  0.89699583406E+01  0.00000000000E+00 0.  1.
</event>
<event>
 7    1  0.2740409E-010  0.4778728E+02  0.7816164E-02  0.1312668E+00
        -11   -1    0    0    0    0  0.00000000000E+00  0.00000000000E+00  0.45593999997E+02  0.45594000000E+02  0.51100000000E-03 0. -1.
         11   -1    0    0    0    0 -0.00000000000E+00 -0.00000000000E+00 -0.45593999997E+02  0.45594000000E+02  0.51100000000E-03 0.  1.
    9900012    2    1    2    0    0  0.25253749707E+02  0.35234804198E+02  0.20926999445E+01  0.47787277723E+02  0.20000030449E+02 0.  0.
        -12    1    1    2    0    0 -0.25253749707E+02 -0.35234804198E+02 -0.20926999445E+01  0.43400722277E+02  0.00000000000E+00 0.  1.
         11    1    3    3    0    0  0.11270418648E+02  0.27112708389E+02 -0.48603792508E+01  0.29761461311E+02  0.51100000000E-03 0. -1.
        -11    1    3    3    0    0  0.11923506802E+02  0.82845167957E+01  0.56307119740E+01  0.15572673200E+02  0.51100000000E-03 0.  1.
         12    1    3    3    0    0  0.20598242575E+01 -0.16242098658E+00  0.13223672213E+01  0.24531432116E+01  0.00000000000E+00 0. -1.
</event>
<event>
 7    1  0.2740409E-010  0.4778727E+02  0.7816164E-02  0.1312668E+00
        -11   -1    0    0    0    0  0.00000000000E+00  0.00000000000E+00  0.45593999997E+02  0.45594000000E+02  0.51100000000E-03 0.  1.
         11   -1    0    0    0    0 -0.00000000000E+00 -0.00000000000E+00 -0.45593999997E+02  0.45594000000E+02  0.51100000000E-03 0. -1.
    9900012    2    1    2    0    0 -0.58021948181E+01 -0.22718856536E+02  0.36521389242E+02  0.47787265223E+02  0.19999973458E+02 0.  0.
        -12    1    1    2    0    0  0.58021948181E+01  0.22718856536E+02 -0.36521389242E+02  0.43400734777E+02  0.00000000000E+00 0.  1.
         11    1    3    3    0    0  0.15127393830E+01 -0.50145826014E+01  0.25456894029E+01  0.58236546862E+01  0.51100000000E-03 0. -1.
        -11    1    3    3    0    0 -0.22518943225E+01  0.23521041270E+01  0.18238069899E+01  0.37322505357E+01  0.51100000000E-03 0.  1.
        -12    1    3    3    0    0 -0.50630398786E+01 -0.20056378062E+02  0.32151892849E+02  0.38231360001E+02  0.00000000000E+00 0.  1.
</event>
<event>
 7    1  0.2740409E-010  0.4778727E+02  0.7816164E-02  0.1312668E+00
        -11   -1    0    0    0    0  0.00000000000E+00  0.00000000000E+00  0.45593999997E+02  0.45594000000E+02  0.51100000000E-03 0. -1.
         11   -1    0    0    0    0 -0.00000000000E+00 -0.00000000000E+00 -0.45593999997E+02  0.45594000000E+02  0.51100000000E-03 0.  1.
    9900012    2    1    2    0    0 -0.39171849998E+02 -0.32468690561E+01  0.18402369091E+02  0.47787272137E+02  0.20000004979E+02 0.  0.
        -12    1    1    2    0    0  0.39171849998E+02  0.32468690561E+01 -0.18402369091E+02  0.43400727863E+02  0.00000000000E+00 0.  1.
         11    1    3    3    0    0 -0.20031726083E+02 -0.56342624312E-01  0.29237026699E+00  0.20033938829E+02  0.51100000000E-03 0. -1.
        -11    1    3    3    0    0 -0.23499943293E+00  0.15190539843E+01  0.11053874888E+01  0.18933123097E+01  0.51100000000E-03 0.  1.
         12    1    3    3    0    0 -0.18905124482E+02 -0.47095804161E+01  0.17004611335E+02  0.25860020998E+02  0.00000000000E+00 0. -1.
</event>
<event>
 7    1  0.2740409E-010  0.4778727E+02  0.7816164E-02  0.1312668E+00
        -11   -1    0    0    0    0  0.00000000000E+00  0.00000000000E+00  0.45593999997E+02  0.45594000000E+02  0.51100000000E-03 0. -1.
         11   -1    0    0    0    0 -0.00000000000E+00 -0.00000000000E+00 -0.45593999997E+02  0.45594000000E+02  0.51100000000E-03 0.  1.
    9900012    2    1    2    0    0  0.18524143224E+02 -0.38185594640E+02  0.90741324940E+01  0.47787269583E+02  0.19999993339E+02 0.  0.
        -12    1    1    2    0    0 -0.18524143224E+02  0.38185594640E+02 -0.90741324940E+01  0.43400730417E+02  0.00000000000E+00 0.  1.
         11    1    3    3    0    0  0.10530802480E+02 -0.13504996010E+02  0.82126275352E+01  0.18992892602E+02  0.51100000000E-03 0. -1.
        -11    1    3    3    0    0  0.76347478924E+01 -0.50750597441E+01  0.52531232799E+00  0.91826771745E+01  0.51100000000E-03 0.  1.
         12    1    3    3    0    0  0.35859285181E+00 -0.19605538886E+02  0.33619263082E+00  0.19611699807E+02  0.00000000000E+00 0. -1.
</event>
<event>
 7    1  0.2740409E-010  0.4778727E+02  0.7816164E-02  0.1312668E+00
        -11   -1    0    0    0    0  0.00000000000E+00  0.00000000000E+00  0.45593999997E+02  0.45594000000E+02  0.51100000000E-03 0.  1.
         11   -1    0    0    0    0 -0.00000000000E+00 -0.00000000000E+00 -0.45593999997E+02  0.45594000000E+02  0.51100000000E-03 0. -1.
    9900012    2    1    2    0    0  0.24333731777E+02 -0.33097065940E+02 -0.14002747113E+02  0.47787271864E+02  0.20000003736E+02 0.  0.
        -12    1    1    2    0    0 -0.24333731777E+02  0.33097065940E+02  0.14002747113E+02  0.43400728136E+02  0.00000000000E+00 0.  1.
         11    1    3    3    0    0  0.13124309637E+02 -0.21219054184E+02 -0.86836404999E+01  0.26417823084E+02  0.51100000000E-03 0. -1.
        -11    1    3    3    0    0 -0.21270043938E+00  0.22906686669E+01  0.30559418074E+00  0.23207310233E+01  0.51100000000E-03 0.  1.
        -12    1    3    3    0    0  0.11422122579E+02 -0.14168680423E+02 -0.56247007942E+01  0.19048717757E+02  0.00000000000E+00 0.  1.
</event>
<event>
 7    1  0.2740409E-010  0.4778727E+02  0.7816164E-02  0.1312668E+00
        -11   -1    0    0    0    0  0.00000000000E+00  0.00000000000E+00  0.45593999997E+02  0.45594000000E+02  0.51100000000E-03 0. -1.
         11   -1    0    0    0    0 -0.00000000000E+00 -0.00000000000E+00 -0.45593999997E+02  0.45594000000E+02  0.51100000000E-03 0.  1.
    9900012    2    1    2    0    0  0.14000942312E+02  0.26991565150E+02  0.30968577185E+02  0.47787265585E+02  0.19999975107E+02 0.  0.
        -12    1    1    2    0    0 -0.14000942312E+02 -0.26991565150E+02 -0.30968577185E+02  0.43400734415E+02  0.00000000000E+00 0.  1.
         11    1    3    3    0    0  0.27013801180E+01  0.10539603274E+01  0.35647214530E+01  0.45951633499E+01  0.51100000000E-03 0. -1.
        -11    1    3    3    0    0  0.28692173038E+01 -0.10772849691E+01 -0.87269874710E+00  0.31866211268E+01  0.51100000000E-03 0.  1.
        -12    1    3    3    0    0  0.84303448905E+01  0.27014889792E+02  0.28276554479E+02  0.40005481108E+02  0.00000000000E+00 0.  1.
</event>
<event>
 7    1  0.2740409E-010  0.4778727E+02  0.7816164E-02  0.1312668E+00
        -11   -1    0    0    0    0  0.00000000000E+00  0.00000000000E+00  0.45593999997E+02  0.45594000000E+02  0.51100000000E-03 0.  1.
         11   -1    0    0    0    0 -0.00000000000E+00 -0.00000000000E+00 -0.45593999997E+02  0.45594000000E+02  0.51100000000E-03 0. -1.
    9900012    2    1    2    0    0 -0.38462949843E+02 -0.12064987331E+02 -0.16082935715E+02  0.47787271306E+02  0.20000001194E+02 0.  0.
        -12    1    1    2    0    0  0.38462949843E+02  0.12064987331E+02  0.16082935715E+02  0.43400728694E+02  0.00000000000E+00 0.  1.
         11    1    3    3    0    0 -0.27650175301E+02 -0.10390832599E+02 -0.18469700164E+02  0.34837213159E+02  0.51100000000E-03 0. -1.
        -11    1    3    3    0    0 -0.92895355719E+01  0.13061541053E+01  0.17973191979E+01  0.95515373761E+01  0.51100000000E-03 0.  1.
         12    1    3    3    0    0 -0.15232389707E+01 -0.29803088374E+01  0.58944525168E+00  0.33985207713E+01  0.00000000000E+00 0. -1.
</event>
<event>
 7    1  0.2740409E-010  0.4778727E+02  0.7816164E-02  0.1312668E+00
        -11   -1    0    0    0    0  0.00000000000E+00  0.00000000000E+00  0.45593999997E+02  0.45594000000E+02  0.51100000000E-03 0.  1.
         11   -1    0    0    0    0 -0.00000000000E+00 -0.00000000000E+00 -0.45593999997E+02  0.45594000000E+02  0.51100000000E-03 0. -1.
    9900012    2    1    2    0    0  0.16452219567E+01 -0.68053288272E+01 -0.42832277912E+02  0.47787270894E+02  0.19999999316E+02 0.  0.
        -12    1    1    2    0    0 -0.16452219567E+01  0.68053288272E+01  0.42832277912E+02  0.43400729106E+02  0.00000000000E+00 0.  1.
         11    1    3    3    0    0  0.30088694702E+01  0.39936419745E+01 -0.24181241875E+01  0.55542593166E+01  0.51100000000E-03 0. -1.
        -11    1    3    3    0    0 -0.16887050033E+01 -0.76650765632E+01 -0.35769699099E+02  0.36620711314E+02  0.51100000000E-03 0.  1.
        -12    1    3    3    0    0  0.32505748979E+00 -0.31338942385E+01 -0.46444546264E+01  0.56123002634E+01  0.00000000000E+00 0.  1.
</event>
<event>
 7    1  0.2740409E-010  0.4778727E+02  0.7816164E-02  0.1312668E+00
        -11   -1    0    0    0    0  0.00000000000E+00  0.00000000000E+00  0.45593999997E+02  0.45594000000E+02  0.51100000000E-03 0.  1.
         11   -1    0    0    0    0 -0.00000000000E+00 -0.00000000000E+00 -0.45593999997E+02  0.45594000000E+02  0.51100000000E-03 0. -1.
    9900012    2    1    2    0    0 -0.20481461514E+02  0.67895575533E+01 -0.37656800903E+02  0.47787274064E+02  0.20000013767E+02 0.  0.
        -12    1    1    2    0    0  0.20481461514E+02 -0.67895575533E+01  0.37656800903E+02  0.43400725936E+02  0.00000000000E+00 0.  1.
         11    1    3    3    0    0 -0.79720754174E+01  0.15442197192E+01 -0.14565616995E+02  0.16676204595E+02  0.51100000000E-03 0. -1.
        -11    1    3    3    0    0  0.15645083204E+01  0.35018722572E+01  0.20163665836E+00  0.38407620590E+01  0.51100000000E-03 0.  1.
        -12    1    3    3    0    0 -0.14073894417E+02  0.17434655769E+01 -0.23292820567E+02  0.27270307410E+02  0.00000000000E+00 0.  1.
</event>
<event>
 7    1  0.2740409E-010  0.4778727E+02  0.7816164E-02  0.1312668E+00
        -11   -1    0    0    0    0  0.00000000000E+00  0.00000000000E+00  0.45593999997E+02  0.45594000000E+02  0.51100000000E-03 0.  1.
         11   -1    0    0    0    0 -0.00000000000E+00 -0.00000000000E+00 -0.45593999997E+02  0.45594000000E+02  0.51100000000E-03 0. -1.
    9900012    2    1    2    0    0  0.33096708638E+02  0.23653350078E+02 -0.15124490405E+02  0.47787270714E+02  0.19999998493E+02 0.  0.
        -12    1    1    2    0    0 -0.33096708638E+02 -0.23653350078E+02  0.15124490405E+02  0.43400729286E+02  0.00000000000E+00 0.  1.
         11    1    3    3    0    0  0.56763111804E+01 -0.17844967565E+01 -0.41712139714E+00  0.59648074413E+01  0.51100000000E-03 0. -1.
        -11    1    3    3    0    0  0.11594063438E+02  0.15947217125E+02 -0.12233987723E+02  0.23203588018E+02  0.51100000000E-03 0.  1.
        -12    1    3    3    0    0  0.15826334019E+02  0.94906297094E+01 -0.24733812851E+01  0.18618875255E+02  0.00000000000E+00 0.  1.
</event>
<event>
 7    1  0.2740409E-010  0.4778727E+02  0.7816164E-02  0.1312668E+00
        -11   -1    0    0    0    0  0.00000000000E+00  0.00000000000E+00  0.45593999997E+02  0.45594000000E+02  0.51100000000E-03 0.  1.
         11   -1    0    0    0    0 -0.00000000000E+00 -0.00000000000E+00 -0.45593999997E+02  0.45594000000E+02  0.51100000000E-03 0. -1.
    9900012    2    1    2    0    0  0.21947371298E+02  0.21907485227E+01 -0.37378291600E+02  0.47787272254E+02  0.20000005514E+02 0.  0.
        -12    1    1    2    0    0 -0.21947371298E+02 -0.21907485227E+01  0.37378291600E+02  0.43400727746E+02  0.00000000000E+00 0.  1.
         11    1    3    3    0    0  0.16107771392E+01  0.18341242561E+01 -0.20409588039E+02  0.20555045584E+02  0.51100000000E-03 0. -1.
        -11    1    3    3    0    0  0.13822829858E+02 -0.14396366072E+01 -0.81102948196E+01  0.16090993169E+02  0.51100000000E-03 0.  1.
        -12    1    3    3    0    0  0.65137643009E+01  0.17962608738E+01 -0.88584087414E+01  0.11141233501E+02  0.00000000000E+00 0.  1.
</event>
<event>
 7    1  0.2740409E-010  0.4778727E+02  0.7816164E-02  0.1312668E+00
        -11   -1    0    0    0    0  0.00000000000E+00  0.00000000000E+00  0.45593999997E+02  0.45594000000E+02  0.51100000000E-03 0.  1.
         11   -1    0    0    0    0 -0.00000000000E+00 -0.00000000000E+00 -0.45593999997E+02  0.45594000000E+02  0.51100000000E-03 0. -1.
    9900012    2    1    2    0    0 -0.18892222897E+02 -0.18690221181E+02  0.34313016225E+02  0.47787268022E+02  0.19999986218E+02 0.  0.
        -12    1    1    2    0    0  0.18892222897E+02  0.18690221181E+02 -0.34313016225E+02  0.43400731978E+02  0.00000000000E+00 0.  1.
         11    1    3    3    0    0 -0.17960250090E+02 -0.12527799092E+02  0.22863259043E+02  0.31658252442E+02  0.51100000000E-03 0. -1.
        -11    1    3    3    0    0 -0.28625369572E+01 -0.23253160698E+00  0.89687816542E+01  0.94173899463E+01  0.51100000000E-03 0.  1.
         12    1    3    3    0    0  0.19305641496E+01 -0.59298904823E+01  0.24809755276E+01  0.67116256329E+01  0.00000000000E+00 0. -1.
</event>
<event>
 7    1  0.2740409E-010  0.4778727E+02  0.7816164E-02  0.1312668E+00
        -11   -1    0    0    0    0  0.00000000000E+00  0.00000000000E+00  0.45593999997E+02  0.45594000000E+02  0.51100000000E-03 0. -1.
         11   -1    0    0    0    0 -0.00000000000E+00 -0.00000000000E+00 -0.45593999997E+02  0.45594000000E+02  0.51100000000E-03 0.  1.
    9900012    2    1    2    0    0 -0.39346922430E+02  0.17160026644E+02  0.64012888936E+01  0.47787270529E+02  0.19999997648E+02 0.  0.
        -12    1    1    2    0    0  0.39346922430E+02 -0.17160026644E+02 -0.64012888936E+01  0.43400729471E+02  0.00000000000E+00 0.  1.
         11    1    3    3    0    0 -0.43509187344E+01  0.86216279712E+01  0.53539018232E+01  0.11042066279E+02  0.51100000000E-03 0. -1.
        -11    1    3    3    0    0 -0.18399310975E+01 -0.10445988201E+01  0.70561071284E+00  0.22303407538E+01  0.51100000000E-03 0.  1.
         12    1    3    3    0    0 -0.33156072598E+02  0.95829974931E+01  0.34177635757E+00  0.34514863496E+02  0.00000000000E+00 0. -1.
</event>
<event>
 7    1  0.2740409E-010  0.4778728E+02  0.7816164E-02  0.1312668E+00
        -11   -1    0    0    0    0  0.00000000000E+00  0.00000000000E+00  0.45593999997E+02  0.45594000000E+02  0.51100000000E-03 0.  1.
         11   -1    0    0    0    0 -0.00000000000E+00 -0.00000000000E+00 -0.45593999997E+02  0.45594000000E+02  0.51100000000E-03 0. -1.
    9900012    2    1    2    0    0  0.39041501422E+02  0.12167099106E+01 -0.18918341121E+02  0.47787275961E+02  0.20000022416E+02 0.  0.
        -12    1    1    2    0    0 -0.39041501422E+02 -0.12167099106E+01  0.18918341121E+02  0.43400724039E+02  0.00000000000E+00 0.  1.
         11    1    3    3    0    0  0.22454343014E+02  0.36920934634E+01 -0.54436274576E+01  0.23397909191E+02  0.51100000000E-03 0. -1.
        -11    1    3    3    0    0  0.23172929752E+01 -0.43683290405E+01 -0.43067554970E+00  0.49636304283E+01  0.51100000000E-03 0.  1.
        -12    1    3    3    0    0  0.14269865433E+02  0.18929454877E+01 -0.13044038114E+02  0.19425736342E+02  0.00000000000E+00 0.  1.
</event>
<event>
 7    1  0.2740409E-010  0.4778727E+02  0.7816164E-02  0.1312668E+00
        -11   -1    0    0    0    0  0.00000000000E+00  0.00000000000E+00  0.45593999997E+02  0.45594000000E+02  0.51100000000E-03 0.  1.
         11   -1    0    0    0    0 -0.00000000000E+00 -0.00000000000E+00 -0.45593999997E+02  0.45594000000E+02  0.51100000000E-03 0. -1.
    9900012    2    1    2    0    0 -0.33228868852E+02  0.16007364029E+02 -0.22874220345E+02  0.47787269768E+02  0.19999994178E+02 0.  0.
        -12    1    1    2    0    0  0.33228868852E+02 -0.16007364029E+02  0.22874220345E+02  0.43400730232E+02  0.00000000000E+00 0.  1.
         11    1    3    3    0    0 -0.21587254646E+02  0.16089098898E+02 -0.18084675906E+02  0.32433380480E+02  0.51100000000E-03 0. -1.
        -11    1    3    3    0    0 -0.11777942942E+02 -0.15206156779E+01 -0.61459271576E+01  0.13371784954E+02  0.51100000000E-03 0.  1.
         12    1    3    3    0    0  0.13632873601E+00  0.14388808089E+01  0.13563827187E+01  0.19821043328E+01  0.00000000000E+00 0. -1.
</event>
<event>
 7    1  0.2740409E-010  0.4778727E+02  0.7816164E-02  0.1312668E+00
        -11   -1    0    0    0    0  0.00000000000E+00  0.00000000000E+00  0.45593999997E+02  0.45594000000E+02  0.51100000000E-03 0. -1.
         11   -1    0    0    0    0 -0.00000000000E+00 -0.00000000000E+00 -0.45593999997E+02  0.45594000000E+02  0.51100000000E-03 0.  1.
    9900012    2    1    2    0    0 -0.29081499997E+02 -0.20825515539E+01  0.32148915730E+02  0.47787269066E+02  0.19999990978E+02 0.  0.
        -12    1    1    2    0    0  0.29081499997E+02  0.20825515539E+01 -0.32148915730E+02  0.43400730934E+02  0.00000000000E+00 0.  1.
         11    1    3    3    0    0 -0.28471431878E+02 -0.38462299032E+01  0.29155187057E+02  0.40932149348E+02  0.51100000000E-03 0. -1.
        -11    1    3    3    0    0  0.20479060697E+01 -0.10359959020E+01  0.91622351289E+00  0.24711682594E+01  0.51100000000E-03 0.  1.
         12    1    3    3    0    0 -0.26579741886E+01  0.27996742513E+01  0.20775051596E+01  0.43839514583E+01  0.00000000000E+00 0. -1.
</event>
<event>
 7    1  0.2740409E-010  0.4778727E+02  0.7816164E-02  0.1312668E+00
        -11   -1    0    0    0    0  0.00000000000E+00  0.00000000000E+00  0.45593999997E+02  0.45594000000E+02  0.51100000000E-03 0.  1.
         11   -1    0    0    0    0 -0.00000000000E+00 -0.00000000000E+00 -0.45593999997E+02  0.45594000000E+02  0.51100000000E-03 0. -1.
    9900012    2    1    2    0    0 -0.13999587240E+02  0.21856366583E+02 -0.34784113189E+02  0.47787265750E+02  0.19999975858E+02 0.  0.
        -12    1    1    2    0    0  0.13999587240E+02 -0.21856366583E+02  0.34784113189E+02  0.43400734250E+02  0.00000000000E+00 0.  1.
         11    1    3    3    0    0 -0.67914969444E+01  0.12154159080E+02 -0.78338205389E+01  0.15975504943E+02  0.51100000000E-03 0. -1.
        -11    1    3    3    0    0 -0.99917293541E+01  0.87310940318E+01 -0.24918865415E+02  0.28231480874E+02  0.51100000000E-03 0.  1.
        -12    1    3    3    0    0  0.27836390589E+01  0.97111347154E+00 -0.20314272353E+01  0.35802799328E+01  0.00000000000E+00 0.  1.
</event>
<event>
 7    1  0.2740409E-010  0.4778727E+02  0.7816164E-02  0.1312668E+00
        -11   -1    0    0    0    0  0.00000000000E+00  0.00000000000E+00  0.45593999997E+02  0.45594000000E+02  0.51100000000E-03 0.  1.
         11   -1    0    0    0    0 -0.00000000000E+00 -0.00000000000E+00 -0.45593999997E+02  0.45594000000E+02  0.51100000000E-03 0. -1.
    9900012    2    1    2    0    0  0.10062648202E+01  0.23738913746E+02 -0.36319067597E+02  0.47787271137E+02  0.20000000422E+02 0.  0.
        -12    1    1    2    0    0 -0.10062648202E+01 -0.23738913746E+02  0.36319067597E+02  0.43400728863E+02  0.00000000000E+00 0.  1.
         11    1    3    3    0    0 -0.54595548481E+01  0.16198153074E+02 -0.13756852848E+02  0.21941693250E+02  0.51100000000E-03 0. -1.
        -11    1    3    3    0    0  0.76043370469E+01  0.81647586640E+01 -0.21241682316E+02  0.23993713632E+02  0.51100000000E-03 0.  1.
        -12    1    3    3    0    0 -0.11385173787E+01 -0.62399799118E+00 -0.13205324326E+01  0.18518642553E+01  0.00000000000E+00 0.  1.
</event>
<event>
 7    1  0.2740409E-010  0.4778726E+02  0.7816164E-02  0.1312668E+00
        -11   -1    0    0    0    0  0.00000000000E+00  0.00000000000E+00  0.45593999997E+02  0.45594000000E+02  0.51100000000E-03 0.  1.
         11   -1    0    0    0    0 -0.00000000000E+00 -0.00000000000E+00 -0.45593999997E+02  0.45594000000E+02  0.51100000000E-03 0. -1.
    9900012    2    1    2    0    0 -0.14310245396E+02  0.38996189427E+02 -0.12575301960E+02  0.47787261152E+02  0.19999954898E+02 0.  0.
        -12    1    1    2    0    0  0.14310245396E+02 -0.38996189427E+02  0.12575301960E+02  0.43400738848E+02  0.00000000000E+00 0.  1.
         11    1    3    3    0    0 -0.57473460770E+01  0.11949479701E+02  0.33492120507E+01  0.13676230244E+02  0.51100000000E-03 0. -1.
        -11    1    3    3    0    0 -0.25733490760E+00  0.13617164558E+02 -0.11187739366E+02  0.17625518553E+02  0.51100000000E-03 0.  1.
         12    1    3    3    0    0 -0.83055644115E+01  0.13429545168E+02 -0.47367746444E+01  0.16485512356E+02  0.00000000000E+00 0. -1.
</event>
<event>
 7    1  0.2740409E-010  0.4778727E+02  0.7816164E-02  0.1312668E+00
        -11   -1    0    0    0    0  0.00000000000E+00  0.00000000000E+00  0.45593999997E+02  0.45594000000E+02  0.51100000000E-03 0.  1.
         11   -1    0    0    0    0 -0.00000000000E+00 -0.00000000000E+00 -0.45593999997E+02  0.45594000000E+02  0.51100000000E-03 0. -1.
    9900012    2    1    2    0    0  0.10041653624E+02  0.13708806045E+02 -0.39935662576E+02  0.47787270558E+02  0.19999997783E+02 0.  0.
        -12    1    1    2    0    0 -0.10041653624E+02 -0.13708806045E+02  0.39935662576E+02  0.43400729442E+02  0.00000000000E+00 0.  1.
         11    1    3    3    0    0 -0.29469938493E+01 -0.92190234231E+00 -0.45377051350E+00  0.31209909671E+01  0.51100000000E-03 0. -1.
        -11    1    3    3    0    0  0.31929885999E+01  0.15062386079E-02 -0.46950466495E+01  0.56779082214E+01  0.51100000000E-03 0.  1.
         12    1    3    3    0    0  0.97956588736E+01  0.14629202149E+02 -0.34786845413E+02  0.38988371370E+02  0.00000000000E+00 0. -1.
</event>
<event>
 7    1  0.2740409E-010  0.4778727E+02  0.7816164E-02  0.1312668E+00
        -11   -1    0    0    0    0  0.00000000000E+00  0.00000000000E+00  0.45593999997E+02  0.45594000000E+02  0.51100000000E-03 0.  1.
         11   -1    0    0    0    0 -0.00000000000E+00 -0.00000000000E+00 -0.45593999997E+02  0.45594000000E+02  0.51100000000E-03 0. -1.
    9900012    2    1    2    0    0 -0.22355060076E+02 -0.29300938623E+02  0.22920073203E+02  0.47787268776E+02  0.19999989656E+02 0.  0.
        -12    1    1    2    0    0  0.22355060076E+02  0.29300938623E+02 -0.22920073203E+02  0.43400731224E+02  0.00000000000E+00 0.  1.
         11    1    3    3    0    0 -0.47392078954E+01 -0.15715114644E+02  0.15120920283E+02  0.22317418090E+02  0.51100000000E-03 0. -1.
        -11    1    3    3    0    0 -0.31918378921E+00 -0.13261836558E+01  0.36100476482E+01  0.38591560818E+01  0.51100000000E-03 0.  1.
         12    1    3    3    0    0 -0.17296668391E+02 -0.12259640323E+02  0.41891052722E+01  0.21610694604E+02  0.00000000000E+00 0. -1.
</event>
<event>
 7    1  0.2740409E-010  0.4778727E+02  0.7816164E-02  0.1312668E+00
        -11   -1    0    0    0    0  0.00000000000E+00  0.00000000000E+00  0.45593999997E+02  0.45594000000E+02  0.51100000000E-03 0. -1.
         11   -1    0    0    0    0 -0.00000000000E+00 -0.00000000000E+00 -0.45593999997E+02  0.45594000000E+02  0.51100000000E-03 0.  1.
    9900012    2    1    2    0    0 -0.43027381448E+02  0.22052067629E+01  0.52349576897E+01  0.47787271052E+02  0.20000000036E+02 0.  0.
        -12    1    1    2    0    0  0.43027381448E+02 -0.22052067629E+01 -0.52349576897E+01  0.43400728948E+02  0.00000000000E+00 0.  1.
         11    1    3    3    0    0 -0.31291032639E+02  0.25512922553E+01  0.10876288486E+02  0.33225464139E+02  0.51100000000E-03 0. -1.
        -11    1    3    3    0    0 -0.10947460211E+02 -0.19518175645E+01 -0.32692660373E+01  0.11590710831E+02  0.51100000000E-03 0.  1.
         12    1    3    3    0    0 -0.78888859837E+00  0.16057320721E+01 -0.23720647592E+01  0.29710960822E+01  0.00000000000E+00 0. -1.
</event>
<event>
 7    1  0.2740409E-010  0.4778726E+02  0.7816164E-02  0.1312668E+00
        -11   -1    0    0    0    0  0.00000000000E+00  0.00000000000E+00  0.45593999997E+02  0.45594000000E+02  0.51100000000E-03 0.  1.
         11   -1    0    0    0    0 -0.00000000000E+00 -0.00000000000E+00 -0.45593999997E+02  0.45594000000E+02  0.51100000000E-03 0. -1.
    9900012    2    1    2    0    0 -0.31310671636E+02 -0.97100892028E+01 -0.28442575330E+02  0.47787261734E+02  0.19999957550E+02 0.  0.
        -12    1    1    2    0    0  0.31310671636E+02  0.97100892028E+01  0.28442575330E+02  0.43400738266E+02  0.00000000000E+00 0.  1.
         11    1    3    3    0    0 -0.81932591086E+01 -0.49864047034E+01 -0.57173813963E+01  0.11166117364E+02  0.51100000000E-03 0.  1.
        -11    1    3    3    0    0 -0.82977201415E+01 -0.17298381927E+01  0.95106252173E+00  0.85293036000E+01  0.51100000000E-03 0. -1.
        -12    1    3    3    0    0 -0.14819692386E+02 -0.29938463067E+01 -0.23676256455E+02  0.28091840770E+02  0.00000000000E+00 0.  1.
</event>
<event>
 7    1  0.2740409E-010  0.4778728E+02  0.7816164E-02  0.1312668E+00
        -11   -1    0    0    0    0  0.00000000000E+00  0.00000000000E+00  0.45593999997E+02  0.45594000000E+02  0.51100000000E-03 0.  1.
         11   -1    0    0    0    0 -0.00000000000E+00 -0.00000000000E+00 -0.45593999997E+02  0.45594000000E+02  0.51100000000E-03 0. -1.
    9900012    2    1    2    0    0 -0.51583060556E+01  0.22829209482E+02 -0.36549167266E+02  0.47787279328E+02  0.20000037770E+02 0.  0.
        -12    1    1    2    0    0  0.51583060556E+01 -0.22829209482E+02  0.36549167266E+02  0.43400720672E+02  0.00000000000E+00 0.  1.
         11    1    3    3    0    0 -0.76361066479E+01  0.16838115981E+02 -0.23476678832E+02  0.29882883458E+02  0.51100000000E-03 0. -1.
        -11    1    3    3    0    0  0.59158036585E+01  0.64606762884E+01 -0.91455187534E+01  0.12664027186E+02  0.51100000000E-03 0.  1.
        -12    1    3    3    0    0 -0.34380030662E+01 -0.46958278693E+00 -0.39269696810E+01  0.52403686848E+01  0.00000000000E+00 0.  1.
</event>
<event>
 7    1  0.2740409E-010  0.4778727E+02  0.7816164E-02  0.1312668E+00
        -11   -1    0    0    0    0  0.00000000000E+00  0.00000000000E+00  0.45593999997E+02  0.45594000000E+02  0.51100000000E-03 0.  1.
         11   -1    0    0    0    0 -0.00000000000E+00 -0.00000000000E+00 -0.45593999997E+02  0.45594000000E+02  0.51100000000E-03 0. -1.
    9900012    2    1    2    0    0 -0.36574133145E+02 -0.13110280903E+01 -0.23328893051E+02  0.47787271194E+02  0.20000000681E+02 0.  0.
        -12    1    1    2    0    0  0.36574133145E+02  0.13110280903E+01  0.23328893051E+02  0.43400728806E+02  0.00000000000E+00 0.  1.
         11    1    3    3    0    0 -0.64695696163E+01 -0.17674696329E+01 -0.48541631158E+01  0.82790204577E+01  0.51100000000E-03 0. -1.
        -11    1    3    3    0    0 -0.18065673302E+02 -0.78780041255E+01 -0.14077241623E+02  0.24219831396E+02  0.51100000000E-03 0.  1.
        -12    1    3    3    0    0 -0.12038890227E+02  0.83344456681E+01 -0.43974883116E+01  0.15288419341E+02  0.00000000000E+00 0.  1.
</event>
<event>
 7    1  0.2740409E-010  0.4778726E+02  0.7816164E-02  0.1312668E+00
        -11   -1    0    0    0    0  0.00000000000E+00  0.00000000000E+00  0.45593999997E+02  0.45594000000E+02  0.51100000000E-03 0.  1.
         11   -1    0    0    0    0 -0.00000000000E+00 -0.00000000000E+00 -0.45593999997E+02  0.45594000000E+02  0.51100000000E-03 0. -1.
    9900012    2    1    2    0    0 -0.24861388647E+02  0.18830358696E+02 -0.30181994331E+02  0.47787264570E+02  0.19999970480E+02 0.  0.
        -12    1    1    2    0    0  0.24861388647E+02 -0.18830358696E+02  0.30181994331E+02  0.43400735430E+02  0.00000000000E+00 0.  1.
         11    1    3    3    0    0 -0.63838311819E+01  0.17521680401E+00 -0.36499053456E+01  0.73556652167E+01  0.51100000000E-03 0. -1.
        -11    1    3    3    0    0 -0.18257224213E+02  0.10502672831E+02 -0.23912035879E+02  0.31865621486E+02  0.51100000000E-03 0.  1.
        -12    1    3    3    0    0 -0.22033325254E+00  0.81524690614E+01 -0.26200531057E+01  0.85659778669E+01  0.00000000000E+00 0.  1.
</event>
<event>
 7    1  0.2740409E-010  0.4778727E+02  0.7816164E-02  0.1312668E+00
        -11   -1    0    0    0    0  0.00000000000E+00  0.00000000000E+00  0.45593999997E+02  0.45594000000E+02  0.51100000000E-03 0.  1.
         11   -1    0    0    0    0 -0.00000000000E+00 -0.00000000000E+00 -0.45593999997E+02  0.45594000000E+02  0.51100000000E-03 0. -1.
    9900012    2    1    2    0    0 -0.27236242386E+02  0.18418415634E+02 -0.28329710136E+02  0.47787269474E+02  0.19999992841E+02 0.  0.
        -12    1    1    2    0    0  0.27236242386E+02 -0.18418415634E+02  0.28329710136E+02  0.43400730526E+02  0.00000000000E+00 0.  1.
         11    1    3    3    0    0 -0.16943248656E+02  0.18011998070E+02 -0.18773272926E+02  0.31047407720E+02  0.51100000000E-03 0. -1.
        -11    1    3    3    0    0 -0.73125716338E+01 -0.34148563753E+01 -0.86119039004E+01  0.11802535194E+02  0.51100000000E-03 0.  1.
        -12    1    3    3    0    0 -0.29804220967E+01  0.38212739388E+01 -0.94453330955E+00  0.49373265603E+01  0.00000000000E+00 0.  1.
</event>
<event>
 7    1  0.2740409E-010  0.4778727E+02  0.7816164E-02  0.1312668E+00
        -11   -1    0    0    0    0  0.00000000000E+00  0.00000000000E+00  0.45593999997E+02  0.45594000000E+02  0.51100000000E-03 0.  1.
         11   -1    0    0    0    0 -0.00000000000E+00 -0.00000000000E+00 -0.45593999997E+02  0.45594000000E+02  0.51100000000E-03 0. -1.
    9900012    2    1    2    0    0  0.20846063613E+02 -0.65470611219E+01 -0.37499343836E+02  0.47787272292E+02  0.20000005687E+02 0.  0.
        -12    1    1    2    0    0 -0.20846063613E+02  0.65470611219E+01  0.37499343836E+02  0.43400727708E+02  0.00000000000E+00 0.  1.
         11    1    3    3    0    0  0.14705981922E+02 -0.37635328833E+01 -0.14058277013E+02  0.20689737478E+02  0.51100000000E-03 0. -1.
        -11    1    3    3    0    0  0.12639753903E+01  0.36433888335E+01 -0.14722473535E+02  0.15219170254E+02  0.51100000000E-03 0.  1.
        -12    1    3    3    0    0  0.48761063004E+01 -0.64269170721E+01 -0.87185932880E+01  0.11878364560E+02  0.00000000000E+00 0.  1.
</event>
<event>
 7    1  0.2740409E-010  0.4778727E+02  0.7816164E-02  0.1312668E+00
        -11   -1    0    0    0    0  0.00000000000E+00  0.00000000000E+00  0.45593999997E+02  0.45594000000E+02  0.51100000000E-03 0.  1.
         11   -1    0    0    0    0 -0.00000000000E+00 -0.00000000000E+00 -0.45593999997E+02  0.45594000000E+02  0.51100000000E-03 0. -1.
    9900012    2    1    2    0    0 -0.15183585169E+01 -0.11537604296E+02 -0.41811499688E+02  0.47787271532E+02  0.20000002221E+02 0.  0.
        -12    1    1    2    0    0  0.15183585169E+01  0.11537604296E+02  0.41811499688E+02  0.43400728468E+02  0.00000000000E+00 0.  1.
         11    1    3    3    0    0 -0.32570072163E+01 -0.13402020229E+02 -0.23969770791E+02  0.27654514175E+02  0.51100000000E-03 0. -1.
        -11    1    3    3    0    0 -0.98446373428E+00  0.47583558811E+01 -0.12942618826E+02  0.13824706213E+02  0.51100000000E-03 0.  1.
        -12    1    3    3    0    0  0.27231124336E+01 -0.28939399482E+01 -0.48991100707E+01  0.63080511439E+01  0.00000000000E+00 0.  1.
</event>
<event>
 7    1  0.2740409E-010  0.4778728E+02  0.7816164E-02  0.1312668E+00
        -11   -1    0    0    0    0  0.00000000000E+00  0.00000000000E+00  0.45593999997E+02  0.45594000000E+02  0.51100000000E-03 0.  1.
         11   -1    0    0    0    0 -0.00000000000E+00 -0.00000000000E+00 -0.45593999997E+02  0.45594000000E+02  0.51100000000E-03 0. -1.
    9900012    2    1    2    0    0  0.23077162323E+02 -0.26097304440E+02 -0.25884321862E+02  0.47787276064E+02  0.20000022887E+02 0.  0.
        -12    1    1    2    0    0 -0.23077162323E+02  0.26097304440E+02  0.25884321862E+02  0.43400723936E+02  0.00000000000E+00 0.  1.
         11    1    3    3    0    0  0.16621720602E+02 -0.26486997745E+02 -0.26794662548E+02  0.41180050833E+02  0.51100000000E-03 0. -1.
        -11    1    3    3    0    0  0.41337680573E+01  0.60697387145E+00  0.90698547148E+00  0.42754039036E+01  0.51100000000E-03 0.  1.
         12    1    3    3    0    0  0.23216736638E+01 -0.21728056645E+00  0.33552143075E-02  0.23318213274E+01  0.00000000000E+00 0. -1.
</event>
<event>
 7    1  0.2740409E-010  0.4778727E+02  0.7816164E-02  0.1312668E+00
        -11   -1    0    0    0    0  0.00000000000E+00  0.00000000000E+00  0.45593999997E+02  0.45594000000E+02  0.51100000000E-03 0.  1.
         11   -1    0    0    0    0 -0.00000000000E+00 -0.00000000000E+00 -0.45593999997E+02  0.45594000000E+02  0.51100000000E-03 0. -1.
    9900012    2    1    2    0    0 -0.13088609904E+01 -0.50389728541E+01 -0.43087338217E+02  0.47787273288E+02  0.20000010229E+02 0.  0.
        -12    1    1    2    0    0  0.13088609904E+01  0.50389728541E+01  0.43087338217E+02  0.43400726712E+02  0.00000000000E+00 0.  1.
         11    1    3    3    0    0 -0.37396556282E+01 -0.63694760074E+01 -0.20879404395E+02  0.22147342436E+02  0.51100000000E-03 0. -1.
        -11    1    3    3    0    0  0.73972120277E+01  0.23082929524E+01 -0.13738510527E+02  0.15773193522E+02  0.51100000000E-03 0.  1.
        -12    1    3    3    0    0 -0.49664173899E+01 -0.97778979910E+00 -0.84694232952E+01  0.98667373298E+01  0.00000000000E+00 0.  1.
</event>
<event>
 7    1  0.2740409E-010  0.4778725E+02  0.7816164E-02  0.1312668E+00
        -11   -1    0    0    0    0  0.00000000000E+00  0.00000000000E+00  0.45593999997E+02  0.45594000000E+02  0.51100000000E-03 0.  1.
         11   -1    0    0    0    0 -0.00000000000E+00 -0.00000000000E+00 -0.45593999997E+02  0.45594000000E+02  0.51100000000E-03 0. -1.
    9900012    2    1    2    0    0 -0.18075462386E+02 -0.79146054409E+00 -0.39449667657E+02  0.47787250830E+02  0.19999907836E+02 0.  0.
        -12    1    1    2    0    0  0.18075462386E+02  0.79146054409E+00  0.39449667657E+02  0.43400749170E+02  0.00000000000E+00 0.  1.
         11    1    3    3    0    0 -0.14134673565E+02  0.59735696266E+01 -0.18356061665E+02  0.23925248817E+02  0.51100000000E-03 0. -1.
        -11    1    3    3    0    0 -0.84300362691E+00 -0.25835126785E+01 -0.17067293102E+02  0.17282294031E+02  0.51100000000E-03 0.  1.
         12    1    3    3    0    0 -0.30977851938E+01 -0.41815174922E+01 -0.40263128900E+01  0.65797079823E+01  0.00000000000E+00 0. -1.
</event>
<event>
 7    1  0.2740409E-010  0.4778726E+02  0.7816164E-02  0.1312668E+00
        -11   -1    0    0    0    0  0.00000000000E+00  0.00000000000E+00  0.45593999997E+02  0.45594000000E+02  0.51100000000E-03 0.  1.
         11   -1    0    0    0    0 -0.00000000000E+00 -0.00000000000E+00 -0.45593999997E+02  0.45594000000E+02  0.51100000000E-03 0. -1.
    9900012    2    1    2    0    0 -0.34667389647E+02 -0.25732243146E+02 -0.44326492411E+01  0.47787255518E+02  0.19999929210E+02 0.  0.
        -12    1    1    2    0    0  0.34667389647E+02  0.25732243146E+02  0.44326492411E+01  0.43400744482E+02  0.00000000000E+00 0.  1.
         11    1    3    3    0    0 -0.24382095806E+02 -0.15884670802E+02  0.33360869299E+01  0.29290593006E+02  0.51100000000E-03 0. -1.
        -11    1    3    3    0    0 -0.64740469807E-01  0.61666821837E+00 -0.30716864174E+01  0.31336446397E+01  0.51100000000E-03 0.  1.
         12    1    3    3    0    0 -0.10220553371E+02 -0.10464240563E+02 -0.46970497535E+01  0.15363017872E+02  0.00000000000E+00 0. -1.
</event>
<event>
 7    1  0.2740409E-010  0.4778727E+02  0.7816164E-02  0.1312668E+00
        -11   -1    0    0    0    0  0.00000000000E+00  0.00000000000E+00  0.45593999997E+02  0.45594000000E+02  0.51100000000E-03 0.  1.
         11   -1    0    0    0    0 -0.00000000000E+00 -0.00000000000E+00 -0.45593999997E+02  0.45594000000E+02  0.51100000000E-03 0. -1.
    9900012    2    1    2    0    0 -0.26949918454E+02 -0.11877618077E+02 -0.31878637931E+02  0.47787268760E+02  0.19999989583E+02 0.  0.
        -12    1    1    2    0    0  0.26949918454E+02  0.11877618077E+02  0.31878637931E+02  0.43400731240E+02  0.00000000000E+00 0.  1.
         11    1    3    3    0    0 -0.29630046751E+01  0.46546261467E-01 -0.57512046366E+01  0.64697695703E+01  0.51100000000E-03 0. -1.
        -11    1    3    3    0    0 -0.23547862915E+02 -0.15546736392E+02 -0.24290591354E+02  0.37232186196E+02  0.51100000000E-03 0.  1.
        -12    1    3    3    0    0 -0.43905086402E+00  0.36225720537E+01 -0.18368419400E+01  0.40853129939E+01  0.00000000000E+00 0.  1.
</event>
<event>
 7    1  0.2740409E-010  0.4778727E+02  0.7816164E-02  0.1312668E+00
        -11   -1    0    0    0    0  0.00000000000E+00  0.00000000000E+00  0.45593999997E+02  0.45594000000E+02  0.51100000000E-03 0.  1.
         11   -1    0    0    0    0 -0.00000000000E+00 -0.00000000000E+00 -0.45593999997E+02  0.45594000000E+02  0.51100000000E-03 0. -1.
    9900012    2    1    2    0    0  0.13427621610E+02  0.26317679231E+02 -0.31791536584E+02  0.47787273501E+02  0.20000011203E+02 0.  0.
        -12    1    1    2    0    0 -0.13427621610E+02 -0.26317679231E+02  0.31791536584E+02  0.43400726499E+02  0.00000000000E+00 0.  1.
         11    1    3    3    0    0  0.97945054497E+01  0.10348176635E+02 -0.15884830279E+02  0.21338812758E+02  0.51100000000E-03 0. -1.
        -11    1    3    3    0    0  0.13266554141E+01  0.50729279628E+00  0.21422581012E+01  0.25703366710E+01  0.51100000000E-03 0.  1.
        -12    1    3    3    0    0  0.23064607461E+01  0.15462209800E+02 -0.18048964406E+02  0.23878124072E+02  0.00000000000E+00 0.  1.
</event>
<event>
 7    1  0.2740409E-010  0.4778728E+02  0.7816164E-02  0.1312668E+00
        -11   -1    0    0    0    0  0.00000000000E+00  0.00000000000E+00  0.45593999997E+02  0.45594000000E+02  0.51100000000E-03 0.  1.
         11   -1    0    0    0    0 -0.00000000000E+00 -0.00000000000E+00 -0.45593999997E+02  0.45594000000E+02  0.51100000000E-03 0. -1.
    9900012    2    1    2    0    0  0.15456211667E+02 -0.19560954976E+02 -0.35526003655E+02  0.47787281408E+02  0.20000047251E+02 0.  0.
        -12    1    1    2    0    0 -0.15456211667E+02  0.19560954976E+02  0.35526003655E+02  0.43400718592E+02  0.00000000000E+00 0.  1.
         11    1    3    3    0    0  0.81541459419E+01 -0.39350263245E+00 -0.36363713381E+01  0.89368975116E+01  0.51100000000E-03 0. -1.
        -11    1    3    3    0    0 -0.16589607564E+01 -0.16206652363E+01 -0.20640019169E+01  0.31046434213E+01  0.51100000000E-03 0.  1.
         12    1    3    3    0    0  0.89610264811E+01 -0.17546787107E+02 -0.29825630400E+02  0.35745740475E+02  0.00000000000E+00 0. -1.
</event>
<event>
 7    1  0.2740409E-010  0.4778727E+02  0.7816164E-02  0.1312668E+00
        -11   -1    0    0    0    0  0.00000000000E+00  0.00000000000E+00  0.45593999997E+02  0.45594000000E+02  0.51100000000E-03 0.  1.
         11   -1    0    0    0    0 -0.00000000000E+00 -0.00000000000E+00 -0.45593999997E+02  0.45594000000E+02  0.51100000000E-03 0. -1.
    9900012    2    1    2    0    0  0.64269025500E+01  0.36755330380E+02  0.22166735603E+02  0.47787267806E+02  0.19999985233E+02 0.  0.
        -12    1    1    2    0    0 -0.64269025500E+01 -0.36755330380E+02 -0.22166735603E+02  0.43400732194E+02  0.00000000000E+00 0.  1.
         11    1    3    3    0    0  0.46501220131E+01  0.10767190923E+02 -0.14365772107E+01  0.11816081815E+02  0.51100000000E-03 0. -1.
        -11    1    3    3    0    0  0.46354144723E+00  0.10963915333E+02  0.15072604038E+02  0.18644186838E+02  0.51100000000E-03 0.  1.
         12    1    3    3    0    0  0.13132390897E+01  0.15024224124E+02  0.85307087754E+01  0.17326999153E+02  0.00000000000E+00 0. -1.
</event>
<event>
 7    1  0.2740409E-010  0.4778727E+02  0.7816164E-02  0.1312668E+00
        -11   -1    0    0    0    0  0.00000000000E+00  0.00000000000E+00  0.45593999997E+02  0.45594000000E+02  0.51100000000E-03 0.  1.
         11   -1    0    0    0    0 -0.00000000000E+00 -0.00000000000E+00 -0.45593999997E+02  0.45594000000E+02  0.51100000000E-03 0. -1.
    9900012    2    1    2    0    0  0.24029354942E+02  0.35811568092E+02 -0.48728660375E+01  0.47787272684E+02  0.20000007476E+02 0.  0.
        -12    1    1    2    0    0 -0.24029354942E+02 -0.35811568092E+02  0.48728660375E+01  0.43400727316E+02  0.00000000000E+00 0.  1.
         11    1    3    3    0    0 -0.22156528610E+01  0.32250088879E+01 -0.10089360650E+01  0.40407613357E+01  0.51100000000E-03 0. -1.
        -11    1    3    3    0    0  0.18021933209E+02  0.21546898366E+02 -0.82880822143E+01  0.29287389997E+02  0.51100000000E-03 0.  1.
        -12    1    3    3    0    0  0.82230745946E+01  0.11039660837E+02  0.44241522417E+01  0.14459121351E+02  0.00000000000E+00 0.  1.
</event>
<event>
 7    1  0.2740409E-010  0.4778727E+02  0.7816164E-02  0.1312668E+00
        -11   -1    0    0    0    0  0.00000000000E+00  0.00000000000E+00  0.45593999997E+02  0.45594000000E+02  0.51100000000E-03 0.  1.
         11   -1    0    0    0    0 -0.00000000000E+00 -0.00000000000E+00 -0.45593999997E+02  0.45594000000E+02  0.51100000000E-03 0. -1.
    9900012    2    1    2    0    0 -0.60268491710E+01  0.27617830898E+02 -0.32932590371E+02  0.47787274166E+02  0.20000014231E+02 0.  0.
        -12    1    1    2    0    0  0.60268491710E+01 -0.27617830898E+02  0.32932590371E+02  0.43400725834E+02  0.00000000000E+00 0.  1.
         11    1    3    3    0    0 -0.88194224789E+01  0.13926254061E+02 -0.63659793868E+01  0.17670553439E+02  0.51100000000E-03 0. -1.
        -11    1    3    3    0    0  0.14212802723E+01  0.50023468815E+01 -0.12327258570E+02  0.13379268143E+02  0.51100000000E-03 0.  1.
         12    1    3    3    0    0  0.13712930356E+01  0.86892299551E+01 -0.14239352414E+02  0.16737452583E+02  0.00000000000E+00 0. -1.
</event>
<event>
 7    1  0.2740409E-010  0.4778726E+02  0.7816164E-02  0.1312668E+00
        -11   -1    0    0    0    0  0.00000000000E+00  0.00000000000E+00  0.45593999997E+02  0.45594000000E+02  0.51100000000E-03 0.  1.
         11   -1    0    0    0    0 -0.00000000000E+00 -0.00000000000E+00 -0.45593999997E+02  0.45594000000E+02  0.51100000000E-03 0. -1.
    9900012    2    1    2    0    0  0.33025884475E+02 -0.14978526576E+02 -0.23844466362E+02  0.47787264063E+02  0.19999968170E+02 0.  0.
        -12    1    1    2    0    0 -0.33025884475E+02  0.14978526576E+02  0.23844466362E+02  0.43400735937E+02  0.00000000000E+00 0.  1.
         11    1    3    3    0    0  0.14608018243E+01 -0.79612895794E+01 -0.65428060804E+01  0.10407900144E+02  0.51100000000E-03 0.  1.
        -11    1    3    3    0    0  0.22719026524E+02 -0.35583212928E+01 -0.15445041116E+02  0.27701355778E+02  0.51100000000E-03 0. -1.
         12    1    3    3    0    0  0.88460561272E+01 -0.34589157039E+01 -0.18566191652E+01  0.96780081410E+01  0.00000000000E+00 0. -1.
</event>
<event>
 7    1  0.2740409E-010  0.4778727E+02  0.7816164E-02  0.1312668E+00
        -11   -1    0    0    0    0  0.00000000000E+00  0.00000000000E+00  0.45593999997E+02  0.45594000000E+02  0.51100000000E-03 0.  1.
         11   -1    0    0    0    0 -0.00000000000E+00 -0.00000000000E+00 -0.45593999997E+02  0.45594000000E+02  0.51100000000E-03 0. -1.
    9900012    2    1    2    0    0  0.40407252943E+02 -0.15575979318E+02 -0.28750751164E+01  0.47787270985E+02  0.19999999730E+02 0.  0.
        -12    1    1    2    0    0 -0.40407252943E+02  0.15575979318E+02  0.28750751164E+01  0.43400729015E+02  0.00000000000E+00 0.  1.
         11    1    3    3    0    0  0.12306594852E+02 -0.54946684520E+01 -0.74874239836E+01  0.15417690372E+02  0.51100000000E-03 0. -1.
        -11    1    3    3    0    0  0.27104283830E+02 -0.61826206705E+01  0.52602275069E+01  0.28293762457E+02  0.51100000000E-03 0.  1.
        -12    1    3    3    0    0  0.99637426122E+00 -0.38986901956E+01 -0.64787863978E+00  0.40758181561E+01  0.00000000000E+00 0.  1.
</event>
<event>
 7    1  0.2740409E-010  0.4778727E+02  0.7816164E-02  0.1312668E+00
        -11   -1    0    0    0    0  0.00000000000E+00  0.00000000000E+00  0.45593999997E+02  0.45594000000E+02  0.51100000000E-03 0.  1.
         11   -1    0    0    0    0 -0.00000000000E+00 -0.00000000000E+00 -0.45593999997E+02  0.45594000000E+02  0.51100000000E-03 0. -1.
    9900012    2    1    2    0    0 -0.19891027271E+02  0.23752638525E+02 -0.30393790907E+02  0.47787270416E+02  0.19999997133E+02 0.  0.
        -12    1    1    2    0    0  0.19891027271E+02 -0.23752638525E+02  0.30393790907E+02  0.43400729584E+02  0.00000000000E+00 0.  1.
         11    1    3    3    0    0 -0.57925065130E+01  0.26011513388E+01  0.78237534651E+00  0.63977520611E+01  0.51100000000E-03 0. -1.
        -11    1    3    3    0    0 -0.12380630090E+01  0.34436014771E+01 -0.11111547954E+02  0.11698619121E+02  0.51100000000E-03 0.  1.
         12    1    3    3    0    0 -0.12860457749E+02  0.17707885709E+02 -0.20064618299E+02  0.29690899234E+02  0.00000000000E+00 0. -1.
</event>
<event>
 7    1  0.2740409E-010  0.4778727E+02  0.7816164E-02  0.1312668E+00
        -11   -1    0    0    0    0  0.00000000000E+00  0.00000000000E+00  0.45593999997E+02  0.45594000000E+02  0.51100000000E-03 0.  1.
         11   -1    0    0    0    0 -0.00000000000E+00 -0.00000000000E+00 -0.45593999997E+02  0.45594000000E+02  0.51100000000E-03 0. -1.
    9900012    2    1    2    0    0  0.89033474938E+01  0.86180640410E+00 -0.42468942090E+02  0.47787270177E+02  0.19999996047E+02 0.  0.
        -12    1    1    2    0    0 -0.89033474938E+01 -0.86180640410E+00  0.42468942090E+02  0.43400729823E+02  0.00000000000E+00 0.  1.
         11    1    3    3    0    0 -0.80604553125E+00  0.71472586509E+01 -0.24912336953E+02  0.25929858240E+02  0.51100000000E-03 0. -1.
        -11    1    3    3    0    0  0.64146385497E+01 -0.50216340766E+01 -0.70479790095E+01  0.10772112370E+02  0.51100000000E-03 0.  1.
        -12    1    3    3    0    0  0.32947544753E+01 -0.12638181702E+01 -0.10508626127E+02  0.11085299568E+02  0.00000000000E+00 0.  1.
</event>
<event>
 7    1  0.2740409E-010  0.4778727E+02  0.7816164E-02  0.1312668E+00
        -11   -1    0    0    0    0  0.00000000000E+00  0.00000000000E+00  0.45593999997E+02  0.45594000000E+02  0.51100000000E-03 0.  1.
         11   -1    0    0    0    0 -0.00000000000E+00 -0.00000000000E+00 -0.45593999997E+02  0.45594000000E+02  0.51100000000E-03 0. -1.
    9900012    2    1    2    0    0 -0.17829505225E+02  0.30237118716E+02 -0.25523492279E+02  0.47787271170E+02  0.20000000574E+02 0.  0.
        -12    1    1    2    0    0  0.17829505225E+02 -0.30237118716E+02  0.25523492279E+02  0.43400728830E+02  0.00000000000E+00 0.  1.
         11    1    3    3    0    0 -0.48266188323E+01  0.56655729989E+01 -0.95755093907E+01  0.12127874798E+02  0.51100000000E-03 0. -1.
        -11    1    3    3    0    0  0.16333028288E+01 -0.12666662792E+01 -0.19042241838E+01  0.28103721456E+01  0.51100000000E-03 0.  1.
        -12    1    3    3    0    0 -0.14636189222E+02  0.25838211997E+02 -0.14043758704E+02  0.32849024227E+02  0.00000000000E+00 0.  1.
</event>
<event>
 7    1  0.2740409E-010  0.4778727E+02  0.7816164E-02  0.1312668E+00
        -11   -1    0    0    0    0  0.00000000000E+00  0.00000000000E+00  0.45593999997E+02  0.45594000000E+02  0.51100000000E-03 0.  1.
         11   -1    0    0    0    0 -0.00000000000E+00 -0.00000000000E+00 -0.45593999997E+02  0.45594000000E+02  0.51100000000E-03 0. -1.
    9900012    2    1    2    0    0 -0.63571161534E+01 -0.35931426220E+02 -0.23497720939E+02  0.47787271834E+02  0.20000003601E+02 0.  0.
        -12    1    1    2    0    0  0.63571161534E+01  0.35931426220E+02  0.23497720939E+02  0.43400728166E+02  0.00000000000E+00 0.  1.
         11    1    3    3    0    0 -0.19355363654E+01 -0.76582953609E+01 -0.12322090703E+02  0.14636588005E+02  0.51100000000E-03 0. -1.
        -11    1    3    3    0    0 -0.50226723270E+01 -0.28480975208E+02 -0.12634012695E+02  0.31559649288E+02  0.51100000000E-03 0.  1.
        -12    1    3    3    0    0  0.60109253899E+00  0.20784434888E+00  0.14583824599E+01  0.15910345418E+01  0.00000000000E+00 0.  1.
</event>
<event>
 7    1  0.2740409E-010  0.4778728E+02  0.7816164E-02  0.1312668E+00
        -11   -1    0    0    0    0  0.00000000000E+00  0.00000000000E+00  0.45593999997E+02  0.45594000000E+02  0.51100000000E-03 0.  1.
         11   -1    0    0    0    0 -0.00000000000E+00 -0.00000000000E+00 -0.45593999997E+02  0.45594000000E+02  0.51100000000E-03 0. -1.
    9900012    2    1    2    0    0 -0.13484157428E+02 -0.35813404630E+02 -0.20474384534E+02  0.47787275642E+02  0.20000020962E+02 0.  0.
        -12    1    1    2    0    0  0.13484157428E+02  0.35813404630E+02  0.20474384534E+02  0.43400724358E+02  0.00000000000E+00 0.  1.
         11    1    3    3    0    0 -0.32084107172E+01 -0.18191109144E+01 -0.53565878015E+01  0.65035449553E+01  0.51100000000E-03 0. -1.
        -11    1    3    3    0    0 -0.19174556050E+01 -0.34110089189E+01  0.28505239848E+01  0.48411883966E+01  0.51100000000E-03 0.  1.
        -12    1    3    3    0    0 -0.83582911057E+01 -0.30583284797E+02 -0.17968320717E+02  0.36442542290E+02  0.00000000000E+00 0.  1.
</event>
<event>
 7    1  0.2740409E-010  0.4778727E+02  0.7816164E-02  0.1312668E+00
        -11   -1    0    0    0    0  0.00000000000E+00  0.00000000000E+00  0.45593999997E+02  0.45594000000E+02  0.51100000000E-03 0.  1.
         11   -1    0    0    0    0 -0.00000000000E+00 -0.00000000000E+00 -0.45593999997E+02  0.45594000000E+02  0.51100000000E-03 0. -1.
    9900012    2    1    2    0    0 -0.40762529771E+02 -0.97994892832E+01 -0.11225388237E+02  0.47787272303E+02  0.20000005738E+02 0.  0.
        -12    1    1    2    0    0  0.40762529771E+02  0.97994892832E+01  0.11225388237E+02  0.43400727697E+02  0.00000000000E+00 0.  1.
         11    1    3    3    0    0 -0.20341207033E+02 -0.71981615092E+01 -0.10659057675E+02  0.24066444346E+02  0.51100000000E-03 0. -1.
        -11    1    3    3    0    0 -0.11807922082E+01  0.32835354858E+01 -0.87751848275E+00  0.35980431451E+01  0.51100000000E-03 0.  1.
        -12    1    3    3    0    0 -0.19240530530E+02 -0.58848632598E+01  0.31118792102E+00  0.20122784812E+02  0.00000000000E+00 0.  1.
</event>
<event>
 7    1  0.2740409E-010  0.4778727E+02  0.7816164E-02  0.1312668E+00
        -11   -1    0    0    0    0  0.00000000000E+00  0.00000000000E+00  0.45593999997E+02  0.45594000000E+02  0.51100000000E-03 0.  1.
         11   -1    0    0    0    0 -0.00000000000E+00 -0.00000000000E+00 -0.45593999997E+02  0.45594000000E+02  0.51100000000E-03 0. -1.
    9900012    2    1    2    0    0  0.26065791107E+02  0.30998874200E+02 -0.15597038568E+02  0.47787270976E+02  0.19999999689E+02 0.  0.
        -12    1    1    2    0    0 -0.26065791107E+02 -0.30998874200E+02  0.15597038568E+02  0.43400729024E+02  0.00000000000E+00 0.  1.
         11    1    3    3    0    0  0.64091688208E+01  0.96777178142E+01 -0.54474913104E+01  0.12822278616E+02  0.51100000000E-03 0. -1.
        -11    1    3    3    0    0  0.63816738848E+01  0.17797853122E+02 -0.20453265756E+01  0.19017694350E+02  0.51100000000E-03 0.  1.
        -12    1    3    3    0    0  0.13274948402E+02  0.35233032631E+01 -0.81042206823E+01  0.15947298010E+02  0.00000000000E+00 0.  1.
</event>
<event>
 7    1  0.2740409E-010  0.4778727E+02  0.7816164E-02  0.1312668E+00
        -11   -1    0    0    0    0  0.00000000000E+00  0.00000000000E+00  0.45593999997E+02  0.45594000000E+02  0.51100000000E-03 0.  1.
         11   -1    0    0    0    0 -0.00000000000E+00 -0.00000000000E+00 -0.45593999997E+02  0.45594000000E+02  0.51100000000E-03 0. -1.
    9900012    2    1    2    0    0 -0.13295027270E+02 -0.20465523617E+02 -0.35889104872E+02  0.47787271256E+02  0.20000000963E+02 0.  0.
        -12    1    1    2    0    0  0.13295027270E+02  0.20465523617E+02  0.35889104872E+02  0.43400728744E+02  0.00000000000E+00 0.  1.
         11    1    3    3    0    0 -0.10996959820E+02 -0.57291037727E+01 -0.26425847388E+02  0.29190429353E+02  0.51100000000E-03 0. -1.
        -11    1    3    3    0    0 -0.26969358991E+01 -0.12547560214E+02 -0.10044295100E+02  0.16297318640E+02  0.51100000000E-03 0.  1.
         12    1    3    3    0    0  0.39886844908E+00 -0.21888596309E+01  0.58103761629E+00  0.22995232625E+01  0.00000000000E+00 0. -1.
</event>
<event>
 7    1  0.2740409E-010  0.4778727E+02  0.7816164E-02  0.1312668E+00
        -11   -1    0    0    0    0  0.00000000000E+00  0.00000000000E+00  0.45593999997E+02  0.45594000000E+02  0.51100000000E-03 0. -1.
         11   -1    0    0    0    0 -0.00000000000E+00 -0.00000000000E+00 -0.45593999997E+02  0.45594000000E+02  0.51100000000E-03 0.  1.
    9900012    2    1    2    0    0  0.11633942526E+02 -0.41774140738E+02  0.17876991250E+01  0.47787270498E+02  0.19999997510E+02 0.  0.
        -12    1    1    2    0    0 -0.11633942526E+02  0.41774140738E+02 -0.17876991250E+01  0.43400729502E+02  0.00000000000E+00 0.  1.
         11    1    3    3    0    0 -0.14588187714E+01 -0.60626608176E+01  0.64659826404E+01  0.89829249225E+01  0.51100000000E-03 0. -1.
        -11    1    3    3    0    0  0.25766955630E+01 -0.23250778774E+01 -0.97848416998E+00  0.36059365902E+01  0.51100000000E-03 0.  1.
         12    1    3    3    0    0  0.10516065735E+02 -0.33386402043E+02 -0.36997993454E+01  0.35198408986E+02  0.00000000000E+00 0. -1.
</event>
<event>
 7    1  0.2740409E-010  0.4778727E+02  0.7816164E-02  0.1312668E+00
        -11   -1    0    0    0    0  0.00000000000E+00  0.00000000000E+00  0.45593999997E+02  0.45594000000E+02  0.51100000000E-03 0. -1.
         11   -1    0    0    0    0 -0.00000000000E+00 -0.00000000000E+00 -0.45593999997E+02  0.45594000000E+02  0.51100000000E-03 0.  1.
    9900012    2    1    2    0    0  0.29517884237E+02  0.31527533911E+02  0.42816497724E+01  0.47787269487E+02  0.19999992897E+02 0.  0.
        -12    1    1    2    0    0 -0.29517884237E+02 -0.31527533911E+02 -0.42816497724E+01  0.43400730513E+02  0.00000000000E+00 0.  1.
         11    1    3    3    0    0  0.99543196171E+01  0.16787851347E+02  0.19488213154E+01  0.19614238111E+02  0.51100000000E-03 0. -1.
        -11    1    3    3    0    0  0.15733456106E+02  0.87535297106E+01 -0.42352995386E+01  0.18496045141E+02  0.51100000000E-03 0.  1.
        -12    1    3    3    0    0  0.38301085145E+01  0.59861528526E+01  0.65681279956E+01  0.96769862340E+01  0.00000000000E+00 0.  1.
</event>
<event>
 7    1  0.2740409E-010  0.4778729E+02  0.7816164E-02  0.1312668E+00
        -11   -1    0    0    0    0  0.00000000000E+00  0.00000000000E+00  0.45593999997E+02  0.45594000000E+02  0.51100000000E-03 0.  1.
         11   -1    0    0    0    0 -0.00000000000E+00 -0.00000000000E+00 -0.45593999997E+02  0.45594000000E+02  0.51100000000E-03 0. -1.
    9900012    2    1    2    0    0 -0.84279568384E+01  0.26240235954E+02 -0.33526728553E+02  0.47787286102E+02  0.20000068654E+02 0.  0.
        -12    1    1    2    0    0  0.84279568384E+01 -0.26240235954E+02  0.33526728553E+02  0.43400713898E+02  0.00000000000E+00 0.  1.
         11    1    3    3    0    0 -0.92172370329E+01  0.15539140717E+02 -0.25169054326E+02  0.30982311867E+02  0.51100000000E-03 0. -1.
        -11    1    3    3    0    0  0.51531706957E+01  0.68355203459E+01 -0.62767447321E+01  0.10614943773E+02  0.51100000000E-03 0.  1.
        -12    1    3    3    0    0 -0.43638905013E+01  0.38655748915E+01 -0.20809294949E+01  0.61900304613E+01  0.00000000000E+00 0.  1.
</event>
<event>
 7    1  0.2740409E-010  0.4778727E+02  0.7816164E-02  0.1312668E+00
        -11   -1    0    0    0    0  0.00000000000E+00  0.00000000000E+00  0.45593999997E+02  0.45594000000E+02  0.51100000000E-03 0.  1.
         11   -1    0    0    0    0 -0.00000000000E+00 -0.00000000000E+00 -0.45593999997E+02  0.45594000000E+02  0.51100000000E-03 0. -1.
    9900012    2    1    2    0    0 -0.36277373901E+02  0.46774975610E+01 -0.23360146406E+02  0.47787270966E+02  0.19999999640E+02 0.  0.
        -12    1    1    2    0    0  0.36277373901E+02 -0.46774975610E+01  0.23360146406E+02  0.43400729034E+02  0.00000000000E+00 0.  1.
         11    1    3    3    0    0 -0.18009102671E+02  0.38648899842E+01 -0.29430155079E+01  0.18652787839E+02  0.51100000000E-03 0. -1.
        -11    1    3    3    0    0 -0.17800626574E+02  0.34174189521E+01 -0.18130312155E+02  0.25636873402E+02  0.51100000000E-03 0.  1.
        -12    1    3    3    0    0 -0.46764465602E+00 -0.26048113753E+01 -0.22868187431E+01  0.34976097251E+01  0.00000000000E+00 0.  1.
</event>
<event>
 7    1  0.2740409E-010  0.4778726E+02  0.7816164E-02  0.1312668E+00
        -11   -1    0    0    0    0  0.00000000000E+00  0.00000000000E+00  0.45593999997E+02  0.45594000000E+02  0.51100000000E-03 0.  1.
         11   -1    0    0    0    0 -0.00000000000E+00 -0.00000000000E+00 -0.45593999997E+02  0.45594000000E+02  0.51100000000E-03 0. -1.
    9900012    2    1    2    0    0  0.39341248676E+02  0.62872568673E+01  0.17215138251E+02  0.47787257710E+02  0.19999939203E+02 0.  0.
        -12    1    1    2    0    0 -0.39341248676E+02 -0.62872568673E+01 -0.17215138251E+02  0.43400742290E+02  0.00000000000E+00 0.  1.
         11    1    3    3    0    0  0.26523244341E+02 -0.16578129181E+01  0.12505285139E+02  0.29370273930E+02  0.51100000000E-03 0.  1.
        -11    1    3    3    0    0  0.90816912248E+01  0.36553934461E+00  0.85596182019E+00  0.91292609456E+01  0.51100000000E-03 0. -1.
         12    1    3    3    0    0  0.37363131105E+01  0.75795304408E+01  0.38538912923E+01  0.92877228347E+01  0.00000000000E+00 0. -1.
</event>
<event>
 7    1  0.2740409E-010  0.4778727E+02  0.7816164E-02  0.1312668E+00
        -11   -1    0    0    0    0  0.00000000000E+00  0.00000000000E+00  0.45593999997E+02  0.45594000000E+02  0.51100000000E-03 0.  1.
         11   -1    0    0    0    0 -0.00000000000E+00 -0.00000000000E+00 -0.45593999997E+02  0.45594000000E+02  0.51100000000E-03 0. -1.
    9900012    2    1    2    0    0 -0.24388963569E+02 -0.23430340513E+02 -0.27199642922E+02  0.47787274480E+02  0.20000015665E+02 0.  0.
        -12    1    1    2    0    0  0.24388963569E+02  0.23430340513E+02  0.27199642922E+02  0.43400725520E+02  0.00000000000E+00 0.  1.
         11    1    3    3    0    0 -0.17921876793E+02 -0.15480103541E+02 -0.98334533301E+01  0.25642232315E+02  0.51100000000E-03 0. -1.
        -11    1    3    3    0    0 -0.49012284149E+01 -0.87562145351E+01 -0.17705666711E+02  0.20351510188E+02  0.51100000000E-03 0.  1.
        -12    1    3    3    0    0 -0.15658583618E+01  0.80597756359E+00  0.33947711898E+00  0.17935319781E+01  0.00000000000E+00 0.  1.
</event>
<event>
 7    1  0.2740409E-010  0.4778727E+02  0.7816164E-02  0.1312668E+00
        -11   -1    0    0    0    0  0.00000000000E+00  0.00000000000E+00  0.45593999997E+02  0.45594000000E+02  0.51100000000E-03 0. -1.
         11   -1    0    0    0    0 -0.00000000000E+00 -0.00000000000E+00 -0.45593999997E+02  0.45594000000E+02  0.51100000000E-03 0.  1.
    9900012    2    1    2    0    0  0.14167153921E+02 -0.40676614832E+02 -0.53224106594E+01  0.47787270748E+02  0.19999998649E+02 0.  0.
        -12    1    1    2    0    0 -0.14167153921E+02  0.40676614832E+02  0.53224106594E+01  0.43400729252E+02  0.00000000000E+00 0.  1.
         11    1    3    3    0    0  0.21232685511E+01  0.14646151926E+01 -0.13135523988E+00  0.25827546269E+01  0.51100000000E-03 0. -1.
        -11    1    3    3    0    0  0.19013924758E+01 -0.18044164285E+02  0.15342056961E+01  0.18208815048E+02  0.51100000000E-03 0.  1.
         12    1    3    3    0    0  0.10142492894E+02 -0.24097065740E+02 -0.67252611156E+01  0.26995701073E+02  0.00000000000E+00 0. -1.
</event>
<event>
 7    1  0.2740409E-010  0.4778727E+02  0.7816164E-02  0.1312668E+00
        -11   -1    0    0    0    0  0.00000000000E+00  0.00000000000E+00  0.45593999997E+02  0.45594000000E+02  0.51100000000E-03 0.  1.
         11   -1    0    0    0    0 -0.00000000000E+00 -0.00000000000E+00 -0.45593999997E+02  0.45594000000E+02  0.51100000000E-03 0. -1.
    9900012    2    1    2    0    0  0.11480798956E+02  0.22957151551E+00 -0.41854053684E+02  0.47787271233E+02  0.20000000860E+02 0.  0.
        -12    1    1    2    0    0 -0.11480798956E+02 -0.22957151551E+00  0.41854053684E+02  0.43400728767E+02  0.00000000000E+00 0.  1.
         11    1    3    3    0    0  0.12528163168E+02  0.32813259529E+01 -0.27690598067E+02  0.30569448702E+02  0.51100000000E-03 0. -1.
        -11    1    3    3    0    0  0.13405104441E+01 -0.58728574181E+01 -0.97542853617E+01  0.11464445285E+02  0.51100000000E-03 0.  1.
         12    1    3    3    0    0 -0.23878746563E+01  0.28211029807E+01 -0.44091702549E+01  0.57533772463E+01  0.00000000000E+00 0. -1.
</event>
<event>
 7    1  0.2740409E-010  0.4778727E+02  0.7816164E-02  0.1312668E+00
        -11   -1    0    0    0    0  0.00000000000E+00  0.00000000000E+00  0.45593999997E+02  0.45594000000E+02  0.51100000000E-03 0.  1.
         11   -1    0    0    0    0 -0.00000000000E+00 -0.00000000000E+00 -0.45593999997E+02  0.45594000000E+02  0.51100000000E-03 0. -1.
    9900012    2    1    2    0    0  0.20828281110E+02 -0.37837742632E+02 -0.42557083910E+01  0.47787272870E+02  0.20000008322E+02 0.  0.
        -12    1    1    2    0    0 -0.20828281110E+02  0.37837742632E+02  0.42557083910E+01  0.43400727130E+02  0.00000000000E+00 0.  1.
         11    1    3    3    0    0  0.14586158031E+02 -0.11520943532E+02  0.39165856484E+01  0.18995467601E+02  0.51100000000E-03 0. -1.
        -11    1    3    3    0    0  0.84594302251E+00 -0.11717973390E+02 -0.56060294020E+01  0.13017453126E+02  0.51100000000E-03 0.  1.
         12    1    3    3    0    0  0.53961800566E+01 -0.14598825711E+02 -0.25662646374E+01  0.15774352143E+02  0.00000000000E+00 0. -1.
</event>
<event>
 7    1  0.2740409E-010  0.4778727E+02  0.7816164E-02  0.1312668E+00
        -11   -1    0    0    0    0  0.00000000000E+00  0.00000000000E+00  0.45593999997E+02  0.45594000000E+02  0.51100000000E-03 0. -1.
         11   -1    0    0    0    0 -0.00000000000E+00 -0.00000000000E+00 -0.45593999997E+02  0.45594000000E+02  0.51100000000E-03 0.  1.
    9900012    2    1    2    0    0  0.11868468963E+02  0.40320988829E+02  0.10815773782E+02  0.47787266617E+02  0.19999979813E+02 0.  0.
        -12    1    1    2    0    0 -0.11868468963E+02 -0.40320988829E+02 -0.10815773782E+02  0.43400733383E+02  0.00000000000E+00 0.  1.
         11    1    3    3    0    0  0.78313515350E+01  0.33781728382E+02  0.11773920202E+02  0.36621857360E+02  0.51100000000E-03 0. -1.
        -11    1    3    3    0    0  0.55738436564E+01  0.55705299441E+01 -0.30004017056E+01  0.84321377847E+01  0.51100000000E-03 0.  1.
         12    1    3    3    0    0 -0.15367262285E+01  0.96873050384E+00  0.20422552852E+01  0.27332714721E+01  0.00000000000E+00 0. -1.
</event>
<event>
 7    1  0.2740409E-010  0.4778727E+02  0.7816164E-02  0.1312668E+00
        -11   -1    0    0    0    0  0.00000000000E+00  0.00000000000E+00  0.45593999997E+02  0.45594000000E+02  0.51100000000E-03 0. -1.
         11   -1    0    0    0    0 -0.00000000000E+00 -0.00000000000E+00 -0.45593999997E+02  0.45594000000E+02  0.51100000000E-03 0.  1.
    9900012    2    1    2    0    0 -0.29759409608E+02  0.12524810467E+02  0.29002235311E+02  0.47787274309E+02  0.20000014885E+02 0.  0.
        -12    1    1    2    0    0  0.29759409608E+02 -0.12524810467E+02 -0.29002235311E+02  0.43400725691E+02  0.00000000000E+00 0.  1.
         11    1    3    3    0    0 -0.18389157127E+02 -0.97092445901E+00  0.17534880511E+02  0.25427855375E+02  0.51100000000E-03 0. -1.
        -11    1    3    3    0    0 -0.12316162374E+02  0.12996272788E+02  0.11515873413E+02  0.21288642576E+02  0.51100000000E-03 0.  1.
         12    1    3    3    0    0  0.94590989336E+00  0.49946213877E+00 -0.48518613115E-01  0.10707763586E+01  0.00000000000E+00 0. -1.
</event>
<event>
 7    1  0.2740409E-010  0.4778727E+02  0.7816164E-02  0.1312668E+00
        -11   -1    0    0    0    0  0.00000000000E+00  0.00000000000E+00  0.45593999997E+02  0.45594000000E+02  0.51100000000E-03 0.  1.
         11   -1    0    0    0    0 -0.00000000000E+00 -0.00000000000E+00 -0.45593999997E+02  0.45594000000E+02  0.51100000000E-03 0. -1.
    9900012    2    1    2    0    0  0.64935325656E+01 -0.31280766905E+02 -0.29376365368E+02  0.47787272062E+02  0.20000004638E+02 0.  0.
        -12    1    1    2    0    0 -0.64935325656E+01  0.31280766905E+02  0.29376365368E+02  0.43400727938E+02  0.00000000000E+00 0.  1.
         11    1    3    3    0    0  0.39888148639E+01 -0.10723111164E+02 -0.20912372239E+02  0.23837430020E+02  0.51100000000E-03 0. -1.
        -11    1    3    3    0    0  0.26586751209E+01 -0.21343639538E+02 -0.85471494773E+01  0.23144616362E+02  0.51100000000E-03 0.  1.
        -12    1    3    3    0    0 -0.15395741923E+00  0.78598379691E+00  0.83156348401E-01  0.80522567906E+00  0.00000000000E+00 0.  1.
</event>
<event>
 7    1  0.2740409E-010  0.4778728E+02  0.7816164E-02  0.1312668E+00
        -11   -1    0    0    0    0  0.00000000000E+00  0.00000000000E+00  0.45593999997E+02  0.45594000000E+02  0.51100000000E-03 0.  1.
         11   -1    0    0    0    0 -0.00000000000E+00 -0.00000000000E+00 -0.45593999997E+02  0.45594000000E+02  0.51100000000E-03 0. -1.
    9900012    2    1    2    0    0  0.28077489841E+02  0.11904286961E+02 -0.30879852831E+02  0.47787276565E+02  0.20000025170E+02 0.  0.
        -12    1    1    2    0    0 -0.28077489841E+02 -0.11904286961E+02  0.30879852831E+02  0.43400723435E+02  0.00000000000E+00 0.  1.
         11    1    3    3    0    0  0.10887246522E+02  0.11550383531E+02 -0.20099715654E+02  0.25611365957E+02  0.51100000000E-03 0. -1.
        -11    1    3    3    0    0  0.14914099024E+02  0.27110224859E+01 -0.58330347497E+01  0.16242053049E+02  0.51100000000E-03 0.  1.
         12    1    3    3    0    0  0.22761442954E+01 -0.23571190561E+01 -0.49471024277E+01  0.59338575588E+01  0.00000000000E+00 0. -1.
</event>
<event>
 7    1  0.2740409E-010  0.4778727E+02  0.7816164E-02  0.1312668E+00
        -11   -1    0    0    0    0  0.00000000000E+00  0.00000000000E+00  0.45593999997E+02  0.45594000000E+02  0.51100000000E-03 0.  1.
         11   -1    0    0    0    0 -0.00000000000E+00 -0.00000000000E+00 -0.45593999997E+02  0.45594000000E+02  0.51100000000E-03 0. -1.
    9900012    2    1    2    0    0  0.38728536842E+02  0.19429218733E+02  0.24958166915E+01  0.47787271810E+02  0.20000003490E+02 0.  0.
        -12    1    1    2    0    0 -0.38728536842E+02 -0.19429218733E+02 -0.24958166915E+01  0.43400728190E+02  0.00000000000E+00 0.  1.
         11    1    3    3    0    0  0.11136765678E+02 -0.49349060611E+00 -0.27190962593E+01  0.11474518180E+02  0.51100000000E-03 0. -1.
        -11    1    3    3    0    0  0.15760000568E+02  0.44082670152E+01  0.34258560299E+01  0.16719656868E+02  0.51100000000E-03 0.  1.
         12    1    3    3    0    0  0.11831770596E+02  0.15514442324E+02  0.17890569210E+01  0.19593096762E+02  0.00000000000E+00 0. -1.
</event>
<event>
 7    1  0.2740409E-010  0.4778728E+02  0.7816164E-02  0.1312668E+00
        -11   -1    0    0    0    0  0.00000000000E+00  0.00000000000E+00  0.45593999997E+02  0.45594000000E+02  0.51100000000E-03 0.  1.
         11   -1    0    0    0    0 -0.00000000000E+00 -0.00000000000E+00 -0.45593999997E+02  0.45594000000E+02  0.51100000000E-03 0. -1.
    9900012    2    1    2    0    0 -0.23270168589E+02  0.19103423234E+02  0.31259893002E+02  0.47787280698E+02  0.20000044013E+02 0.  0.
        -12    1    1    2    0    0  0.23270168589E+02 -0.19103423234E+02 -0.31259893002E+02  0.43400719302E+02  0.00000000000E+00 0.  1.
         11    1    3    3    0    0 -0.11249682952E+01  0.76321466954E+00  0.74783288510E-01  0.13614856218E+01  0.51100000000E-03 0. -1.
        -11    1    3    3    0    0 -0.28637482095E+01  0.44711520542E+01 -0.19508870077E+01  0.56566964632E+01  0.51100000000E-03 0.  1.
        -12    1    3    3    0    0 -0.19281452085E+02  0.13869056510E+02  0.33135996721E+02  0.40769098613E+02  0.00000000000E+00 0.  1.
</event>
<event>
 7    1  0.2740409E-010  0.4778726E+02  0.7816164E-02  0.1312668E+00
        -11   -1    0    0    0    0  0.00000000000E+00  0.00000000000E+00  0.45593999997E+02  0.45594000000E+02  0.51100000000E-03 0. -1.
         11   -1    0    0    0    0 -0.00000000000E+00 -0.00000000000E+00 -0.45593999997E+02  0.45594000000E+02  0.51100000000E-03 0.  1.
    9900012    2    1    2    0    0  0.22033384252E+02 -0.97868450906E+01  0.36088393337E+02  0.47787257010E+02  0.19999936012E+02 0.  0.
        -12    1    1    2    0    0 -0.22033384252E+02  0.97868450906E+01 -0.36088393337E+02  0.43400742990E+02  0.00000000000E+00 0.  1.
         11    1    3    3    0    0  0.10944638415E+02 -0.12682746157E+02  0.16004490462E+02  0.23168532007E+02  0.51100000000E-03 0. -1.
        -11    1    3    3    0    0  0.39354764035E+01 -0.24141323122E+01  0.10832088857E+02  0.11774980196E+02  0.51100000000E-03 0.  1.
         12    1    3    3    0    0  0.71532694340E+01  0.53100333787E+01  0.92518140177E+01  0.12843744808E+02  0.00000000000E+00 0. -1.
</event>
<event>
 7    1  0.2740409E-010  0.4778727E+02  0.7816164E-02  0.1312668E+00
        -11   -1    0    0    0    0  0.00000000000E+00  0.00000000000E+00  0.45593999997E+02  0.45594000000E+02  0.51100000000E-03 0. -1.
         11   -1    0    0    0    0 -0.00000000000E+00 -0.00000000000E+00 -0.45593999997E+02  0.45594000000E+02  0.51100000000E-03 0.  1.
    9900012    2    1    2    0    0  0.25244275582E+02  0.66067110674E+01  0.34679981956E+02  0.47787271559E+02  0.20000002345E+02 0.  0.
        -12    1    1    2    0    0 -0.25244275582E+02 -0.66067110674E+01 -0.34679981956E+02  0.43400728441E+02  0.00000000000E+00 0.  1.
         11    1    3    3    0    0  0.20785734051E+02  0.55884243103E+01  0.21003403265E+02  0.30073579356E+02  0.51100000000E-03 0. -1.
        -11    1    3    3    0    0 -0.12017837620E+01 -0.87882812587E-01 -0.12351006444E+01  0.17255380211E+01  0.51100000000E-03 0.  1.
        -12    1    3    3    0    0  0.56603252928E+01  0.11061695697E+01  0.14911679335E+02  0.15988154182E+02  0.00000000000E+00 0.  1.
</event>
<event>
 7    1  0.2740409E-010  0.4778726E+02  0.7816164E-02  0.1312668E+00
        -11   -1    0    0    0    0  0.00000000000E+00  0.00000000000E+00  0.45593999997E+02  0.45594000000E+02  0.51100000000E-03 0. -1.
         11   -1    0    0    0    0 -0.00000000000E+00 -0.00000000000E+00 -0.45593999997E+02  0.45594000000E+02  0.51100000000E-03 0.  1.
    9900012    2    1    2    0    0  0.48277480729E+01  0.42641557348E+02  0.64818414016E+01  0.47787264609E+02  0.19999970658E+02 0.  0.
        -12    1    1    2    0    0 -0.48277480729E+01 -0.42641557348E+02 -0.64818414016E+01  0.43400735391E+02  0.00000000000E+00 0.  1.
         11    1    3    3    0    0 -0.11008086599E+01  0.10034817847E+02  0.45729545384E+01  0.11082475464E+02  0.51100000000E-03 0. -1.
        -11    1    3    3    0    0  0.88051025828E+01  0.16416466010E+02  0.63337191400E+01  0.19676030752E+02  0.51100000000E-03 0.  1.
        -12    1    3    3    0    0 -0.28765458499E+01  0.16190273491E+02 -0.44248322769E+01  0.17028758393E+02  0.00000000000E+00 0.  1.
</event>
<event>
 7    1  0.2740409E-010  0.4778727E+02  0.7816164E-02  0.1312668E+00
        -11   -1    0    0    0    0  0.00000000000E+00  0.00000000000E+00  0.45593999997E+02  0.45594000000E+02  0.51100000000E-03 0. -1.
         11   -1    0    0    0    0 -0.00000000000E+00 -0.00000000000E+00 -0.45593999997E+02  0.45594000000E+02  0.51100000000E-03 0.  1.
    9900012    2    1    2    0    0 -0.37455500791E+02 -0.20040540966E+02  0.88930164625E+01  0.47787267708E+02  0.19999984787E+02 0.  0.
        -12    1    1    2    0    0  0.37455500791E+02  0.20040540966E+02 -0.88930164625E+01  0.43400732292E+02  0.00000000000E+00 0.  1.
         11    1    3    3    0    0 -0.24776367252E+01 -0.58531259607E+00  0.44949804615E+01  0.51658614178E+01  0.51100000000E-03 0. -1.
        -11    1    3    3    0    0 -0.34434171909E+02 -0.16223182704E+02  0.12621585163E+01  0.38085389541E+02  0.51100000000E-03 0.  1.
        -12    1    3    3    0    0 -0.54369215651E+00 -0.32320456656E+01  0.31358774848E+01  0.45360167487E+01  0.00000000000E+00 0.  1.
</event>
<event>
 7    1  0.2740409E-010  0.4778728E+02  0.7816164E-02  0.1312668E+00
        -11   -1    0    0    0    0  0.00000000000E+00  0.00000000000E+00  0.45593999997E+02  0.45594000000E+02  0.51100000000E-03 0.  1.
         11   -1    0    0    0    0 -0.00000000000E+00 -0.00000000000E+00 -0.45593999997E+02  0.45594000000E+02  0.51100000000E-03 0. -1.
    9900012    2    1    2    0    0 -0.20650521453E+02  0.27980127682E+02 -0.25967118250E+02  0.47787276370E+02  0.20000024283E+02 0.  0.
        -12    1    1    2    0    0  0.20650521453E+02 -0.27980127682E+02  0.25967118250E+02  0.43400723630E+02  0.00000000000E+00 0.  1.
         11    1    3    3    0    0  0.19032526490E+01 -0.38801424295E+00 -0.51005636721E+01  0.54579003044E+01  0.51100000000E-03 0. -1.
        -11    1    3    3    0    0 -0.11324110149E+02  0.17861151449E+02 -0.93839624546E+01  0.23136874321E+02  0.51100000000E-03 0.  1.
        -12    1    3    3    0    0 -0.11229663953E+02  0.10506990476E+02 -0.11482592123E+02  0.19192501745E+02  0.00000000000E+00 0.  1.
</event>
<event>
 7    1  0.2740409E-010  0.4778727E+02  0.7816164E-02  0.1312668E+00
        -11   -1    0    0    0    0  0.00000000000E+00  0.00000000000E+00  0.45593999997E+02  0.45594000000E+02  0.51100000000E-03 0.  1.
         11   -1    0    0    0    0 -0.00000000000E+00 -0.00000000000E+00 -0.45593999997E+02  0.45594000000E+02  0.51100000000E-03 0. -1.
    9900012    2    1    2    0    0 -0.18126725991E+01 -0.38194655530E+02 -0.20530607010E+02  0.47787270546E+02  0.19999997726E+02 0.  0.
        -12    1    1    2    0    0  0.18126725991E+01  0.38194655530E+02  0.20530607010E+02  0.43400729454E+02  0.00000000000E+00 0.  1.
         11    1    3    3    0    0 -0.17538122356E+01 -0.22243859437E+02 -0.16053551400E+02  0.27487845547E+02  0.51100000000E-03 0. -1.
        -11    1    3    3    0    0  0.14360288536E+01 -0.14789838311E+02  0.60974648489E+00  0.14871895884E+02  0.51100000000E-03 0.  1.
         12    1    3    3    0    0 -0.14948892171E+01 -0.11609577815E+01 -0.50868020945E+01  0.54275291147E+01  0.00000000000E+00 0. -1.
</event>
<event>
 7    1  0.2740409E-010  0.4778727E+02  0.7816164E-02  0.1312668E+00
        -11   -1    0    0    0    0  0.00000000000E+00  0.00000000000E+00  0.45593999997E+02  0.45594000000E+02  0.51100000000E-03 0.  1.
         11   -1    0    0    0    0 -0.00000000000E+00 -0.00000000000E+00 -0.45593999997E+02  0.45594000000E+02  0.51100000000E-03 0. -1.
    9900012    2    1    2    0    0  0.27434049181E+02 -0.13501572498E+02 -0.30801036079E+02  0.47787270306E+02  0.19999996635E+02 0.  0.
        -12    1    1    2    0    0 -0.27434049181E+02  0.13501572498E+02  0.30801036079E+02  0.43400729694E+02  0.00000000000E+00 0.  1.
         11    1    3    3    0    0  0.11866312736E+02 -0.16712899870E+01 -0.19588815995E+02  0.22963542857E+02  0.51100000000E-03 0. -1.
        -11    1    3    3    0    0  0.15902246593E+02 -0.72095275323E+01 -0.81372691249E+01  0.19263278096E+02  0.51100000000E-03 0.  1.
        -12    1    3    3    0    0 -0.33451014795E+00 -0.46207549790E+01 -0.30749509587E+01  0.55604493535E+01  0.00000000000E+00 0.  1.
</event>
<event>
 7    1  0.2740409E-010  0.4778727E+02  0.7816164E-02  0.1312668E+00
        -11   -1    0    0    0    0  0.00000000000E+00  0.00000000000E+00  0.45593999997E+02  0.45594000000E+02  0.51100000000E-03 0.  1.
         11   -1    0    0    0    0 -0.00000000000E+00 -0.00000000000E+00 -0.45593999997E+02  0.45594000000E+02  0.51100000000E-03 0. -1.
    9900012    2    1    2    0    0  0.37705603754E+02 -0.15767368775E+02 -0.14604810433E+02  0.47787274657E+02  0.20000016471E+02 0.  0.
        -12    1    1    2    0    0 -0.37705603754E+02  0.15767368775E+02  0.14604810433E+02  0.43400725343E+02  0.00000000000E+00 0.  1.
         11    1    3    3    0    0  0.25394359254E+02 -0.12603783248E+02 -0.17348250574E+02  0.33236886622E+02  0.51100000000E-03 0. -1.
        -11    1    3    3    0    0  0.46342866739E+00  0.48853199647E+00  0.20223450293E+01  0.21315040043E+01  0.51100000000E-03 0.  1.
         12    1    3    3    0    0  0.11847815833E+02 -0.36521175234E+01  0.72109511189E+00  0.12418884031E+02  0.00000000000E+00 0. -1.
</event>
<event>
 7    1  0.2740409E-010  0.4778727E+02  0.7816164E-02  0.1312668E+00
        -11   -1    0    0    0    0  0.00000000000E+00  0.00000000000E+00  0.45593999997E+02  0.45594000000E+02  0.51100000000E-03 0.  1.
         11   -1    0    0    0    0 -0.00000000000E+00 -0.00000000000E+00 -0.45593999997E+02  0.45594000000E+02  0.51100000000E-03 0. -1.
    9900012    2    1    2    0    0 -0.45443086094E+00 -0.54729871596E+01 -0.43051865520E+02  0.47787271658E+02  0.20000002796E+02 0.  0.
        -12    1    1    2    0    0  0.45443086094E+00  0.54729871596E+01  0.43051865520E+02  0.43400728342E+02  0.00000000000E+00 0.  1.
         11    1    3    3    0    0 -0.82568570110E+01 -0.34581542851E+01 -0.26311203175E+02  0.27792335842E+02  0.51100000000E-03 0. -1.
        -11    1    3    3    0    0 -0.95418887064E+00  0.11189393814E+01 -0.36649348342E+01  0.39489554746E+01  0.51100000000E-03 0.  1.
         12    1    3    3    0    0  0.87566150206E+01 -0.31337722559E+01 -0.13075727511E+02  0.16045980342E+02  0.00000000000E+00 0. -1.
</event>
<event>
 7    1  0.2740409E-010  0.4778726E+02  0.7816164E-02  0.1312668E+00
        -11   -1    0    0    0    0  0.00000000000E+00  0.00000000000E+00  0.45593999997E+02  0.45594000000E+02  0.51100000000E-03 0. -1.
         11   -1    0    0    0    0 -0.00000000000E+00 -0.00000000000E+00 -0.45593999997E+02  0.45594000000E+02  0.51100000000E-03 0.  1.
    9900012    2    1    2    0    0 -0.21328567323E+02 -0.17182329881E+02  0.33667249046E+02  0.47787263802E+02  0.19999966980E+02 0.  0.
        -12    1    1    2    0    0  0.21328567323E+02  0.17182329881E+02 -0.33667249046E+02  0.43400736198E+02  0.00000000000E+00 0.  1.
         11    1    3    3    0    0 -0.47274334611E+01 -0.67257550453E+01  0.10232667439E+02  0.13126000581E+02  0.51100000000E-03 0. -1.
        -11    1    3    3    0    0 -0.84993395008E+01 -0.10946353629E+02  0.22588129100E+02  0.26500660487E+02  0.51100000000E-03 0.  1.
        -12    1    3    3    0    0 -0.81017943615E+01  0.48977879350E+00  0.84645250564E+00  0.81606027343E+01  0.00000000000E+00 0.  1.
</event>
<event>
 7    1  0.2740409E-010  0.4778728E+02  0.7816164E-02  0.1312668E+00
        -11   -1    0    0    0    0  0.00000000000E+00  0.00000000000E+00  0.45593999997E+02  0.45594000000E+02  0.51100000000E-03 0.  1.
         11   -1    0    0    0    0 -0.00000000000E+00 -0.00000000000E+00 -0.45593999997E+02  0.45594000000E+02  0.51100000000E-03 0. -1.
    9900012    2    1    2    0    0 -0.20602859189E+02  0.21513353310E+02 -0.31564547714E+02  0.47787275930E+02  0.20000022276E+02 0.  0.
        -12    1    1    2    0    0  0.20602859189E+02 -0.21513353310E+02  0.31564547714E+02  0.43400724070E+02  0.00000000000E+00 0.  1.
         11    1    3    3    0    0 -0.21246941225E+02  0.11047520635E+02 -0.23922661326E+02  0.33849282840E+02  0.51100000000E-03 0. -1.
        -11    1    3    3    0    0  0.13602538867E+01  0.22726983112E+01  0.89500980625E-01  0.26501809253E+01  0.51100000000E-03 0.  1.
         12    1    3    3    0    0 -0.71617185042E+00  0.81931343637E+01 -0.77313873685E+01  0.11287812165E+02  0.00000000000E+00 0. -1.
</event>
<event>
 7    1  0.2740409E-010  0.4778727E+02  0.7816164E-02  0.1312668E+00
        -11   -1    0    0    0    0  0.00000000000E+00  0.00000000000E+00  0.45593999997E+02  0.45594000000E+02  0.51100000000E-03 0. -1.
         11   -1    0    0    0    0 -0.00000000000E+00 -0.00000000000E+00 -0.45593999997E+02  0.45594000000E+02  0.51100000000E-03 0.  1.
    9900012    2    1    2    0    0  0.13234665706E+02 -0.32241253857E+02  0.25864417850E+02  0.47787274922E+02  0.20000017678E+02 0.  0.
        -12    1    1    2    0    0 -0.13234665706E+02  0.32241253857E+02 -0.25864417850E+02  0.43400725078E+02  0.00000000000E+00 0.  1.
         11    1    3    3    0    0  0.60885564252E+01 -0.17992149383E+02  0.19112021087E+02  0.26945450619E+02  0.51100000000E-03 0. -1.
        -11    1    3    3    0    0 -0.21674538948E+00 -0.89938659792E+01 -0.83499694806E+00  0.90351438273E+01  0.51100000000E-03 0.  1.
        -12    1    3    3    0    0  0.73628546705E+01 -0.52552384949E+01  0.75873937110E+01  0.11806680476E+02  0.00000000000E+00 0.  1.
</event>
<event>
 7    1  0.2740409E-010  0.4778727E+02  0.7816164E-02  0.1312668E+00
        -11   -1    0    0    0    0  0.00000000000E+00  0.00000000000E+00  0.45593999997E+02  0.45594000000E+02  0.51100000000E-03 0.  1.
         11   -1    0    0    0    0 -0.00000000000E+00 -0.00000000000E+00 -0.45593999997E+02  0.45594000000E+02  0.51100000000E-03 0. -1.
    9900012    2    1    2    0    0 -0.26217827910E+02  0.31674539626E+02 -0.13891448789E+02  0.47787270625E+02  0.19999998086E+02 0.  0.
        -12    1    1    2    0    0  0.26217827910E+02 -0.31674539626E+02  0.13891448789E+02  0.43400729375E+02  0.00000000000E+00 0.  1.
         11    1    3    3    0    0 -0.52657810365E+01  0.76298058936E+00 -0.63227441628E+01  0.82636362041E+01  0.51100000000E-03 0. -1.
        -11    1    3    3    0    0 -0.16890068902E+02  0.26212665835E+02 -0.21094481674E+01  0.31254248503E+02  0.51100000000E-03 0.  1.
         12    1    3    3    0    0 -0.40619779717E+01  0.46988932019E+01 -0.54592564587E+01  0.82693859171E+01  0.00000000000E+00 0. -1.
</event>
<event>
 7    1  0.2740409E-010  0.4778727E+02  0.7816164E-02  0.1312668E+00
        -11   -1    0    0    0    0  0.00000000000E+00  0.00000000000E+00  0.45593999997E+02  0.45594000000E+02  0.51100000000E-03 0.  1.
         11   -1    0    0    0    0 -0.00000000000E+00 -0.00000000000E+00 -0.45593999997E+02  0.45594000000E+02  0.51100000000E-03 0. -1.
    9900012    2    1    2    0    0  0.34684002461E+02 -0.14196300546E+02 -0.21888548315E+02  0.47787268172E+02  0.19999986903E+02 0.  0.
        -12    1    1    2    0    0 -0.34684002461E+02  0.14196300546E+02  0.21888548315E+02  0.43400731828E+02  0.00000000000E+00 0.  1.
         11    1    3    3    0    0  0.23842954906E+02 -0.22636443858E+01 -0.86170401733E+01  0.25453172026E+02  0.51100000000E-03 0. -1.
        -11    1    3    3    0    0  0.35376929665E+00 -0.26991735559E+01 -0.59860630162E+01  0.65759897579E+01  0.51100000000E-03 0.  1.
         12    1    3    3    0    0  0.10487278258E+02 -0.92334826048E+01 -0.72854451251E+01  0.15758106388E+02  0.00000000000E+00 0. -1.
</event>
<event>
 7    1  0.2740409E-010  0.4778727E+02  0.7816164E-02  0.1312668E+00
        -11   -1    0    0    0    0  0.00000000000E+00  0.00000000000E+00  0.45593999997E+02  0.45594000000E+02  0.51100000000E-03 0.  1.
         11   -1    0    0    0    0 -0.00000000000E+00 -0.00000000000E+00 -0.45593999997E+02  0.45594000000E+02  0.51100000000E-03 0. -1.
    9900012    2    1    2    0    0  0.15593405339E+02  0.36659463542E+02  0.17220719214E+02  0.47787265819E+02  0.19999976173E+02 0.  0.
        -12    1    1    2    0    0 -0.15593405339E+02 -0.36659463542E+02 -0.17220719214E+02  0.43400734181E+02  0.00000000000E+00 0.  1.
         11    1    3    3    0    0  0.15315534826E+01  0.17483522282E+02  0.56911788989E+01  0.18450168698E+02  0.51100000000E-03 0. -1.
        -11    1    3    3    0    0  0.16352676665E+02  0.15192572335E+02  0.10284379928E+02  0.24576264139E+02  0.51100000000E-03 0.  1.
         12    1    3    3    0    0 -0.22908248082E+01  0.39833689245E+01  0.12451603865E+01  0.47608329816E+01  0.00000000000E+00 0. -1.
</event>
<event>
 7    1  0.2740409E-010  0.4778725E+02  0.7816164E-02  0.1312668E+00
        -11   -1    0    0    0    0  0.00000000000E+00  0.00000000000E+00  0.45593999997E+02  0.45594000000E+02  0.51100000000E-03 0.  1.
         11   -1    0    0    0    0 -0.00000000000E+00 -0.00000000000E+00 -0.45593999997E+02  0.45594000000E+02  0.51100000000E-03 0. -1.
    9900012    2    1    2    0    0 -0.28212969793E+02 -0.28689077118E+02 -0.16266223798E+02  0.47787252920E+02  0.19999917363E+02 0.  0.
        -12    1    1    2    0    0  0.28212969793E+02  0.28689077118E+02  0.16266223798E+02  0.43400747080E+02  0.00000000000E+00 0.  1.
         11    1    3    3    0    0 -0.82736252161E+01 -0.13650090387E+02 -0.93770628653E+00  0.15989281883E+02  0.51100000000E-03 0. -1.
        -11    1    3    3    0    0 -0.17286465218E+01  0.13245439705E+01 -0.45569958492E+01  0.50506283726E+01  0.51100000000E-03 0.  1.
         12    1    3    3    0    0 -0.18210698055E+02 -0.16363530702E+02 -0.10771521663E+02  0.26747342664E+02  0.00000000000E+00 0. -1.
</event>
<event>
 7    1  0.2740409E-010  0.4778727E+02  0.7816164E-02  0.1312668E+00
        -11   -1    0    0    0    0  0.00000000000E+00  0.00000000000E+00  0.45593999997E+02  0.45594000000E+02  0.51100000000E-03 0.  1.
         11   -1    0    0    0    0 -0.00000000000E+00 -0.00000000000E+00 -0.45593999997E+02  0.45594000000E+02  0.51100000000E-03 0. -1.
    9900012    2    1    2    0    0  0.27665116229E+01  0.15904668968E+02 -0.40286612829E+02  0.47787271265E+02  0.20000001004E+02 0.  0.
        -12    1    1    2    0    0 -0.27665116229E+01 -0.15904668968E+02  0.40286612829E+02  0.43400728735E+02  0.00000000000E+00 0.  1.
         11    1    3    3    0    0 -0.61393892514E+00  0.17798408097E+01  0.19061789916E+01  0.26792299119E+01  0.51100000000E-03 0.  1.
        -11    1    3    3    0    0  0.19695538948E+01  0.59314389999E+01 -0.27732669514E+02  0.28428191462E+02  0.51100000000E-03 0. -1.
        -12    1    3    3    0    0  0.14108966532E+01  0.81933891585E+01 -0.14460122306E+02  0.16679849891E+02  0.00000000000E+00 0.  1.
</event>
<event>
 7    1  0.2740409E-010  0.4778727E+02  0.7816164E-02  0.1312668E+00
        -11   -1    0    0    0    0  0.00000000000E+00  0.00000000000E+00  0.45593999997E+02  0.45594000000E+02  0.51100000000E-03 0.  1.
         11   -1    0    0    0    0 -0.00000000000E+00 -0.00000000000E+00 -0.45593999997E+02  0.45594000000E+02  0.51100000000E-03 0. -1.
    9900012    2    1    2    0    0 -0.12035844515E+02  0.32176779647E+02 -0.26521995453E+02  0.47787274839E+02  0.20000017301E+02 0.  0.
        -12    1    1    2    0    0  0.12035844515E+02 -0.32176779647E+02  0.26521995453E+02  0.43400725161E+02  0.00000000000E+00 0.  1.
         11    1    3    3    0    0  0.35048132871E+01  0.51635926145E+01 -0.33862015779E+01  0.71001948039E+01  0.51100000000E-03 0. -1.
        -11    1    3    3    0    0  0.52957832040E+00  0.26552923328E+00 -0.40839311583E+01  0.41266757733E+01  0.51100000000E-03 0.  1.
         12    1    3    3    0    0 -0.16070236123E+02  0.26747657800E+02 -0.19051862717E+02  0.36560404262E+02  0.00000000000E+00 0. -1.
</event>
<event>
 7    1  0.2740409E-010  0.4778727E+02  0.7816164E-02  0.1312668E+00
        -11   -1    0    0    0    0  0.00000000000E+00  0.00000000000E+00  0.45593999997E+02  0.45594000000E+02  0.51100000000E-03 0. -1.
         11   -1    0    0    0    0 -0.00000000000E+00 -0.00000000000E+00 -0.45593999997E+02  0.45594000000E+02  0.51100000000E-03 0.  1.
    9900012    2    1    2    0    0  0.57323240653E+01 -0.25937269199E+02  0.34322324263E+02  0.47787269412E+02  0.19999992559E+02 0.  0.
        -12    1    1    2    0    0 -0.57323240653E+01  0.25937269199E+02 -0.34322324263E+02  0.43400730588E+02  0.00000000000E+00 0.  1.
         11    1    3    3    0    0  0.21646978481E+00 -0.13026078162E+02  0.19225788570E+02  0.23224050419E+02  0.51100000000E-03 0. -1.
        -11    1    3    3    0    0 -0.18637598981E+01  0.15078731264E+01 -0.34449091233E-01  0.23975965724E+01  0.51100000000E-03 0.  1.
        -12    1    3    3    0    0  0.73796141786E+01 -0.14419064163E+02  0.15130984785E+02  0.22165622421E+02  0.00000000000E+00 0.  1.
</event>
<event>
 7    1  0.2740409E-010  0.4778727E+02  0.7816164E-02  0.1312668E+00
        -11   -1    0    0    0    0  0.00000000000E+00  0.00000000000E+00  0.45593999997E+02  0.45594000000E+02  0.51100000000E-03 0.  1.
         11   -1    0    0    0    0 -0.00000000000E+00 -0.00000000000E+00 -0.45593999997E+02  0.45594000000E+02  0.51100000000E-03 0. -1.
    9900012    2    1    2    0    0  0.98039808815E+01 -0.14262515576E+02 -0.39800578349E+02  0.47787269262E+02  0.19999991874E+02 0.  0.
        -12    1    1    2    0    0 -0.98039808815E+01  0.14262515576E+02  0.39800578349E+02  0.43400730738E+02  0.00000000000E+00 0.  1.
         11    1    3    3    0    0  0.35825065058E+01 -0.53916850695E+01 -0.26953736582E+02  0.27720182842E+02  0.51100000000E-03 0.  1.
        -11    1    3    3    0    0  0.86824441372E+01 -0.40863370139E+01 -0.58418697855E+01  0.11234341513E+02  0.51100000000E-03 0. -1.
        -12    1    3    3    0    0 -0.24609697615E+01 -0.47844934925E+01 -0.70049719807E+01  0.88327449073E+01  0.00000000000E+00 0.  1.
</event>
<event>
 7    1  0.2740409E-010  0.4778727E+02  0.7816164E-02  0.1312668E+00
        -11   -1    0    0    0    0  0.00000000000E+00  0.00000000000E+00  0.45593999997E+02  0.45594000000E+02  0.51100000000E-03 0.  1.
         11   -1    0    0    0    0 -0.00000000000E+00 -0.00000000000E+00 -0.45593999997E+02  0.45594000000E+02  0.51100000000E-03 0. -1.
    9900012    2    1    2    0    0  0.65099913877E+01 -0.16543947307E+02 -0.39592183925E+02  0.47787271799E+02  0.20000003441E+02 0.  0.
        -12    1    1    2    0    0 -0.65099913877E+01  0.16543947307E+02  0.39592183925E+02  0.43400728201E+02  0.00000000000E+00 0.  1.
         11    1    3    3    0    0  0.67897053050E+00 -0.15094672166E+02 -0.23677016496E+02  0.28087563782E+02  0.51100000000E-03 0. -1.
        -11    1    3    3    0    0  0.35788105236E+01  0.71346230140E+00 -0.16160695997E+02  0.16567589100E+02  0.51100000000E-03 0.  1.
        -12    1    3    3    0    0  0.22522103337E+01 -0.21627374423E+01  0.24552856795E+00  0.31321189168E+01  0.00000000000E+00 0.  1.
</event>
<event>
 7    1  0.2740409E-010  0.4778727E+02  0.7816164E-02  0.1312668E+00
        -11   -1    0    0    0    0  0.00000000000E+00  0.00000000000E+00  0.45593999997E+02  0.45594000000E+02  0.51100000000E-03 0. -1.
         11   -1    0    0    0    0 -0.00000000000E+00 -0.00000000000E+00 -0.45593999997E+02  0.45594000000E+02  0.51100000000E-03 0.  1.
    9900012    2    1    2    0    0  0.25034634598E+01 -0.24668127605E+02  0.35620770651E+02  0.47787272464E+02  0.20000006474E+02 0.  0.
        -12    1    1    2    0    0 -0.25034634598E+01  0.24668127605E+02 -0.35620770651E+02  0.43400727536E+02  0.00000000000E+00 0.  1.
         11    1    3    3    0    0  0.84385138851E+01 -0.96474337963E+01  0.12718376784E+02  0.18056539085E+02  0.51100000000E-03 0. -1.
        -11    1    3    3    0    0 -0.53467711542E+01 -0.65463941087E+01  0.47659218067E+01  0.97034657999E+01  0.51100000000E-03 0.  1.
         12    1    3    3    0    0 -0.58827927110E+00 -0.84742997004E+01  0.18136472060E+02  0.20027267579E+02  0.00000000000E+00 0. -1.
</event>
<event>
 7    1  0.2740409E-010  0.4778729E+02  0.7816164E-02  0.1312668E+00
        -11   -1    0    0    0    0  0.00000000000E+00  0.00000000000E+00  0.45593999997E+02  0.45594000000E+02  0.51100000000E-03 0.  1.
         11   -1    0    0    0    0 -0.00000000000E+00 -0.00000000000E+00 -0.45593999997E+02  0.45594000000E+02  0.51100000000E-03 0. -1.
    9900012    2    1    2    0    0  0.30339335698E+02 -0.51156232456E+01 -0.30610079845E+02  0.47787287104E+02  0.20000073222E+02 0.  0.
        -12    1    1    2    0    0 -0.30339335698E+02  0.51156232456E+01  0.30610079845E+02  0.43400712896E+02  0.00000000000E+00 0.  1.
         11    1    3    3    0    0  0.67191754505E+00 -0.58052645059E+01 -0.73517237048E+01  0.93915073797E+01  0.51100000000E-03 0. -1.
        -11    1    3    3    0    0  0.56857041366E+01 -0.11494538070E+01 -0.81094534285E+01  0.99705421494E+01  0.51100000000E-03 0.  1.
         12    1    3    3    0    0  0.23981714016E+02  0.18390950673E+01 -0.15148902712E+02  0.28425237575E+02  0.00000000000E+00 0. -1.
</event>
<event>
 7    1  0.2740409E-010  0.4778727E+02  0.7816164E-02  0.1312668E+00
        -11   -1    0    0    0    0  0.00000000000E+00  0.00000000000E+00  0.45593999997E+02  0.45594000000E+02  0.51100000000E-03 0. -1.
         11   -1    0    0    0    0 -0.00000000000E+00 -0.00000000000E+00 -0.45593999997E+02  0.45594000000E+02  0.51100000000E-03 0.  1.
    9900012    2    1    2    0    0 -0.27761577368E+02 -0.31832707768E+02  0.99798049100E+01  0.47787274570E+02  0.20000016074E+02 0.  0.
        -12    1    1    2    0    0  0.27761577368E+02  0.31832707768E+02 -0.99798049100E+01  0.43400725430E+02  0.00000000000E+00 0.  1.
         11    1    3    3    0    0 -0.20009885819E+02 -0.18996079630E+02 -0.26142406138E+01  0.27714271162E+02  0.51100000000E-03 0.  1.
        -11    1    3    3    0    0 -0.77146158086E+01 -0.12916305636E+02  0.11400884339E+02  0.18876610192E+02  0.51100000000E-03 0. -1.
         12    1    3    3    0    0 -0.37075740647E-01  0.79677498086E-01  0.11931611848E+01  0.11963932160E+01  0.00000000000E+00 0. -1.
</event>
<event>
 7    1  0.2740409E-010  0.4778727E+02  0.7816164E-02  0.1312668E+00
        -11   -1    0    0    0    0  0.00000000000E+00  0.00000000000E+00  0.45593999997E+02  0.45594000000E+02  0.51100000000E-03 0.  1.
         11   -1    0    0    0    0 -0.00000000000E+00 -0.00000000000E+00 -0.45593999997E+02  0.45594000000E+02  0.51100000000E-03 0. -1.
    9900012    2    1    2    0    0 -0.90859550134E+01 -0.25790408228E+02 -0.33703465189E+02  0.47787270734E+02  0.19999998586E+02 0.  0.
        -12    1    1    2    0    0  0.90859550134E+01  0.25790408228E+02  0.33703465189E+02  0.43400729266E+02  0.00000000000E+00 0.  1.
         11    1    3    3    0    0 -0.12762230459E+01 -0.18357533044E+02 -0.24867153098E+02  0.30935466186E+02  0.51100000000E-03 0. -1.
        -11    1    3    3    0    0 -0.34169135549E+01 -0.38818075462E+01  0.12238795626E+01  0.53142835371E+01  0.51100000000E-03 0.  1.
         12    1    3    3    0    0 -0.43928184125E+01 -0.35510676379E+01 -0.10060191653E+02  0.11537521011E+02  0.00000000000E+00 0. -1.
</event>
<event>
 7    1  0.2740409E-010  0.4778728E+02  0.7816164E-02  0.1312668E+00
        -11   -1    0    0    0    0  0.00000000000E+00  0.00000000000E+00  0.45593999997E+02  0.45594000000E+02  0.51100000000E-03 0.  1.
         11   -1    0    0    0    0 -0.00000000000E+00 -0.00000000000E+00 -0.45593999997E+02  0.45594000000E+02  0.51100000000E-03 0. -1.
    9900012    2    1    2    0    0 -0.20746974012E+02 -0.36113270428E+02 -0.12207268369E+02  0.47787278431E+02  0.20000033680E+02 0.  0.
        -12    1    1    2    0    0  0.20746974012E+02  0.36113270428E+02  0.12207268369E+02  0.43400721569E+02  0.00000000000E+00 0.  1.
         11    1    3    3    0    0 -0.58554735674E+01 -0.23576022510E+02 -0.12373788990E+02  0.27262172737E+02  0.51100000000E-03 0. -1.
        -11    1    3    3    0    0 -0.12822822444E+02 -0.13074909086E+02  0.68344960996E+00  0.18326077777E+02  0.51100000000E-03 0.  1.
        -12    1    3    3    0    0 -0.20686780009E+01  0.53766116902E+00 -0.51692898825E+00  0.21990279177E+01  0.00000000000E+00 0.  1.
</event>
<event>
 7    1  0.2740409E-010  0.4778727E+02  0.7816164E-02  0.1312668E+00
        -11   -1    0    0    0    0  0.00000000000E+00  0.00000000000E+00  0.45593999997E+02  0.45594000000E+02  0.51100000000E-03 0.  1.
         11   -1    0    0    0    0 -0.00000000000E+00 -0.00000000000E+00 -0.45593999997E+02  0.45594000000E+02  0.51100000000E-03 0. -1.
    9900012    2    1    2    0    0  0.13133028053E+02 -0.41348376093E+02 -0.12077471219E+01  0.47787270922E+02  0.19999999442E+02 0.  0.
        -12    1    1    2    0    0 -0.13133028053E+02  0.41348376093E+02  0.12077471219E+01  0.43400729078E+02  0.00000000000E+00 0.  1.
         11    1    3    3    0    0  0.12640519451E+02 -0.22867179979E+02 -0.51021713377E+01  0.26621848260E+02  0.51100000000E-03 0. -1.
        -11    1    3    3    0    0  0.41985213245E+01 -0.38088253229E+01  0.92672220223E+00  0.57440008665E+01  0.51100000000E-03 0.  1.
         12    1    3    3    0    0 -0.37060127225E+01 -0.14672370792E+02  0.29677020136E+01  0.15421421795E+02  0.00000000000E+00 0. -1.
</event>
<event>
 7    1  0.2740409E-010  0.4778727E+02  0.7816164E-02  0.1312668E+00
        -11   -1    0    0    0    0  0.00000000000E+00  0.00000000000E+00  0.45593999997E+02  0.45594000000E+02  0.51100000000E-03 0.  1.
         11   -1    0    0    0    0 -0.00000000000E+00 -0.00000000000E+00 -0.45593999997E+02  0.45594000000E+02  0.51100000000E-03 0. -1.
    9900012    2    1    2    0    0 -0.76005457572E+01  0.14304821949E+02 -0.40264463110E+02  0.47787271708E+02  0.20000003023E+02 0.  0.
        -12    1    1    2    0    0  0.76005457572E+01 -0.14304821949E+02  0.40264463110E+02  0.43400728292E+02  0.00000000000E+00 0.  1.
         11    1    3    3    0    0 -0.89698891397E+01  0.45196612797E+01 -0.10882682882E+02  0.14809423899E+02  0.51100000000E-03 0. -1.
        -11    1    3    3    0    0  0.61624106584E+01  0.41197746979E+01 -0.16943120875E+02  0.18493706873E+02  0.51100000000E-03 0.  1.
         12    1    3    3    0    0 -0.47930672759E+01  0.56653859714E+01 -0.12438659353E+02  0.14484140935E+02  0.00000000000E+00 0. -1.
</event>
<event>
 7    1  0.2740409E-010  0.4778727E+02  0.7816164E-02  0.1312668E+00
        -11   -1    0    0    0    0  0.00000000000E+00  0.00000000000E+00  0.45593999997E+02  0.45594000000E+02  0.51100000000E-03 0.  1.
         11   -1    0    0    0    0 -0.00000000000E+00 -0.00000000000E+00 -0.45593999997E+02  0.45594000000E+02  0.51100000000E-03 0. -1.
    9900012    2    1    2    0    0 -0.16186788540E+02  0.20240073962E+02 -0.34813082903E+02  0.47787268918E+02  0.19999990304E+02 0.  0.
        -12    1    1    2    0    0  0.16186788540E+02 -0.20240073962E+02  0.34813082903E+02  0.43400731082E+02  0.00000000000E+00 0.  1.
         11    1    3    3    0    0 -0.49060857881E+01  0.10478260953E+02 -0.22358040914E+02  0.25174304839E+02  0.51100000000E-03 0. -1.
        -11    1    3    3    0    0 -0.72522672109E+01  0.10601804109E+02 -0.44177340133E+01  0.13583445960E+02  0.51100000000E-03 0.  1.
        -12    1    3    3    0    0 -0.40284355414E+01 -0.83999110061E+00 -0.80373079763E+01  0.90295181193E+01  0.00000000000E+00 0.  1.
</event>
<event>
 7    1  0.2740409E-010  0.4778727E+02  0.7816164E-02  0.1312668E+00
        -11   -1    0    0    0    0  0.00000000000E+00  0.00000000000E+00  0.45593999997E+02  0.45594000000E+02  0.51100000000E-03 0.  1.
         11   -1    0    0    0    0 -0.00000000000E+00 -0.00000000000E+00 -0.45593999997E+02  0.45594000000E+02  0.51100000000E-03 0. -1.
    9900012    2    1    2    0    0 -0.11558486846E+02  0.10840208691E+01 -0.41819250211E+02  0.47787269504E+02  0.19999992975E+02 0.  0.
        -12    1    1    2    0    0  0.11558486846E+02 -0.10840208691E+01  0.41819250211E+02  0.43400730496E+02  0.00000000000E+00 0.  1.
         11    1    3    3    0    0 -0.87329302712E+01  0.68574097961E+01 -0.17982692124E+02  0.21134458984E+02  0.51100000000E-03 0. -1.
        -11    1    3    3    0    0 -0.79826945305E+00 -0.83543713504E+01 -0.19371521898E+02  0.21111338557E+02  0.51100000000E-03 0.  1.
        -12    1    3    3    0    0 -0.20272871218E+01  0.25809824234E+01 -0.44650361887E+01  0.55414719625E+01  0.00000000000E+00 0.  1.
</event>
<event>
 7    1  0.2740409E-010  0.4778727E+02  0.7816164E-02  0.1312668E+00
        -11   -1    0    0    0    0  0.00000000000E+00  0.00000000000E+00  0.45593999997E+02  0.45594000000E+02  0.51100000000E-03 0.  1.
         11   -1    0    0    0    0 -0.00000000000E+00 -0.00000000000E+00 -0.45593999997E+02  0.45594000000E+02  0.51100000000E-03 0. -1.
    9900012    2    1    2    0    0 -0.11917176344E+02  0.36639064685E+02 -0.19979580289E+02  0.47787265196E+02  0.19999973334E+02 0.  0.
        -12    1    1    2    0    0  0.11917176344E+02 -0.36639064685E+02  0.19979580289E+02  0.43400734804E+02  0.00000000000E+00 0.  1.
         11    1    3    3    0    0  0.78790317736E-01  0.14280338777E+02 -0.14091668300E+02  0.20062636896E+02  0.51100000000E-03 0. -1.
        -11    1    3    3    0    0 -0.11505663943E+02  0.21227957873E+02 -0.78655645223E+01  0.25394361653E+02  0.51100000000E-03 0.  1.
        -12    1    3    3    0    0 -0.49030271852E+00  0.11307680349E+01  0.19776525328E+01  0.23302666467E+01  0.00000000000E+00 0.  1.
</event>
<event>
 7    1  0.2740409E-010  0.4778728E+02  0.7816164E-02  0.1312668E+00
        -11   -1    0    0    0    0  0.00000000000E+00  0.00000000000E+00  0.45593999997E+02  0.45594000000E+02  0.51100000000E-03 0.  1.
         11   -1    0    0    0    0 -0.00000000000E+00 -0.00000000000E+00 -0.45593999997E+02  0.45594000000E+02  0.51100000000E-03 0. -1.
    9900012    2    1    2    0    0  0.16613152027E+02  0.24314766444E+02 -0.31881308555E+02  0.47787279698E+02  0.20000039455E+02 0.  0.
        -12    1    1    2    0    0 -0.16613152027E+02 -0.24314766444E+02  0.31881308555E+02  0.43400720302E+02  0.00000000000E+00 0.  1.
         11    1    3    3    0    0  0.84268774729E+00  0.52680388652E+01 -0.15955052589E+02  0.16823378362E+02  0.51100000000E-03 0. -1.
        -11    1    3    3    0    0  0.12641254754E+02  0.81870639487E+01 -0.72442001345E+01  0.16712503514E+02  0.51100000000E-03 0.  1.
        -12    1    3    3    0    0  0.31292095260E+01  0.10859663630E+02 -0.86820558322E+01  0.14251397822E+02  0.00000000000E+00 0.  1.
</event>
<event>
 7    1  0.2740409E-010  0.4778726E+02  0.7816164E-02  0.1312668E+00
        -11   -1    0    0    0    0  0.00000000000E+00  0.00000000000E+00  0.45593999997E+02  0.45594000000E+02  0.51100000000E-03 0.  1.
         11   -1    0    0    0    0 -0.00000000000E+00 -0.00000000000E+00 -0.45593999997E+02  0.45594000000E+02  0.51100000000E-03 0. -1.
    9900012    2    1    2    0    0 -0.17434634630E+02  0.20674401710E+02 -0.33944465688E+02  0.47787261278E+02  0.19999955471E+02 0.  0.
        -12    1    1    2    0    0  0.17434634630E+02 -0.20674401710E+02  0.33944465688E+02  0.43400738722E+02  0.00000000000E+00 0.  1.
         11    1    3    3    0    0 -0.46830661373E+01  0.16952951475E+02 -0.11875861103E+02  0.21221916722E+02  0.51100000000E-03 0. -1.
        -11    1    3    3    0    0 -0.13066290391E+02  0.43688330575E+01 -0.21816580995E+02  0.25802671440E+02  0.51100000000E-03 0.  1.
        -12    1    3    3    0    0  0.31472189854E+00 -0.64738282214E+00 -0.25202359043E+00  0.76267311606E+00  0.00000000000E+00 0.  1.
</event>
<event>
 7    1  0.2740409E-010  0.4778725E+02  0.7816164E-02  0.1312668E+00
        -11   -1    0    0    0    0  0.00000000000E+00  0.00000000000E+00  0.45593999997E+02  0.45594000000E+02  0.51100000000E-03 0.  1.
         11   -1    0    0    0    0 -0.00000000000E+00 -0.00000000000E+00 -0.45593999997E+02  0.45594000000E+02  0.51100000000E-03 0. -1.
    9900012    2    1    2    0    0 -0.17562386688E+02  0.21874533041E+02 -0.33116341080E+02  0.47787254978E+02  0.19999926747E+02 0.  0.
        -12    1    1    2    0    0  0.17562386688E+02 -0.21874533041E+02  0.33116341080E+02  0.43400745022E+02  0.00000000000E+00 0.  1.
         11    1    3    3    0    0 -0.37031697336E+01  0.75199844364E+00 -0.50455157648E+01  0.63036653884E+01  0.51100000000E-03 0. -1.
        -11    1    3    3    0    0 -0.86188988790E+00  0.93196043461E+00 -0.13154207618E+02  0.13215316218E+02  0.51100000000E-03 0.  1.
        -12    1    3    3    0    0 -0.12997327066E+02  0.20190574162E+02 -0.14916617697E+02  0.28268273371E+02  0.00000000000E+00 0.  1.
</event>
<event>
 7    1  0.2740409E-010  0.4778727E+02  0.7816164E-02  0.1312668E+00
        -11   -1    0    0    0    0  0.00000000000E+00  0.00000000000E+00  0.45593999997E+02  0.45594000000E+02  0.51100000000E-03 0.  1.
         11   -1    0    0    0    0 -0.00000000000E+00 -0.00000000000E+00 -0.45593999997E+02  0.45594000000E+02  0.51100000000E-03 0. -1.
    9900012    2    1    2    0    0  0.95367082692E+01 -0.31607362656E+02 -0.28171777694E+02  0.47787271468E+02  0.20000001933E+02 0.  0.
        -12    1    1    2    0    0 -0.95367082692E+01  0.31607362656E+02  0.28171777694E+02  0.43400728532E+02  0.00000000000E+00 0.  1.
         11    1    3    3    0    0  0.13133116781E+02 -0.10821410989E+02 -0.15480134774E+02  0.23004700934E+02  0.51100000000E-03 0. -1.
        -11    1    3    3    0    0 -0.19435629155E+01 -0.15203597262E+02 -0.79060662639E+01  0.17246236997E+02  0.51100000000E-03 0.  1.
        -12    1    3    3    0    0 -0.16528455966E+01 -0.55823544039E+01 -0.47855766555E+01  0.75363335371E+01  0.00000000000E+00 0.  1.
</event>
<event>
 7    1  0.2740409E-010  0.4778727E+02  0.7816164E-02  0.1312668E+00
        -11   -1    0    0    0    0  0.00000000000E+00  0.00000000000E+00  0.45593999997E+02  0.45594000000E+02  0.51100000000E-03 0. -1.
         11   -1    0    0    0    0 -0.00000000000E+00 -0.00000000000E+00 -0.45593999997E+02  0.45594000000E+02  0.51100000000E-03 0.  1.
    9900012    2    1    2    0    0 -0.27804211283E+02 -0.86051595708E+01  0.32194725294E+02  0.47787271054E+02  0.20000000044E+02 0.  0.
        -12    1    1    2    0    0  0.27804211283E+02  0.86051595708E+01 -0.32194725294E+02  0.43400728946E+02  0.00000000000E+00 0.  1.
         11    1    3    3    0    0 -0.18893729140E+02 -0.10181636254E+02  0.14131828339E+02  0.25697223393E+02  0.51100000000E-03 0. -1.
        -11    1    3    3    0    0 -0.17114544760E+01  0.12741178483E+01  0.13260188914E+02  0.13430750650E+02  0.51100000000E-03 0.  1.
        -12    1    3    3    0    0 -0.71990276667E+01  0.30235883509E+00  0.48027080402E+01  0.86592970114E+01  0.00000000000E+00 0.  1.
</event>
<event>
 7    1  0.2740409E-010  0.4778727E+02  0.7816164E-02  0.1312668E+00
        -11   -1    0    0    0    0  0.00000000000E+00  0.00000000000E+00  0.45593999997E+02  0.45594000000E+02  0.51100000000E-03 0.  1.
         11   -1    0    0    0    0 -0.00000000000E+00 -0.00000000000E+00 -0.45593999997E+02  0.45594000000E+02  0.51100000000E-03 0. -1.
    9900012    2    1    2    0    0  0.39746825030E+01 -0.43176505041E+02 -0.19013061518E+01  0.47787266669E+02  0.19999980052E+02 0.  0.
        -12    1    1    2    0    0 -0.39746825030E+01  0.43176505041E+02  0.19013061518E+01  0.43400733331E+02  0.00000000000E+00 0.  1.
         11    1    3    3    0    0  0.19392329331E+01 -0.11434077300E+02  0.27002669334E+00  0.11600502694E+02  0.51100000000E-03 0. -1.
        -11    1    3    3    0    0  0.85785856646E+01 -0.20494087470E+02  0.25075824888E+01  0.22358169054E+02  0.51100000000E-03 0.  1.
        -12    1    3    3    0    0 -0.65431360946E+01 -0.11248340270E+02 -0.46789153339E+01  0.13828594921E+02  0.00000000000E+00 0.  1.
</event>
<event>
 7    1  0.2740409E-010  0.4778726E+02  0.7816164E-02  0.1312668E+00
        -11   -1    0    0    0    0  0.00000000000E+00  0.00000000000E+00  0.45593999997E+02  0.45594000000E+02  0.51100000000E-03 0. -1.
         11   -1    0    0    0    0 -0.00000000000E+00 -0.00000000000E+00 -0.45593999997E+02  0.45594000000E+02  0.51100000000E-03 0.  1.
    9900012    2    1    2    0    0  0.15979011771E+02 -0.96755882567E+01  0.39174976123E+02  0.47787256002E+02  0.19999931417E+02 0.  0.
        -12    1    1    2    0    0 -0.15979011771E+02  0.96755882567E+01 -0.39174976123E+02  0.43400743998E+02  0.00000000000E+00 0.  1.
         11    1    3    3    0    0  0.48559406382E+01  0.19004848470E+01  0.18043976764E+02  0.18782361403E+02  0.51100000000E-03 0. -1.
        -11    1    3    3    0    0  0.12654790443E+02 -0.86023518056E+01  0.12533540283E+02  0.19779631190E+02  0.51100000000E-03 0.  1.
        -12    1    3    3    0    0 -0.15317193101E+01 -0.29737212980E+01  0.85974590760E+01  0.92252634091E+01  0.00000000000E+00 0.  1.
</event>
<event>
 7    1  0.2740409E-010  0.4778728E+02  0.7816164E-02  0.1312668E+00
        -11   -1    0    0    0    0  0.00000000000E+00  0.00000000000E+00  0.45593999997E+02  0.45594000000E+02  0.51100000000E-03 0. -1.
         11   -1    0    0    0    0 -0.00000000000E+00 -0.00000000000E+00 -0.45593999997E+02  0.45594000000E+02  0.51100000000E-03 0.  1.
    9900012    2    1    2    0    0 -0.13195172801E+02 -0.37799559922E+02 -0.16754211312E+02  0.47787275211E+02  0.20000018996E+02 0.  0.
        -12    1    1    2    0    0  0.13195172801E+02  0.37799559922E+02  0.16754211312E+02  0.43400724789E+02  0.00000000000E+00 0.  1.
         11    1    3    3    0    0 -0.11281032850E+02 -0.28333596597E+02 -0.84437831330E+01  0.31644144358E+02  0.51100000000E-03 0. -1.
        -11    1    3    3    0    0  0.31321650135E+00  0.17845222126E+01 -0.29996204578E+01  0.35043326406E+01  0.51100000000E-03 0.  1.
         12    1    3    3    0    0 -0.22273564525E+01 -0.11250485538E+02 -0.53108077214E+01  0.12638798212E+02  0.00000000000E+00 0. -1.
</event>
<event>
 7    1  0.2740409E-010  0.4778728E+02  0.7816164E-02  0.1312668E+00
        -11   -1    0    0    0    0  0.00000000000E+00  0.00000000000E+00  0.45593999997E+02  0.45594000000E+02  0.51100000000E-03 0.  1.
         11   -1    0    0    0    0 -0.00000000000E+00 -0.00000000000E+00 -0.45593999997E+02  0.45594000000E+02  0.51100000000E-03 0. -1.
    9900012    2    1    2    0    0  0.28728082692E+02 -0.25444925147E+02 -0.20270063222E+02  0.47787280952E+02  0.20000045170E+02 0.  0.
        -12    1    1    2    0    0 -0.28728082692E+02  0.25444925147E+02  0.20270063222E+02  0.43400719048E+02  0.00000000000E+00 0.  1.
         11    1    3    3    0    0  0.99255117538E+01 -0.63024622891E+01  0.17417937546E+01  0.11885733474E+02  0.51100000000E-03 0. -1.
        -11    1    3    3    0    0  0.42116888603E+01 -0.10668490219E+02 -0.95567190724E+01  0.14929363225E+02  0.51100000000E-03 0.  1.
        -12    1    3    3    0    0  0.14590882078E+02 -0.84739726386E+01 -0.12455137904E+02  0.20972184252E+02  0.00000000000E+00 0.  1.
</event>
<event>
 7    1  0.2740409E-010  0.4778727E+02  0.7816164E-02  0.1312668E+00
        -11   -1    0    0    0    0  0.00000000000E+00  0.00000000000E+00  0.45593999997E+02  0.45594000000E+02  0.51100000000E-03 0. -1.
         11   -1    0    0    0    0 -0.00000000000E+00 -0.00000000000E+00 -0.45593999997E+02  0.45594000000E+02  0.51100000000E-03 0.  1.
    9900012    2    1    2    0    0  0.12281251725E+01 -0.39665784897E+02  0.17571011746E+02  0.47787271472E+02  0.20000001950E+02 0.  0.
        -12    1    1    2    0    0 -0.12281251725E+01  0.39665784897E+02 -0.17571011746E+02  0.43400728528E+02  0.00000000000E+00 0.  1.
         11    1    3    3    0    0 -0.44086343966E+01 -0.27482290020E+01  0.62651128813E+01  0.81388242128E+01  0.51100000000E-03 0. -1.
        -11    1    3    3    0    0 -0.70057924294E+00 -0.56175224388E+00  0.97536374450E+00  0.13257871452E+01  0.51100000000E-03 0.  1.
         12    1    3    3    0    0  0.63373388120E+01 -0.36355803651E+02  0.10330535121E+02  0.38322660114E+02  0.00000000000E+00 0. -1.
</event>
<event>
 7    1  0.2740409E-010  0.4778723E+02  0.7816164E-02  0.1312668E+00
        -11   -1    0    0    0    0  0.00000000000E+00  0.00000000000E+00  0.45593999997E+02  0.45594000000E+02  0.51100000000E-03 0. -1.
         11   -1    0    0    0    0 -0.00000000000E+00 -0.00000000000E+00 -0.45593999997E+02  0.45594000000E+02  0.51100000000E-03 0.  1.
    9900012    2    1    2    0    0  0.29474342588E+02 -0.31847528463E+02 -0.79074060852E+00  0.47787225688E+02  0.19999793199E+02 0.  0.
        -12    1    1    2    0    0 -0.29474342588E+02  0.31847528463E+02  0.79074060852E+00  0.43400774312E+02  0.00000000000E+00 0.  1.
         11    1    3    3    0    0  0.84475222172E+01 -0.17300556098E+02  0.37792824733E+01  0.19620215319E+02  0.51100000000E-03 0. -1.
        -11    1    3    3    0    0  0.12318960486E+02 -0.37207904083E+01 -0.60025768384E+01  0.14199718226E+02  0.51100000000E-03 0.  1.
        -12    1    3    3    0    0  0.87078598841E+01 -0.10826181957E+02  0.14325537565E+01  0.13967292143E+02  0.00000000000E+00 0.  1.
</event>
<event>
 7    1  0.2740409E-010  0.4778727E+02  0.7816164E-02  0.1312668E+00
        -11   -1    0    0    0    0  0.00000000000E+00  0.00000000000E+00  0.45593999997E+02  0.45594000000E+02  0.51100000000E-03 0.  1.
         11   -1    0    0    0    0 -0.00000000000E+00 -0.00000000000E+00 -0.45593999997E+02  0.45594000000E+02  0.51100000000E-03 0. -1.
    9900012    2    1    2    0    0  0.58840889318E+01  0.39329084517E+02 -0.17384593304E+02  0.47787268718E+02  0.19999989391E+02 0.  0.
        -12    1    1    2    0    0 -0.58840889318E+01 -0.39329084517E+02  0.17384593304E+02  0.43400731282E+02  0.00000000000E+00 0.  1.
         11    1    3    3    0    0 -0.28103079725E+01  0.22962116571E+02 -0.62076887273E+01  0.23951868986E+02  0.51100000000E-03 0. -1.
        -11    1    3    3    0    0  0.31139766645E+01  0.19694035629E+01 -0.68848932581E+01  0.78087871335E+01  0.51100000000E-03 0.  1.
        -12    1    3    3    0    0  0.55804202398E+01  0.14397564383E+02 -0.42920113184E+01  0.16026612598E+02  0.00000000000E+00 0.  1.
</event>
<event>
 7    1  0.2740409E-010  0.4778727E+02  0.7816164E-02  0.1312668E+00
        -11   -1    0    0    0    0  0.00000000000E+00  0.00000000000E+00  0.45593999997E+02  0.45594000000E+02  0.51100000000E-03 0.  1.
         11   -1    0    0    0    0 -0.00000000000E+00 -0.00000000000E+00 -0.45593999997E+02  0.45594000000E+02  0.51100000000E-03 0. -1.
    9900012    2    1    2    0    0 -0.41595543743E+02 -0.11468285876E+02 -0.46810736114E+01  0.47787270855E+02  0.19999999135E+02 0.  0.
        -12    1    1    2    0    0  0.41595543743E+02  0.11468285876E+02  0.46810736114E+01  0.43400729145E+02  0.00000000000E+00 0.  1.
         11    1    3    3    0    0 -0.17720323105E+02  0.36344522334E+00 -0.78242206323E+01  0.19374219265E+02  0.51100000000E-03 0. -1.
        -11    1    3    3    0    0 -0.72777352757E+01 -0.34477163381E+01  0.53789436997E+01  0.96842766522E+01  0.51100000000E-03 0.  1.
        -12    1    3    3    0    0 -0.16597485362E+02 -0.83840147616E+01 -0.22357966788E+01  0.18728774938E+02  0.00000000000E+00 0.  1.
</event>
<event>
 7    1  0.2740409E-010  0.4778727E+02  0.7816164E-02  0.1312668E+00
        -11   -1    0    0    0    0  0.00000000000E+00  0.00000000000E+00  0.45593999997E+02  0.45594000000E+02  0.51100000000E-03 0.  1.
         11   -1    0    0    0    0 -0.00000000000E+00 -0.00000000000E+00 -0.45593999997E+02  0.45594000000E+02  0.51100000000E-03 0. -1.
    9900012    2    1    2    0    0 -0.41555287298E+01  0.92507367090E+01 -0.42199272914E+02  0.47787272089E+02  0.20000004764E+02 0.  0.
        -12    1    1    2    0    0  0.41555287298E+01 -0.92507367090E+01  0.42199272914E+02  0.43400727911E+02  0.00000000000E+00 0.  1.
         11    1    3    3    0    0  0.16948201211E+01  0.73593881069E+00 -0.34326207137E+02  0.34375900248E+02  0.51100000000E-03 0. -1.
        -11    1    3    3    0    0 -0.45053575884E+01  0.36285533288E+01 -0.40058141064E+01  0.70364190591E+01  0.51100000000E-03 0.  1.
         12    1    3    3    0    0 -0.13449912625E+01  0.48862445695E+01 -0.38672516711E+01  0.63749527823E+01  0.00000000000E+00 0. -1.
</event>
<event>
 7    1  0.2740409E-010  0.4778727E+02  0.7816164E-02  0.1312668E+00
        -11   -1    0    0    0    0  0.00000000000E+00  0.00000000000E+00  0.45593999997E+02  0.45594000000E+02  0.51100000000E-03 0.  1.
         11   -1    0    0    0    0 -0.00000000000E+00 -0.00000000000E+00 -0.45593999997E+02  0.45594000000E+02  0.51100000000E-03 0. -1.
    9900012    2    1    2    0    0 -0.75973831540E+01 -0.72756771293E+01 -0.42106621908E+02  0.47787270548E+02  0.19999997735E+02 0.  0.
        -12    1    1    2    0    0  0.75973831540E+01  0.72756771293E+01  0.42106621908E+02  0.43400729452E+02  0.00000000000E+00 0.  1.
         11    1    3    3    0    0 -0.11844531097E+01 -0.40523575106E+01 -0.40743565641E+01  0.58672746855E+01  0.51100000000E-03 0. -1.
        -11    1    3    3    0    0 -0.96237905408E+01 -0.32924411981E+01 -0.12177832661E+02  0.15866856084E+02  0.51100000000E-03 0.  1.
        -12    1    3    3    0    0  0.32108604965E+01  0.69121579417E-01 -0.25854432683E+02  0.26053139778E+02  0.00000000000E+00 0.  1.
</event>
<event>
 7    1  0.2740409E-010  0.4778727E+02  0.7816164E-02  0.1312668E+00
        -11   -1    0    0    0    0  0.00000000000E+00  0.00000000000E+00  0.45593999997E+02  0.45594000000E+02  0.51100000000E-03 0.  1.
         11   -1    0    0    0    0 -0.00000000000E+00 -0.00000000000E+00 -0.45593999997E+02  0.45594000000E+02  0.51100000000E-03 0. -1.
    9900012    2    1    2    0    0 -0.41615967506E+02 -0.10650769936E+02 -0.61883612165E+01  0.47787268828E+02  0.19999989895E+02 0.  0.
        -12    1    1    2    0    0  0.41615967506E+02  0.10650769936E+02  0.61883612165E+01  0.43400731172E+02  0.00000000000E+00 0.  1.
         11    1    3    3    0    0 -0.26486379196E+02 -0.37820459714E+01 -0.49980739471E+01  0.27217878280E+02  0.51100000000E-03 0. -1.
        -11    1    3    3    0    0 -0.21447742245E+01 -0.10514509435E+01  0.46195656975E+01  0.52005762234E+01  0.51100000000E-03 0.  1.
         12    1    3    3    0    0 -0.12984814086E+02 -0.58172730210E+01 -0.58098529668E+01  0.15368814325E+02  0.00000000000E+00 0. -1.
</event>
<event>
 7    1  0.2740409E-010  0.4778727E+02  0.7816164E-02  0.1312668E+00
        -11   -1    0    0    0    0  0.00000000000E+00  0.00000000000E+00  0.45593999997E+02  0.45594000000E+02  0.51100000000E-03 0.  1.
         11   -1    0    0    0    0 -0.00000000000E+00 -0.00000000000E+00 -0.45593999997E+02  0.45594000000E+02  0.51100000000E-03 0. -1.
    9900012    2    1    2    0    0 -0.27408765170E+02 -0.26335206430E+01 -0.33547689431E+02  0.47787270682E+02  0.19999998349E+02 0.  0.
        -12    1    1    2    0    0  0.27408765170E+02  0.26335206430E+01  0.33547689431E+02  0.43400729318E+02  0.00000000000E+00 0.  1.
         11    1    3    3    0    0 -0.16040608728E+02 -0.47073968411E+01 -0.14929260677E+02  0.22413021617E+02  0.51100000000E-03 0. -1.
        -11    1    3    3    0    0  0.17135376428E+01  0.15402539451E-01  0.78312532621E+00  0.18840737855E+01  0.51100000000E-03 0.  1.
        -12    1    3    3    0    0 -0.13081694085E+02  0.20584736586E+01 -0.19401554081E+02  0.23490175280E+02  0.00000000000E+00 0.  1.
</event>
<event>
 7    1  0.2740409E-010  0.4778725E+02  0.7816164E-02  0.1312668E+00
        -11   -1    0    0    0    0  0.00000000000E+00  0.00000000000E+00  0.45593999997E+02  0.45594000000E+02  0.51100000000E-03 0.  1.
         11   -1    0    0    0    0 -0.00000000000E+00 -0.00000000000E+00 -0.45593999997E+02  0.45594000000E+02  0.51100000000E-03 0. -1.
    9900012    2    1    2    0    0 -0.42893334233E+02 -0.63308260779E+01 -0.19254177540E+01  0.47787254454E+02  0.19999924356E+02 0.  0.
        -12    1    1    2    0    0  0.42893334233E+02  0.63308260779E+01  0.19254177540E+01  0.43400745546E+02  0.00000000000E+00 0.  1.
         11    1    3    3    0    0 -0.22609067442E+02 -0.90716460830E+00 -0.83217143791E+01  0.24108998500E+02  0.51100000000E-03 0. -1.
        -11    1    3    3    0    0  0.41636624730E+00 -0.15871233902E+01  0.10796153703E+01  0.19641515004E+01  0.51100000000E-03 0.  1.
         12    1    3    3    0    0 -0.20700633038E+02 -0.38365380794E+01  0.53166812549E+01  0.21714104453E+02  0.00000000000E+00 0. -1.
</event>
<event>
 7    1  0.2740409E-010  0.4778727E+02  0.7816164E-02  0.1312668E+00
        -11   -1    0    0    0    0  0.00000000000E+00  0.00000000000E+00  0.45593999997E+02  0.45594000000E+02  0.51100000000E-03 0. -1.
         11   -1    0    0    0    0 -0.00000000000E+00 -0.00000000000E+00 -0.45593999997E+02  0.45594000000E+02  0.51100000000E-03 0.  1.
    9900012    2    1    2    0    0  0.46213723068E+01 -0.59980142880E+00  0.43149816466E+02  0.47787268384E+02  0.19999987868E+02 0.  0.
        -12    1    1    2    0    0 -0.46213723068E+01  0.59980142880E+00 -0.43149816466E+02  0.43400731616E+02  0.00000000000E+00 0.  1.
         11    1    3    3    0    0  0.92524193108E+01  0.28597744550E+00  0.13474715377E+02  0.16347996848E+02  0.51100000000E-03 0. -1.
        -11    1    3    3    0    0 -0.35691274525E+01  0.63206893349E+00  0.30144705018E+01  0.47143625843E+01  0.51100000000E-03 0.  1.
         12    1    3    3    0    0 -0.10619195516E+01 -0.15178478078E+01  0.26660630588E+02  0.26724908951E+02  0.00000000000E+00 0. -1.
</event>
<event>
 7    1  0.2740409E-010  0.4778727E+02  0.7816164E-02  0.1312668E+00
        -11   -1    0    0    0    0  0.00000000000E+00  0.00000000000E+00  0.45593999997E+02  0.45594000000E+02  0.51100000000E-03 0. -1.
         11   -1    0    0    0    0 -0.00000000000E+00 -0.00000000000E+00 -0.45593999997E+02  0.45594000000E+02  0.51100000000E-03 0.  1.
    9900012    2    1    2    0    0  0.43203463984E+02 -0.40568635181E+01 -0.79118263251E+00  0.47787269456E+02  0.19999992758E+02 0.  0.
        -12    1    1    2    0    0 -0.43203463984E+02  0.40568635181E+01  0.79118263251E+00  0.43400730544E+02  0.00000000000E+00 0.  1.
         11    1    3    3    0    0  0.10864049655E+02 -0.32232835680E+01  0.70633359115E+01  0.13353196109E+02  0.51100000000E-03 0. -1.
        -11    1    3    3    0    0  0.12421989314E+02  0.32773610760E+00 -0.74302236691E+01  0.14478309760E+02  0.51100000000E-03 0.  1.
         12    1    3    3    0    0  0.19917425015E+02 -0.11613160577E+01 -0.42429487483E+00  0.19955763587E+02  0.00000000000E+00 0. -1.
</event>
<event>
 7    1  0.2740409E-010  0.4778726E+02  0.7816164E-02  0.1312668E+00
        -11   -1    0    0    0    0  0.00000000000E+00  0.00000000000E+00  0.45593999997E+02  0.45594000000E+02  0.51100000000E-03 0. -1.
         11   -1    0    0    0    0 -0.00000000000E+00 -0.00000000000E+00 -0.45593999997E+02  0.45594000000E+02  0.51100000000E-03 0.  1.
    9900012    2    1    2    0    0 -0.39338546541E+02 -0.16394653242E+00  0.18332369644E+02  0.47787263841E+02  0.19999967156E+02 0.  0.
        -12    1    1    2    0    0  0.39338546541E+02  0.16394653242E+00 -0.18332369644E+02  0.43400736159E+02  0.00000000000E+00 0.  1.
         11    1    3    3    0    0 -0.30248499194E+02  0.16689053739E+00  0.15153584011E+02  0.33832390761E+02  0.51100000000E-03 0. -1.
        -11    1    3    3    0    0 -0.23117814583E+01 -0.30016046553E+01 -0.26510052973E+01  0.46240451301E+01  0.51100000000E-03 0.  1.
        -12    1    3    3    0    0 -0.67782658882E+01  0.26707675855E+01  0.58297909297E+01  0.93308279499E+01  0.00000000000E+00 0.  1.
</event>
<event>
 7    1  0.2740409E-010  0.4778727E+02  0.7816164E-02  0.1312668E+00
        -11   -1    0    0    0    0  0.00000000000E+00  0.00000000000E+00  0.45593999997E+02  0.45594000000E+02  0.51100000000E-03 0.  1.
         11   -1    0    0    0    0 -0.00000000000E+00 -0.00000000000E+00 -0.45593999997E+02  0.45594000000E+02  0.51100000000E-03 0. -1.
    9900012    2    1    2    0    0 -0.11020069636E+02  0.22758623280E+02 -0.35273597268E+02  0.47787268064E+02  0.19999986409E+02 0.  0.
        -12    1    1    2    0    0  0.11020069636E+02 -0.22758623280E+02  0.35273597268E+02  0.43400731936E+02  0.00000000000E+00 0.  1.
         11    1    3    3    0    0 -0.11453388317E+02  0.90452076901E+01 -0.85117762301E+01  0.16895153771E+02  0.51100000000E-03 0. -1.
        -11    1    3    3    0    0  0.21723557559E+01  0.13501315993E+01 -0.76269053607E+01  0.80443564384E+01  0.51100000000E-03 0.  1.
         12    1    3    3    0    0 -0.17390370751E+01  0.12363283990E+02 -0.19134915677E+02  0.22847757854E+02  0.00000000000E+00 0. -1.
</event>
<event>
 7    1  0.2740409E-010  0.4778728E+02  0.7816164E-02  0.1312668E+00
        -11   -1    0    0    0    0  0.00000000000E+00  0.00000000000E+00  0.45593999997E+02  0.45594000000E+02  0.51100000000E-03 0.  1.
         11   -1    0    0    0    0 -0.00000000000E+00 -0.00000000000E+00 -0.45593999997E+02  0.45594000000E+02  0.51100000000E-03 0. -1.
    9900012    2    1    2    0    0 -0.19198709633E+02  0.31294828365E+02 -0.23144462549E+02  0.47787275574E+02  0.20000020654E+02 0.  0.
        -12    1    1    2    0    0  0.19198709633E+02 -0.31294828365E+02  0.23144462549E+02  0.43400724426E+02  0.00000000000E+00 0.  1.
         11    1    3    3    0    0 -0.35804177216E+01  0.85075315889E+01 -0.10909649636E+02  0.14290484255E+02  0.51100000000E-03 0. -1.
        -11    1    3    3    0    0 -0.70351635946E+01  0.17514447662E+02 -0.17475879740E+01  0.18955301836E+02  0.51100000000E-03 0.  1.
        -12    1    3    3    0    0 -0.85831283170E+01  0.52728491147E+01 -0.10487224939E+02  0.14541489484E+02  0.00000000000E+00 0.  1.
</event>
<event>
 7    1  0.2740409E-010  0.4778727E+02  0.7816164E-02  0.1312668E+00
        -11   -1    0    0    0    0  0.00000000000E+00  0.00000000000E+00  0.45593999997E+02  0.45594000000E+02  0.51100000000E-03 0.  1.
         11   -1    0    0    0    0 -0.00000000000E+00 -0.00000000000E+00 -0.45593999997E+02  0.45594000000E+02  0.51100000000E-03 0. -1.
    9900012    2    1    2    0    0  0.64611413005E+01  0.38394289979E+02 -0.19176955717E+02  0.47787268665E+02  0.19999989150E+02 0.  0.
        -12    1    1    2    0    0 -0.64611413005E+01 -0.38394289979E+02  0.19176955717E+02  0.43400731335E+02  0.00000000000E+00 0.  1.
         11    1    3    3    0    0  0.11206051137E+02  0.31920296123E+02 -0.19044715241E+02  0.38822442808E+02  0.51100000000E-03 0. -1.
        -11    1    3    3    0    0 -0.17774092972E+01 -0.67036010517E-02  0.38374836075E+00  0.18183761474E+01  0.51100000000E-03 0.  1.
         12    1    3    3    0    0 -0.29675005393E+01  0.64806974564E+01 -0.51598883690E+00  0.71464497096E+01  0.00000000000E+00 0. -1.
</event>
<event>
 7    1  0.2740409E-010  0.4778728E+02  0.7816164E-02  0.1312668E+00
        -11   -1    0    0    0    0  0.00000000000E+00  0.00000000000E+00  0.45593999997E+02  0.45594000000E+02  0.51100000000E-03 0. -1.
         11   -1    0    0    0    0 -0.00000000000E+00 -0.00000000000E+00 -0.45593999997E+02  0.45594000000E+02  0.51100000000E-03 0.  1.
    9900012    2    1    2    0    0 -0.42020912416E+02 -0.34826400369E+01  0.10282815605E+02  0.47787283892E+02  0.20000058579E+02 0.  0.
        -12    1    1    2    0    0  0.42020912416E+02  0.34826400369E+01 -0.10282815605E+02  0.43400716108E+02  0.00000000000E+00 0.  1.
         11    1    3    3    0    0 -0.16824531638E+02  0.49329864329E+01  0.70947174332E+01  0.18913863585E+02  0.51100000000E-03 0. -1.
        -11    1    3    3    0    0 -0.22316909719E+02 -0.85902745781E+01  0.61990638599E+01  0.24703555812E+02  0.51100000000E-03 0.  1.
         12    1    3    3    0    0 -0.28794710582E+01  0.17464810818E+00 -0.30109656879E+01  0.41698644954E+01  0.00000000000E+00 0. -1.
</event>
<event>
 7    1  0.2740409E-010  0.4778726E+02  0.7816164E-02  0.1312668E+00
        -11   -1    0    0    0    0  0.00000000000E+00  0.00000000000E+00  0.45593999997E+02  0.45594000000E+02  0.51100000000E-03 0.  1.
         11   -1    0    0    0    0 -0.00000000000E+00 -0.00000000000E+00 -0.45593999997E+02  0.45594000000E+02  0.51100000000E-03 0. -1.
    9900012    2    1    2    0    0 -0.23538514879E+02 -0.35225729075E+02  0.94186382975E+01  0.47787257852E+02  0.19999939851E+02 0.  0.
        -12    1    1    2    0    0  0.23538514879E+02  0.35225729075E+02 -0.94186382975E+01  0.43400742148E+02  0.00000000000E+00 0.  1.
         11    1    3    3    0    0 -0.74027209561E-01 -0.18435117364E+01 -0.76490658612E+00  0.19972726145E+01  0.51100000000E-03 0. -1.
        -11    1    3    3    0    0  0.76174157613E+00 -0.86797746363E+00  0.47402785566E+01  0.48789216187E+01  0.51100000000E-03 0.  1.
        -12    1    3    3    0    0 -0.24226229246E+02 -0.32514239875E+02  0.54432663270E+01  0.40911063619E+02  0.00000000000E+00 0.  1.
</event>
<event>
 7    1  0.2740409E-010  0.4778724E+02  0.7816164E-02  0.1312668E+00
        -11   -1    0    0    0    0  0.00000000000E+00  0.00000000000E+00  0.45593999997E+02  0.45594000000E+02  0.51100000000E-03 0.  1.
         11   -1    0    0    0    0 -0.00000000000E+00 -0.00000000000E+00 -0.45593999997E+02  0.45594000000E+02  0.51100000000E-03 0. -1.
    9900012    2    1    2    0    0  0.60569163142E+01 -0.21668662278E+02 -0.37113460306E+02  0.47787238531E+02  0.19999851760E+02 0.  0.
        -12    1    1    2    0    0 -0.60569163142E+01  0.21668662278E+02  0.37113460306E+02  0.43400761469E+02  0.00000000000E+00 0.  1.
         11    1    3    3    0    0  0.44221561378E+01 -0.24985562763E+01 -0.21008879312E+02  0.21614144872E+02  0.51100000000E-03 0.  1.
        -11    1    3    3    0    0  0.19186584041E+01 -0.15756765944E+02 -0.89053363503E+01  0.18200602706E+02  0.51100000000E-03 0. -1.
         12    1    3    3    0    0 -0.28389822766E+00 -0.34133400580E+01 -0.71992446442E+01  0.79724909534E+01  0.00000000000E+00 0. -1.
</event>
<event>
 7    1  0.2740409E-010  0.4778727E+02  0.7816164E-02  0.1312668E+00
        -11   -1    0    0    0    0  0.00000000000E+00  0.00000000000E+00  0.45593999997E+02  0.45594000000E+02  0.51100000000E-03 0. -1.
         11   -1    0    0    0    0 -0.00000000000E+00 -0.00000000000E+00 -0.45593999997E+02  0.45594000000E+02  0.51100000000E-03 0.  1.
    9900012    2    1    2    0    0 -0.17368025008E+02 -0.28832515258E+02  0.27398190801E+02  0.47787273187E+02  0.20000009767E+02 0.  0.
        -12    1    1    2    0    0  0.17368025008E+02  0.28832515258E+02 -0.27398190801E+02  0.43400726813E+02  0.00000000000E+00 0.  1.
         11    1    3    3    0    0 -0.15433050659E+02 -0.13632665374E+02  0.62263363163E+01  0.21512691185E+02  0.51100000000E-03 0. -1.
        -11    1    3    3    0    0 -0.90354541944E+00 -0.12836760719E+02  0.16351195069E+02  0.20807700511E+02  0.51100000000E-03 0.  1.
         12    1    3    3    0    0 -0.10314289294E+01 -0.23630891641E+01  0.48206594150E+01  0.54668814903E+01  0.00000000000E+00 0. -1.
</event>
<event>
 7    1  0.2740409E-010  0.4778725E+02  0.7816164E-02  0.1312668E+00
        -11   -1    0    0    0    0  0.00000000000E+00  0.00000000000E+00  0.45593999997E+02  0.45594000000E+02  0.51100000000E-03 0. -1.
         11   -1    0    0    0    0 -0.00000000000E+00 -0.00000000000E+00 -0.45593999997E+02  0.45594000000E+02  0.51100000000E-03 0.  1.
    9900012    2    1    2    0    0 -0.69191765941E+01 -0.34037016533E+02  0.26023681179E+02  0.47787245613E+02  0.19999884050E+02 0.  0.
        -12    1    1    2    0    0  0.69191765941E+01  0.34037016533E+02 -0.26023681179E+02  0.43400754387E+02  0.00000000000E+00 0.  1.
         11    1    3    3    0    0 -0.10705150738E+02 -0.93573412467E+01  0.74140319372E+01  0.16035209925E+02  0.51100000000E-03 0. -1.
        -11    1    3    3    0    0  0.34336189089E+01 -0.15249104242E+02  0.14952478409E+02  0.21631031640E+02  0.51100000000E-03 0.  1.
        -12    1    3    3    0    0  0.35235523465E+00 -0.94305710447E+01  0.36571708329E+01  0.10121004048E+02  0.00000000000E+00 0.  1.
</event>
<event>
 7    1  0.2740409E-010  0.4778727E+02  0.7816164E-02  0.1312668E+00
        -11   -1    0    0    0    0  0.00000000000E+00  0.00000000000E+00  0.45593999997E+02  0.45594000000E+02  0.51100000000E-03 0.  1.
         11   -1    0    0    0    0 -0.00000000000E+00 -0.00000000000E+00 -0.45593999997E+02  0.45594000000E+02  0.51100000000E-03 0. -1.
    9900012    2    1    2    0    0  0.40630415837E+01 -0.37511505777E+01 -0.43046995391E+02  0.47787271322E+02  0.20000001266E+02 0.  0.
        -12    1    1    2    0    0 -0.40630415837E+01  0.37511505777E+01  0.43046995391E+02  0.43400728678E+02  0.00000000000E+00 0.  1.
         11    1    3    3    0    0  0.51404365803E+01  0.97067161639E+00 -0.12754251245E+02  0.13785398678E+02  0.51100000000E-03 0. -1.
        -11    1    3    3    0    0 -0.46762881966E+01  0.35357362092E+01 -0.76860084538E+01  0.96666347843E+01  0.51100000000E-03 0.  1.
        -12    1    3    3    0    0  0.35988932000E+01 -0.82575584033E+01 -0.22606735692E+02  0.24335237860E+02  0.00000000000E+00 0.  1.
</event>
<event>
 7    1  0.2740409E-010  0.4778727E+02  0.7816164E-02  0.1312668E+00
        -11   -1    0    0    0    0  0.00000000000E+00  0.00000000000E+00  0.45593999997E+02  0.45594000000E+02  0.51100000000E-03 0.  1.
         11   -1    0    0    0    0 -0.00000000000E+00 -0.00000000000E+00 -0.45593999997E+02  0.45594000000E+02  0.51100000000E-03 0. -1.
    9900012    2    1    2    0    0 -0.26957697901E+02  0.26231837054E+02 -0.21651708528E+02  0.47787271510E+02  0.20000002122E+02 0.  0.
        -12    1    1    2    0    0  0.26957697901E+02 -0.26231837054E+02  0.21651708528E+02  0.43400728490E+02  0.00000000000E+00 0.  1.
         11    1    3    3    0    0 -0.17836340757E+02  0.11363589835E+02 -0.17194896738E+02  0.27256755119E+02  0.51100000000E-03 0. -1.
        -11    1    3    3    0    0 -0.48083791293E+01  0.49827502880E+01  0.28659381715E+01  0.74941251756E+01  0.51100000000E-03 0.  1.
        -12    1    3    3    0    0 -0.43129780148E+01  0.98854969305E+01 -0.73227499617E+01  0.13036391215E+02  0.00000000000E+00 0.  1.
</event>
<event>
 7    1  0.2740409E-010  0.4778727E+02  0.7816164E-02  0.1312668E+00
        -11   -1    0    0    0    0  0.00000000000E+00  0.00000000000E+00  0.45593999997E+02  0.45594000000E+02  0.51100000000E-03 0. -1.
         11   -1    0    0    0    0 -0.00000000000E+00 -0.00000000000E+00 -0.45593999997E+02  0.45594000000E+02  0.51100000000E-03 0.  1.
    9900012    2    1    2    0    0 -0.35752511190E+02  0.24562246766E+02  0.14413061558E+01  0.47787269753E+02  0.19999994112E+02 0.  0.
        -12    1    1    2    0    0  0.35752511190E+02 -0.24562246766E+02 -0.14413061558E+01  0.43400730247E+02  0.00000000000E+00 0.  1.
         11    1    3    3    0    0 -0.53036951358E+01  0.11372409343E+02 -0.18287749618E+01  0.12680902747E+02  0.51100000000E-03 0. -1.
        -11    1    3    3    0    0 -0.16976005715E+02  0.55540236602E+01 -0.35064831557E+01  0.18202400205E+02  0.51100000000E-03 0.  1.
        -12    1    3    3    0    0 -0.13472810339E+02  0.76358137623E+01  0.67765642733E+01  0.16903966801E+02  0.00000000000E+00 0.  1.
</event>
<event>
 7    1  0.2740409E-010  0.4778728E+02  0.7816164E-02  0.1312668E+00
        -11   -1    0    0    0    0  0.00000000000E+00  0.00000000000E+00  0.45593999997E+02  0.45594000000E+02  0.51100000000E-03 0. -1.
         11   -1    0    0    0    0 -0.00000000000E+00 -0.00000000000E+00 -0.45593999997E+02  0.45594000000E+02  0.51100000000E-03 0.  1.
    9900012    2    1    2    0    0  0.43113318651E+02  0.49737139551E+01 -0.35530899057E+00  0.47787282033E+02  0.20000050101E+02 0.  0.
        -12    1    1    2    0    0 -0.43113318651E+02 -0.49737139551E+01  0.35530899057E+00  0.43400717967E+02  0.00000000000E+00 0.  1.
         11    1    3    3    0    0  0.12888789526E+02 -0.45929061331E+01  0.38656248903E+01  0.14218253699E+02  0.51100000000E-03 0. -1.
        -11    1    3    3    0    0  0.19211532668E+02  0.32382307598E+01 -0.67485002476E+01  0.20618229356E+02  0.51100000000E-03 0.  1.
         12    1    3    3    0    0  0.11012996456E+02  0.63283893285E+01  0.25275663667E+01  0.12950798978E+02  0.00000000000E+00 0. -1.
</event>
<event>
 7    1  0.2740409E-010  0.4778727E+02  0.7816164E-02  0.1312668E+00
        -11   -1    0    0    0    0  0.00000000000E+00  0.00000000000E+00  0.45593999997E+02  0.45594000000E+02  0.51100000000E-03 0.  1.
         11   -1    0    0    0    0 -0.00000000000E+00 -0.00000000000E+00 -0.45593999997E+02  0.45594000000E+02  0.51100000000E-03 0. -1.
    9900012    2    1    2    0    0  0.15688203453E+02  0.38789760385E+02  0.11526406291E+02  0.47787270971E+02  0.19999999664E+02 0.  0.
        -12    1    1    2    0    0 -0.15688203453E+02 -0.38789760385E+02 -0.11526406291E+02  0.43400729029E+02  0.00000000000E+00 0.  1.
         11    1    3    3    0    0  0.14815314837E+02  0.24090827387E+02  0.30534704020E+01  0.28446180757E+02  0.51100000000E-03 0. -1.
        -11    1    3    3    0    0  0.40175087774E+00  0.15973917050E+02  0.81783424803E+01  0.17950284557E+02  0.51100000000E-03 0.  1.
        -12    1    3    3    0    0  0.47113773841E+00 -0.12749840515E+01  0.29459340834E+00  0.13908056573E+01  0.00000000000E+00 0.  1.
</event>
<event>
 7    1  0.2740409E-010  0.4778727E+02  0.7816164E-02  0.1312668E+00
        -11   -1    0    0    0    0  0.00000000000E+00  0.00000000000E+00  0.45593999997E+02  0.45594000000E+02  0.51100000000E-03 0. -1.
         11   -1    0    0    0    0 -0.00000000000E+00 -0.00000000000E+00 -0.45593999997E+02  0.45594000000E+02  0.51100000000E-03 0.  1.
    9900012    2    1    2    0    0 -0.26680441720E+02 -0.10328672033E+02  0.32635807313E+02  0.47787270107E+02  0.19999995724E+02 0.  0.
        -12    1    1    2    0    0  0.26680441720E+02  0.10328672033E+02 -0.32635807313E+02  0.43400729893E+02  0.00000000000E+00 0.  1.
         11    1    3    3    0    0 -0.79557513184E+01 -0.22422002313E+01  0.12561084518E+02  0.15036697957E+02  0.51100000000E-03 0. -1.
        -11    1    3    3    0    0 -0.14819299087E+02 -0.11469105832E+02  0.95639010557E+01  0.21038541244E+02  0.51100000000E-03 0.  1.
        -12    1    3    3    0    0 -0.39053913147E+01  0.33826340304E+01  0.10510821739E+02  0.11712030906E+02  0.00000000000E+00 0.  1.
</event>
<event>
 7    1  0.2740409E-010  0.4778728E+02  0.7816164E-02  0.1312668E+00
        -11   -1    0    0    0    0  0.00000000000E+00  0.00000000000E+00  0.45593999997E+02  0.45594000000E+02  0.51100000000E-03 0. -1.
         11   -1    0    0    0    0 -0.00000000000E+00 -0.00000000000E+00 -0.45593999997E+02  0.45594000000E+02  0.51100000000E-03 0.  1.
    9900012    2    1    2    0    0  0.41025826981E+02 -0.33075177397E+01 -0.13768240401E+02  0.47787278845E+02  0.20000035565E+02 0.  0.
        -12    1    1    2    0    0 -0.41025826981E+02  0.33075177397E+01  0.13768240401E+02  0.43400721155E+02  0.00000000000E+00 0.  1.
         11    1    3    3    0    0  0.27023153164E+02 -0.23104837704E+01 -0.62910988872E+01  0.27841822276E+02  0.51100000000E-03 0. -1.
        -11    1    3    3    0    0  0.42903660584E+01 -0.18268345709E+01 -0.89453561513E+01  0.10087812568E+02  0.51100000000E-03 0.  1.
        -12    1    3    3    0    0  0.97123077584E+01  0.82980060164E+00  0.14682146380E+01  0.98576440013E+01  0.00000000000E+00 0.  1.
</event>
<event>
 7    1  0.2740409E-010  0.4778727E+02  0.7816164E-02  0.1312668E+00
        -11   -1    0    0    0    0  0.00000000000E+00  0.00000000000E+00  0.45593999997E+02  0.45594000000E+02  0.51100000000E-03 0.  1.
         11   -1    0    0    0    0 -0.00000000000E+00 -0.00000000000E+00 -0.45593999997E+02  0.45594000000E+02  0.51100000000E-03 0. -1.
    9900012    2    1    2    0    0 -0.25271074998E+02 -0.16834255807E+02 -0.31009739164E+02  0.47787270476E+02  0.19999997410E+02 0.  0.
        -12    1    1    2    0    0  0.25271074998E+02  0.16834255807E+02  0.31009739164E+02  0.43400729524E+02  0.00000000000E+00 0.  1.
         11    1    3    3    0    0 -0.37220319417E+01  0.78282891753E+00 -0.13005883339E+00  0.38056876448E+01  0.51100000000E-03 0. -1.
        -11    1    3    3    0    0 -0.19239541778E+02 -0.19768372833E+02 -0.24633307343E+02  0.36983082121E+02  0.51100000000E-03 0.  1.
        -12    1    3    3    0    0 -0.23095012790E+01  0.21512881088E+01 -0.62463729880E+01  0.69985007101E+01  0.00000000000E+00 0.  1.
</event>
<event>
 7    1  0.2740409E-010  0.4778727E+02  0.7816164E-02  0.1312668E+00
        -11   -1    0    0    0    0  0.00000000000E+00  0.00000000000E+00  0.45593999997E+02  0.45594000000E+02  0.51100000000E-03 0.  1.
         11   -1    0    0    0    0 -0.00000000000E+00 -0.00000000000E+00 -0.45593999997E+02  0.45594000000E+02  0.51100000000E-03 0. -1.
    9900012    2    1    2    0    0  0.17587658038E+02  0.39192439219E+02  0.61846714948E+01  0.47787272256E+02  0.20000005524E+02 0.  0.
        -12    1    1    2    0    0 -0.17587658038E+02 -0.39192439219E+02 -0.61846714948E+01  0.43400727744E+02  0.00000000000E+00 0.  1.
         11    1    3    3    0    0  0.78604992688E+01  0.29239305024E+02  0.72456954529E+00  0.30286125674E+02  0.51100000000E-03 0. -1.
        -11    1    3    3    0    0  0.34630369348E+01 -0.71072722678E+00 -0.82199754869E+00  0.36295231414E+01  0.51100000000E-03 0.  1.
        -12    1    3    3    0    0  0.62641218339E+01  0.10663861422E+02  0.62820994982E+01  0.13871623441E+02  0.00000000000E+00 0.  1.
</event>
<event>
 7    1  0.2740409E-010  0.4778727E+02  0.7816164E-02  0.1312668E+00
        -11   -1    0    0    0    0  0.00000000000E+00  0.00000000000E+00  0.45593999997E+02  0.45594000000E+02  0.51100000000E-03 0. -1.
         11   -1    0    0    0    0 -0.00000000000E+00 -0.00000000000E+00 -0.45593999997E+02  0.45594000000E+02  0.51100000000E-03 0.  1.
    9900012    2    1    2    0    0 -0.15978256967E+02 -0.38615915034E+02  0.11710237502E+02  0.47787271297E+02  0.20000001151E+02 0.  0.
        -12    1    1    2    0    0  0.15978256967E+02  0.38615915034E+02 -0.11710237502E+02  0.43400728703E+02  0.00000000000E+00 0.  1.
         11    1    3    3    0    0 -0.15845020087E+02 -0.36731350654E+02  0.77548525794E+01  0.40747938858E+02  0.51100000000E-03 0. -1.
        -11    1    3    3    0    0  0.11245526701E+01 -0.33820762767E+00 -0.10975999240E+01  0.16073981963E+01  0.51100000000E-03 0.  1.
         12    1    3    3    0    0 -0.12577895501E+01 -0.15463567528E+01  0.50529848461E+01  0.54319342424E+01  0.00000000000E+00 0. -1.
</event>
<event>
 7    1  0.2740409E-010  0.4778727E+02  0.7816164E-02  0.1312668E+00
        -11   -1    0    0    0    0  0.00000000000E+00  0.00000000000E+00  0.45593999997E+02  0.45594000000E+02  0.51100000000E-03 0. -1.
         11   -1    0    0    0    0 -0.00000000000E+00 -0.00000000000E+00 -0.45593999997E+02  0.45594000000E+02  0.51100000000E-03 0.  1.
    9900012    2    1    2    0    0 -0.39332745222E+00 -0.11947555527E+02  0.41721992588E+02  0.47787268957E+02  0.19999990485E+02 0.  0.
        -12    1    1    2    0    0  0.39332745222E+00  0.11947555527E+02 -0.41721992588E+02  0.43400731043E+02  0.00000000000E+00 0.  1.
         11    1    3    3    0    0  0.84396646564E+00 -0.78946388682E+01  0.69690875385E+01  0.10564363854E+02  0.51100000000E-03 0. -1.
        -11    1    3    3    0    0 -0.39267263495E-01  0.45635646752E+01  0.13830049644E+02  0.14563582591E+02  0.51100000000E-03 0.  1.
        -12    1    3    3    0    0 -0.11980266544E+01 -0.86164813337E+01  0.20922855405E+02  0.22659322513E+02  0.00000000000E+00 0.  1.
</event>
<event>
 7    1  0.2740409E-010  0.4778729E+02  0.7816164E-02  0.1312668E+00
        -11   -1    0    0    0    0  0.00000000000E+00  0.00000000000E+00  0.45593999997E+02  0.45594000000E+02  0.51100000000E-03 0. -1.
         11   -1    0    0    0    0 -0.00000000000E+00 -0.00000000000E+00 -0.45593999997E+02  0.45594000000E+02  0.51100000000E-03 0.  1.
    9900012    2    1    2    0    0  0.11767807725E+02 -0.40579507674E+02 -0.99219094454E+01  0.47787285389E+02  0.20000065401E+02 0.  0.
        -12    1    1    2    0    0 -0.11767807725E+02  0.40579507674E+02  0.99219094454E+01  0.43400714611E+02  0.00000000000E+00 0.  1.
         11    1    3    3    0    0  0.46469095922E+01 -0.24854879887E+02 -0.19898841331E+01  0.25363723348E+02  0.51100000000E-03 0. -1.
        -11    1    3    3    0    0  0.82610855900E+01 -0.39727441442E+01 -0.34800294957E+01  0.98050413927E+01  0.51100000000E-03 0.  1.
        -12    1    3    3    0    0 -0.11401874569E+01 -0.11751883643E+02 -0.44519958167E+01  0.12618520648E+02  0.00000000000E+00 0.  1.
</event>
<event>
 7    1  0.2740409E-010  0.4778728E+02  0.7816164E-02  0.1312668E+00
        -11   -1    0    0    0    0  0.00000000000E+00  0.00000000000E+00  0.45593999997E+02  0.45594000000E+02  0.51100000000E-03 0.  1.
         11   -1    0    0    0    0 -0.00000000000E+00 -0.00000000000E+00 -0.45593999997E+02  0.45594000000E+02  0.51100000000E-03 0. -1.
    9900012    2    1    2    0    0 -0.10822352250E+02  0.18506133190E+02 -0.37736220102E+02  0.47787279021E+02  0.20000036368E+02 0.  0.
        -12    1    1    2    0    0  0.10822352250E+02 -0.18506133190E+02  0.37736220102E+02  0.43400720979E+02  0.00000000000E+00 0.  1.
         11    1    3    3    0    0 -0.10160769126E+02  0.10861032834E+02 -0.14115490171E+02  0.20504885430E+02  0.51100000000E-03 0. -1.
        -11    1    3    3    0    0  0.10007542126E+01  0.20049374288E+01 -0.20506523017E+02  0.20628591071E+02  0.51100000000E-03 0.  1.
        -12    1    3    3    0    0 -0.16623373366E+01  0.56401629272E+01 -0.31142069141E+01  0.66538025196E+01  0.00000000000E+00 0.  1.
</event>
<event>
 7    1  0.2740409E-010  0.4778729E+02  0.7816164E-02  0.1312668E+00
        -11   -1    0    0    0    0  0.00000000000E+00  0.00000000000E+00  0.45593999997E+02  0.45594000000E+02  0.51100000000E-03 0.  1.
         11   -1    0    0    0    0 -0.00000000000E+00 -0.00000000000E+00 -0.45593999997E+02  0.45594000000E+02  0.51100000000E-03 0. -1.
    9900012    2    1    2    0    0 -0.63644279134E+01 -0.34483433389E+02 -0.25573586402E+02  0.47787292144E+02  0.20000096200E+02 0.  0.
        -12    1    1    2    0    0  0.63644279134E+01  0.34483433389E+02  0.25573586402E+02  0.43400707856E+02  0.00000000000E+00 0.  1.
         11    1    3    3    0    0  0.40751893075E+01 -0.99985882502E+01 -0.10397802368E+02  0.14989770820E+02  0.51100000000E-03 0. -1.
        -11    1    3    3    0    0 -0.98789717843E+01 -0.86069759849E+01 -0.81110139265E+01  0.15409823695E+02  0.51100000000E-03 0.  1.
         12    1    3    3    0    0 -0.56064543658E+00 -0.15877869154E+02 -0.70647701079E+01  0.17387697630E+02  0.00000000000E+00 0. -1.
</event>
<event>
 7    1  0.2740409E-010  0.4778727E+02  0.7816164E-02  0.1312668E+00
        -11   -1    0    0    0    0  0.00000000000E+00  0.00000000000E+00  0.45593999997E+02  0.45594000000E+02  0.51100000000E-03 0.  1.
         11   -1    0    0    0    0 -0.00000000000E+00 -0.00000000000E+00 -0.45593999997E+02  0.45594000000E+02  0.51100000000E-03 0. -1.
    9900012    2    1    2    0    0  0.61512518133E+01 -0.37749674648E+02 -0.20512137826E+02  0.47787266906E+02  0.19999981129E+02 0.  0.
        -12    1    1    2    0    0 -0.61512518133E+01  0.37749674648E+02  0.20512137826E+02  0.43400733094E+02  0.00000000000E+00 0.  1.
         11    1    3    3    0    0  0.13777964615E+01 -0.25264644369E+02 -0.47239077357E+01  0.25739383885E+02  0.51100000000E-03 0. -1.
        -11    1    3    3    0    0  0.19220981915E+01 -0.31374698618E+00 -0.55749930698E+01  0.59053743843E+01  0.51100000000E-03 0.  1.
        -12    1    3    3    0    0  0.28513571603E+01 -0.12171283293E+02 -0.10213237020E+02  0.16142508637E+02  0.00000000000E+00 0.  1.
</event>
<event>
 7    1  0.2740409E-010  0.4778727E+02  0.7816164E-02  0.1312668E+00
        -11   -1    0    0    0    0  0.00000000000E+00  0.00000000000E+00  0.45593999997E+02  0.45594000000E+02  0.51100000000E-03 0.  1.
         11   -1    0    0    0    0 -0.00000000000E+00 -0.00000000000E+00 -0.45593999997E+02  0.45594000000E+02  0.51100000000E-03 0. -1.
    9900012    2    1    2    0    0 -0.22693978093E+02  0.19687723626E+02 -0.31320922358E+02  0.47787270967E+02  0.19999999646E+02 0.  0.
        -12    1    1    2    0    0  0.22693978093E+02 -0.19687723626E+02  0.31320922358E+02  0.43400729033E+02  0.00000000000E+00 0.  1.
         11    1    3    3    0    0 -0.17374874629E+02  0.68846021865E+01 -0.11746416700E+02  0.22074019144E+02  0.51100000000E-03 0. -1.
        -11    1    3    3    0    0 -0.57583804322E+00  0.19729530329E+01 -0.10789317042E+02  0.10983328076E+02  0.51100000000E-03 0.  1.
         12    1    3    3    0    0 -0.47432654205E+01  0.10830168406E+02 -0.87851886163E+01  0.14729923747E+02  0.00000000000E+00 0. -1.
</event>
<event>
 7    1  0.2740409E-010  0.4778728E+02  0.7816164E-02  0.1312668E+00
        -11   -1    0    0    0    0  0.00000000000E+00  0.00000000000E+00  0.45593999997E+02  0.45594000000E+02  0.51100000000E-03 0. -1.
         11   -1    0    0    0    0 -0.00000000000E+00 -0.00000000000E+00 -0.45593999997E+02  0.45594000000E+02  0.51100000000E-03 0.  1.
    9900012    2    1    2    0    0 -0.38512158304E+02 -0.39065420212E+01  0.19625875066E+02  0.47787281344E+02  0.20000046958E+02 0.  0.
        -12    1    1    2    0    0  0.38512158304E+02  0.39065420212E+01 -0.19625875066E+02  0.43400718656E+02  0.00000000000E+00 0.  1.
         11    1    3    3    0    0 -0.84620011102E+01 -0.51619415974E+01  0.13480667255E+02  0.16732587778E+02  0.51100000000E-03 0. -1.
        -11    1    3    3    0    0 -0.14137618817E+02  0.27278210775E+01  0.19263628079E+01  0.14526670216E+02  0.51100000000E-03 0.  1.
         12    1    3    3    0    0 -0.15912538377E+02 -0.14724215013E+01  0.42188450027E+01  0.16528023349E+02  0.00000000000E+00 0. -1.
</event>
<event>
 7    1  0.2740409E-010  0.4778727E+02  0.7816164E-02  0.1312668E+00
        -11   -1    0    0    0    0  0.00000000000E+00  0.00000000000E+00  0.45593999997E+02  0.45594000000E+02  0.51100000000E-03 0.  1.
         11   -1    0    0    0    0 -0.00000000000E+00 -0.00000000000E+00 -0.45593999997E+02  0.45594000000E+02  0.51100000000E-03 0. -1.
    9900012    2    1    2    0    0  0.17520978763E+02 -0.60438769025E+01 -0.39244240006E+02  0.47787268226E+02  0.19999987152E+02 0.  0.
        -12    1    1    2    0    0 -0.17520978763E+02  0.60438769025E+01  0.39244240006E+02  0.43400731774E+02  0.00000000000E+00 0.  1.
         11    1    3    3    0    0  0.69630063440E+01  0.15120587109E+01 -0.21642999448E+02  0.22785723694E+02  0.51100000000E-03 0. -1.
        -11    1    3    3    0    0  0.65262649393E+01 -0.10769933850E+02 -0.12168048581E+02  0.17511282526E+02  0.51100000000E-03 0.  1.
         12    1    3    3    0    0  0.40317074798E+01  0.32139982362E+01 -0.54331919776E+01  0.74902620068E+01  0.00000000000E+00 0. -1.
</event>
<event>
 7    1  0.2740409E-010  0.4778727E+02  0.7816164E-02  0.1312668E+00
        -11   -1    0    0    0    0  0.00000000000E+00  0.00000000000E+00  0.45593999997E+02  0.45594000000E+02  0.51100000000E-03 0.  1.
         11   -1    0    0    0    0 -0.00000000000E+00 -0.00000000000E+00 -0.45593999997E+02  0.45594000000E+02  0.51100000000E-03 0. -1.
    9900012    2    1    2    0    0 -0.13077806648E+02  0.31528860316E+02 -0.26805320133E+02  0.47787271354E+02  0.20000001414E+02 0.  0.
        -12    1    1    2    0    0  0.13077806648E+02 -0.31528860316E+02  0.26805320133E+02  0.43400728646E+02  0.00000000000E+00 0.  1.
         11    1    3    3    0    0 -0.58542756041E+01  0.37714304523E+01 -0.91299952624E+01  0.11482728084E+02  0.51100000000E-03 0. -1.
        -11    1    3    3    0    0  0.13990677797E+01  0.19912929340E+02 -0.12480647788E+02  0.23542487443E+02  0.51100000000E-03 0.  1.
        -12    1    3    3    0    0 -0.86225988234E+01  0.78445005239E+01 -0.51946770823E+01  0.12762055827E+02  0.00000000000E+00 0.  1.
</event>
<event>
 7    1  0.2740409E-010  0.4778727E+02  0.7816164E-02  0.1312668E+00
        -11   -1    0    0    0    0  0.00000000000E+00  0.00000000000E+00  0.45593999997E+02  0.45594000000E+02  0.51100000000E-03 0.  1.
         11   -1    0    0    0    0 -0.00000000000E+00 -0.00000000000E+00 -0.45593999997E+02  0.45594000000E+02  0.51100000000E-03 0. -1.
    9900012    2    1    2    0    0 -0.36057578177E+02  0.23675058985E+02 -0.47922647731E+01  0.47787272315E+02  0.20000005792E+02 0.  0.
        -12    1    1    2    0    0  0.36057578177E+02 -0.23675058985E+02  0.47922647731E+01  0.43400727685E+02  0.00000000000E+00 0.  1.
         11    1    3    3    0    0 -0.16678691257E+02  0.99177466581E+01 -0.67562479758E+01  0.20547197565E+02  0.51100000000E-03 0. -1.
        -11    1    3    3    0    0 -0.19281066417E+01 -0.20240652680E+01  0.24347061183E+01  0.37070513316E+01  0.51100000000E-03 0.  1.
        -12    1    3    3    0    0 -0.17450780279E+02  0.15781377595E+02 -0.47072291568E+00  0.23533023418E+02  0.00000000000E+00 0.  1.
</event>
<event>
 7    1  0.2740409E-010  0.4778727E+02  0.7816164E-02  0.1312668E+00
        -11   -1    0    0    0    0  0.00000000000E+00  0.00000000000E+00  0.45593999997E+02  0.45594000000E+02  0.51100000000E-03 0.  1.
         11   -1    0    0    0    0 -0.00000000000E+00 -0.00000000000E+00 -0.45593999997E+02  0.45594000000E+02  0.51100000000E-03 0. -1.
    9900012    2    1    2    0    0  0.21314492843E+02  0.35667916713E+02 -0.12534564166E+02  0.47787272049E+02  0.20000004582E+02 0.  0.
        -12    1    1    2    0    0 -0.21314492843E+02 -0.35667916713E+02  0.12534564166E+02  0.43400727951E+02  0.00000000000E+00 0.  1.
         11    1    3    3    0    0  0.37732431755E+01  0.10241270645E+02 -0.50968699783E+00  0.10926150721E+02  0.51100000000E-03 0. -1.
        -11    1    3    3    0    0  0.17030366958E+02  0.26769316496E+02 -0.13781971126E+02  0.34591508102E+02  0.51100000000E-03 0.  1.
        -12    1    3    3    0    0  0.51088270994E+00 -0.13426704278E+01  0.17570939578E+01  0.22696132264E+01  0.00000000000E+00 0.  1.
</event>
<event>
 7    1  0.2740409E-010  0.4778727E+02  0.7816164E-02  0.1312668E+00
        -11   -1    0    0    0    0  0.00000000000E+00  0.00000000000E+00  0.45593999997E+02  0.45594000000E+02  0.51100000000E-03 0. -1.
         11   -1    0    0    0    0 -0.00000000000E+00 -0.00000000000E+00 -0.45593999997E+02  0.45594000000E+02  0.51100000000E-03 0.  1.
    9900012    2    1    2    0    0  0.97164390172E+01  0.39800675077E+02  0.14322022483E+02  0.47787271299E+02  0.20000001159E+02 0.  0.
        -12    1    1    2    0    0 -0.97164390172E+01 -0.39800675077E+02 -0.14322022483E+02  0.43400728701E+02  0.00000000000E+00 0.  1.
         11    1    3    3    0    0 -0.22255642984E+01  0.65139131641E+01  0.57718845735E+01  0.89832540288E+01  0.51100000000E-03 0. -1.
        -11    1    3    3    0    0  0.56214700161E+01  0.12497425610E+02 -0.32416506987E+01  0.14081721185E+02  0.51100000000E-03 0.  1.
        -12    1    3    3    0    0  0.63205332995E+01  0.20789336304E+02  0.11791788608E+02  0.24722296085E+02  0.00000000000E+00 0.  1.
</event>
<event>
 7    1  0.2740409E-010  0.4778727E+02  0.7816164E-02  0.1312668E+00
        -11   -1    0    0    0    0  0.00000000000E+00  0.00000000000E+00  0.45593999997E+02  0.45594000000E+02  0.51100000000E-03 0.  1.
         11   -1    0    0    0    0 -0.00000000000E+00 -0.00000000000E+00 -0.45593999997E+02  0.45594000000E+02  0.51100000000E-03 0. -1.
    9900012    2    1    2    0    0  0.19642113097E+02  0.63179536561E+00 -0.38696397921E+02  0.47787274380E+02  0.20000015208E+02 0.  0.
        -12    1    1    2    0    0 -0.19642113097E+02 -0.63179536561E+00  0.38696397921E+02  0.43400725620E+02  0.00000000000E+00 0.  1.
         11    1    3    3    0    0  0.38486686677E+01  0.55955800545E+01 -0.17268398789E+02  0.18555871407E+02  0.51100000000E-03 0. -1.
        -11    1    3    3    0    0  0.52476761235E+01 -0.58580801750E+01 -0.39555612752E+01  0.88035034672E+01  0.51100000000E-03 0.  1.
        -12    1    3    3    0    0  0.10545768306E+02  0.89429548614E+00 -0.17472437856E+02  0.20427899506E+02  0.00000000000E+00 0.  1.
</event>
<event>
 7    1  0.2740409E-010  0.4778727E+02  0.7816164E-02  0.1312668E+00
        -11   -1    0    0    0    0  0.00000000000E+00  0.00000000000E+00  0.45593999997E+02  0.45594000000E+02  0.51100000000E-03 0. -1.
         11   -1    0    0    0    0 -0.00000000000E+00 -0.00000000000E+00 -0.45593999997E+02  0.45594000000E+02  0.51100000000E-03 0.  1.
    9900012    2    1    2    0    0 -0.33785879789E+02  0.22863813345E+02 -0.14811603998E+02  0.47787271356E+02  0.20000001422E+02 0.  0.
        -12    1    1    2    0    0  0.33785879789E+02 -0.22863813345E+02  0.14811603998E+02  0.43400728644E+02  0.00000000000E+00 0.  1.
         11    1    3    3    0    0 -0.18777991792E+02  0.29481809565E+01 -0.10450898999E+02  0.21691612131E+02  0.51100000000E-03 0. -1.
        -11    1    3    3    0    0 -0.11787118902E+02  0.16939168338E+02 -0.58740583359E+01  0.21456378016E+02  0.51100000000E-03 0.  1.
        -12    1    3    3    0    0 -0.32207690961E+01  0.29764640505E+01  0.15133533376E+01  0.46392812093E+01  0.00000000000E+00 0.  1.
</event>
<event>
 7    1  0.2740409E-010  0.4778727E+02  0.7816164E-02  0.1312668E+00
        -11   -1    0    0    0    0  0.00000000000E+00  0.00000000000E+00  0.45593999997E+02  0.45594000000E+02  0.51100000000E-03 0.  1.
         11   -1    0    0    0    0 -0.00000000000E+00 -0.00000000000E+00 -0.45593999997E+02  0.45594000000E+02  0.51100000000E-03 0. -1.
    9900012    2    1    2    0    0 -0.13876690425E+01 -0.26880583374E+02 -0.34046021084E+02  0.47787274896E+02  0.20000017561E+02 0.  0.
        -12    1    1    2    0    0  0.13876690425E+01  0.26880583374E+02  0.34046021084E+02  0.43400725104E+02  0.00000000000E+00 0.  1.
         11    1    3    3    0    0  0.65451555475E+01 -0.15589781220E+02 -0.12526160191E+02  0.21042457770E+02  0.51100000000E-03 0. -1.
        -11    1    3    3    0    0 -0.52781065468E+01 -0.72016270683E+01 -0.67555849820E+01  0.11196417724E+02  0.51100000000E-03 0.  1.
         12    1    3    3    0    0 -0.26547180433E+01 -0.40891750857E+01 -0.14764275911E+02  0.15548399401E+02  0.00000000000E+00 0. -1.
</event>
<event>
 7    1  0.2740409E-010  0.4778727E+02  0.7816164E-02  0.1312668E+00
        -11   -1    0    0    0    0  0.00000000000E+00  0.00000000000E+00  0.45593999997E+02  0.45594000000E+02  0.51100000000E-03 0.  1.
         11   -1    0    0    0    0 -0.00000000000E+00 -0.00000000000E+00 -0.45593999997E+02  0.45594000000E+02  0.51100000000E-03 0. -1.
    9900012    2    1    2    0    0  0.93840731024E+01  0.28164449285E+02 -0.31659531417E+02  0.47787274649E+02  0.20000016432E+02 0.  0.
        -12    1    1    2    0    0 -0.93840731024E+01 -0.28164449285E+02  0.31659531417E+02  0.43400725351E+02  0.00000000000E+00 0.  1.
         11    1    3    3    0    0  0.77940002513E+01  0.13234712415E+02 -0.23429799039E+02  0.28015344651E+02  0.51100000000E-03 0. -1.
        -11    1    3    3    0    0 -0.24448116178E+01  0.13976080453E+01  0.90037189874E+00  0.29565320753E+01  0.51100000000E-03 0.  1.
         12    1    3    3    0    0  0.40348844690E+01  0.13532128824E+02 -0.91301042766E+01  0.16815397923E+02  0.00000000000E+00 0. -1.
</event>
<event>
 7    1  0.2740409E-010  0.4778729E+02  0.7816164E-02  0.1312668E+00
        -11   -1    0    0    0    0  0.00000000000E+00  0.00000000000E+00  0.45593999997E+02  0.45594000000E+02  0.51100000000E-03 0. -1.
         11   -1    0    0    0    0 -0.00000000000E+00 -0.00000000000E+00 -0.45593999997E+02  0.45594000000E+02  0.51100000000E-03 0.  1.
    9900012    2    1    2    0    0  0.37237017702E+02 -0.14118286152E+01  0.22249336884E+02  0.47787288726E+02  0.20000080615E+02 0.  0.
        -12    1    1    2    0    0 -0.37237017702E+02  0.14118286152E+01 -0.22249336884E+02  0.43400711274E+02  0.00000000000E+00 0.  1.
         11    1    3    3    0    0  0.13167792938E+02 -0.14751698453E+01  0.84640281447E+01  0.15722807307E+02  0.51100000000E-03 0. -1.
        -11    1    3    3    0    0  0.17443670109E+02  0.62033301243E+01  0.13698948876E+02  0.23030938584E+02  0.51100000000E-03 0.  1.
        -12    1    3    3    0    0  0.66255546551E+01 -0.61399888942E+01  0.86359862840E-01  0.90335428340E+01  0.00000000000E+00 0.  1.
</event>
<event>
 7    1  0.2740409E-010  0.4778727E+02  0.7816164E-02  0.1312668E+00
        -11   -1    0    0    0    0  0.00000000000E+00  0.00000000000E+00  0.45593999997E+02  0.45594000000E+02  0.51100000000E-03 0. -1.
         11   -1    0    0    0    0 -0.00000000000E+00 -0.00000000000E+00 -0.45593999997E+02  0.45594000000E+02  0.51100000000E-03 0.  1.
    9900012    2    1    2    0    0 -0.78891508316E+01 -0.42023472661E+02  0.74439293115E+01  0.47787273751E+02  0.20000012339E+02 0.  0.
        -12    1    1    2    0    0  0.78891508316E+01  0.42023472661E+02 -0.74439293115E+01  0.43400726249E+02  0.00000000000E+00 0.  1.
         11    1    3    3    0    0 -0.49967544902E+00 -0.33502735458E+02  0.93578819857E+01  0.34788689458E+02  0.51100000000E-03 0. -1.
        -11    1    3    3    0    0 -0.45528721825E+01 -0.93993337387E+00  0.12879327571E+00  0.46506674603E+01  0.51100000000E-03 0.  1.
         12    1    3    3    0    0 -0.28366032001E+01 -0.75808038300E+01 -0.20427459498E+01  0.83479168323E+01  0.00000000000E+00 0. -1.
</event>
<event>
 7    1  0.2740409E-010  0.4778727E+02  0.7816164E-02  0.1312668E+00
        -11   -1    0    0    0    0  0.00000000000E+00  0.00000000000E+00  0.45593999997E+02  0.45594000000E+02  0.51100000000E-03 0.  1.
         11   -1    0    0    0    0 -0.00000000000E+00 -0.00000000000E+00 -0.45593999997E+02  0.45594000000E+02  0.51100000000E-03 0. -1.
    9900012    2    1    2    0    0  0.84400605695E+01  0.15538626000E+02 -0.39635083428E+02  0.47787270067E+02  0.19999995545E+02 0.  0.
        -12    1    1    2    0    0 -0.84400605695E+01 -0.15538626000E+02  0.39635083428E+02  0.43400729933E+02  0.00000000000E+00 0.  1.
         11    1    3    3    0    0 -0.31069149247E+01  0.44473093015E+01 -0.23076408130E+01  0.58954801972E+01  0.51100000000E-03 0. -1.
        -11    1    3    3    0    0 -0.21099133980E+00  0.48516294038E+01 -0.16276057757E+02  0.16985078204E+02  0.51100000000E-03 0.  1.
         12    1    3    3    0    0  0.11757966834E+02  0.62396872945E+01 -0.21051384858E+02  0.24906711666E+02  0.00000000000E+00 0. -1.
</event>
<event>
 7    1  0.2740409E-010  0.4778727E+02  0.7816164E-02  0.1312668E+00
        -11   -1    0    0    0    0  0.00000000000E+00  0.00000000000E+00  0.45593999997E+02  0.45594000000E+02  0.51100000000E-03 0. -1.
         11   -1    0    0    0    0 -0.00000000000E+00 -0.00000000000E+00 -0.45593999997E+02  0.45594000000E+02  0.51100000000E-03 0.  1.
    9900012    2    1    2    0    0 -0.13054391668E+01 -0.85653826280E+01  0.42527090916E+02  0.47787269444E+02  0.19999992705E+02 0.  0.
        -12    1    1    2    0    0  0.13054391668E+01  0.85653826280E+01 -0.42527090916E+02  0.43400730556E+02  0.00000000000E+00 0.  1.
         11    1    3    3    0    0 -0.13965100268E+01  0.22638246854E+01  0.23990884147E+02  0.24137888575E+02  0.51100000000E-03 0. -1.
        -11    1    3    3    0    0 -0.85090197499E+00 -0.12601682085E+02  0.15281618634E+02  0.19825596936E+02  0.51100000000E-03 0.  1.
        -12    1    3    3    0    0  0.94197283494E+00  0.17724747715E+01  0.32545881354E+01  0.38237839333E+01  0.00000000000E+00 0.  1.
</event>
<event>
 7    1  0.2740409E-010  0.4778727E+02  0.7816164E-02  0.1312668E+00
        -11   -1    0    0    0    0  0.00000000000E+00  0.00000000000E+00  0.45593999997E+02  0.45594000000E+02  0.51100000000E-03 0.  1.
         11   -1    0    0    0    0 -0.00000000000E+00 -0.00000000000E+00 -0.45593999997E+02  0.45594000000E+02  0.51100000000E-03 0. -1.
    9900012    2    1    2    0    0 -0.21010031848E+02  0.13040782184E+02 -0.35667070512E+02  0.47787270085E+02  0.19999995627E+02 0.  0.
        -12    1    1    2    0    0  0.21010031848E+02 -0.13040782184E+02  0.35667070512E+02  0.43400729915E+02  0.00000000000E+00 0.  1.
         11    1    3    3    0    0 -0.12404024626E+02  0.13349124734E+02 -0.26185747323E+02  0.31902230662E+02  0.51100000000E-03 0. -1.
        -11    1    3    3    0    0  0.10736513146E+01  0.19138874984E+01 -0.39460469510E+01  0.45151942707E+01  0.51100000000E-03 0.  1.
         12    1    3    3    0    0 -0.96796585363E+01 -0.22222300478E+01 -0.55352762376E+01  0.11369845152E+02  0.00000000000E+00 0. -1.
</event>
<event>
 7    1  0.2740409E-010  0.4778728E+02  0.7816164E-02  0.1312668E+00
        -11   -1    0    0    0    0  0.00000000000E+00  0.00000000000E+00  0.45593999997E+02  0.45594000000E+02  0.51100000000E-03 0.  1.
         11   -1    0    0    0    0 -0.00000000000E+00 -0.00000000000E+00 -0.45593999997E+02  0.45594000000E+02  0.51100000000E-03 0. -1.
    9900012    2    1    2    0    0  0.32750607148E+01  0.41850396317E+02 -0.11020021916E+02  0.47787279065E+02  0.20000036571E+02 0.  0.
        -12    1    1    2    0    0 -0.32750607148E+01 -0.41850396317E+02  0.11020021916E+02  0.43400720935E+02  0.00000000000E+00 0.  1.
         11    1    3    3    0    0  0.27648410597E+01  0.15491449626E+02 -0.54567300367E+01  0.16655487401E+02  0.51100000000E-03 0. -1.
        -11    1    3    3    0    0 -0.39884273627E+01  0.22257063240E+02 -0.87677654456E+01  0.24251971632E+02  0.51100000000E-03 0.  1.
        -12    1    3    3    0    0  0.44986470178E+01  0.41018834515E+01  0.32044735663E+01  0.68798200323E+01  0.00000000000E+00 0.  1.
</event>
<event>
 7    1  0.2740409E-010  0.4778727E+02  0.7816164E-02  0.1312668E+00
        -11   -1    0    0    0    0  0.00000000000E+00  0.00000000000E+00  0.45593999997E+02  0.45594000000E+02  0.51100000000E-03 0.  1.
         11   -1    0    0    0    0 -0.00000000000E+00 -0.00000000000E+00 -0.45593999997E+02  0.45594000000E+02  0.51100000000E-03 0. -1.
    9900012    2    1    2    0    0  0.13558417567E+02 -0.16892640041E+02 -0.37608925664E+02  0.47787271157E+02  0.20000000514E+02 0.  0.
        -12    1    1    2    0    0 -0.13558417567E+02  0.16892640041E+02  0.37608925664E+02  0.43400728843E+02  0.00000000000E+00 0.  1.
         11    1    3    3    0    0  0.11066980244E+02 -0.20874667374E+02 -0.26061054173E+02  0.35176815299E+02  0.51100000000E-03 0. -1.
        -11    1    3    3    0    0  0.22904521738E+01  0.28301417237E+01 -0.67191278276E+01  0.76421562638E+01  0.51100000000E-03 0.  1.
         12    1    3    3    0    0  0.20098514999E+00  0.11518856100E+01 -0.48287436639E+01  0.49682995945E+01  0.00000000000E+00 0. -1.
</event>
<event>
 7    1  0.2740409E-010  0.4778726E+02  0.7816164E-02  0.1312668E+00
        -11   -1    0    0    0    0  0.00000000000E+00  0.00000000000E+00  0.45593999997E+02  0.45594000000E+02  0.51100000000E-03 0. -1.
         11   -1    0    0    0    0 -0.00000000000E+00 -0.00000000000E+00 -0.45593999997E+02  0.45594000000E+02  0.51100000000E-03 0.  1.
    9900012    2    1    2    0    0  0.24649239644E+02  0.34704657724E+02  0.84631930318E+01  0.47787263612E+02  0.19999966112E+02 0.  0.
        -12    1    1    2    0    0 -0.24649239644E+02 -0.34704657724E+02 -0.84631930318E+01  0.43400736388E+02  0.00000000000E+00 0.  1.
         11    1    3    3    0    0  0.11171986615E+02  0.18916494515E+02  0.95264429998E+01  0.23945775538E+02  0.51100000000E-03 0. -1.
        -11    1    3    3    0    0  0.66218950012E+01  0.20091198245E-01 -0.15706710575E+00  0.66237879947E+01  0.51100000000E-03 0.  1.
        -12    1    3    3    0    0  0.68553580280E+01  0.15768072011E+02 -0.90618286230E+00  0.17217700079E+02  0.00000000000E+00 0.  1.
</event>
<event>
 7    1  0.2740409E-010  0.4778727E+02  0.7816164E-02  0.1312668E+00
        -11   -1    0    0    0    0  0.00000000000E+00  0.00000000000E+00  0.45593999997E+02  0.45594000000E+02  0.51100000000E-03 0. -1.
         11   -1    0    0    0    0 -0.00000000000E+00 -0.00000000000E+00 -0.45593999997E+02  0.45594000000E+02  0.51100000000E-03 0.  1.
    9900012    2    1    2    0    0 -0.18527129491E+02  0.50609139070E+01  0.38919863995E+02  0.47787272009E+02  0.20000004398E+02 0.  0.
        -12    1    1    2    0    0  0.18527129491E+02 -0.50609139070E+01 -0.38919863995E+02  0.43400727991E+02  0.00000000000E+00 0.  1.
         11    1    3    3    0    0 -0.24385642457E+01  0.44990701561E+01  0.25882674990E+02  0.26383727803E+02  0.51100000000E-03 0. -1.
        -11    1    3    3    0    0 -0.14639506421E+02  0.21785709492E+01  0.11233537742E+02  0.18581003473E+02  0.51100000000E-03 0.  1.
         12    1    3    3    0    0 -0.14490588245E+01 -0.16167271984E+01  0.18036512632E+01  0.28225407331E+01  0.00000000000E+00 0. -1.
</event>
<event>
 7    1  0.2740409E-010  0.4778729E+02  0.7816164E-02  0.1312668E+00
        -11   -1    0    0    0    0  0.00000000000E+00  0.00000000000E+00  0.45593999997E+02  0.45594000000E+02  0.51100000000E-03 0. -1.
         11   -1    0    0    0    0 -0.00000000000E+00 -0.00000000000E+00 -0.45593999997E+02  0.45594000000E+02  0.51100000000E-03 0.  1.
    9900012    2    1    2    0    0  0.19904009830E+02 -0.21991466321E+01  0.38504748285E+02  0.47787291553E+02  0.20000093507E+02 0.  0.
        -12    1    1    2    0    0 -0.19904009830E+02  0.21991466321E+01 -0.38504748285E+02  0.43400708447E+02  0.00000000000E+00 0.  1.
         11    1    3    3    0    0  0.37341988275E+01  0.73280577409E+01  0.10781717133E+02  0.13560608236E+02  0.51100000000E-03 0. -1.
        -11    1    3    3    0    0 -0.18007787471E+00 -0.25783185397E+00 -0.33243629589E+00  0.45762370768E+00  0.51100000000E-03 0.  1.
         12    1    3    3    0    0  0.16349888877E+02 -0.92693725190E+01  0.28055467448E+02  0.33769059610E+02  0.00000000000E+00 0. -1.
</event>
<event>
 7    1  0.2740409E-010  0.4778727E+02  0.7816164E-02  0.1312668E+00
        -11   -1    0    0    0    0  0.00000000000E+00  0.00000000000E+00  0.45593999997E+02  0.45594000000E+02  0.51100000000E-03 0.  1.
         11   -1    0    0    0    0 -0.00000000000E+00 -0.00000000000E+00 -0.45593999997E+02  0.45594000000E+02  0.51100000000E-03 0. -1.
    9900012    2    1    2    0    0  0.11008046591E+01 -0.43076857197E+02 -0.51764577804E+01  0.47787272909E+02  0.20000008500E+02 0.  0.
        -12    1    1    2    0    0 -0.11008046591E+01  0.43076857197E+02  0.51764577804E+01  0.43400727091E+02  0.00000000000E+00 0.  1.
         11    1    3    3    0    0  0.12590837090E+00 -0.28143066464E+02 -0.10086334254E+02  0.29896190090E+02  0.51100000000E-03 0. -1.
        -11    1    3    3    0    0  0.14232858387E+01  0.13581836862E+00  0.21227438463E+01  0.25593418893E+01  0.51100000000E-03 0.  1.
        -12    1    3    3    0    0 -0.44838955043E+00 -0.15069609102E+02  0.27871326269E+01  0.15331740930E+02  0.00000000000E+00 0.  1.
</event>
<event>
 7    1  0.2740409E-010  0.4778727E+02  0.7816164E-02  0.1312668E+00
        -11   -1    0    0    0    0  0.00000000000E+00  0.00000000000E+00  0.45593999997E+02  0.45594000000E+02  0.51100000000E-03 0.  1.
         11   -1    0    0    0    0 -0.00000000000E+00 -0.00000000000E+00 -0.45593999997E+02  0.45594000000E+02  0.51100000000E-03 0. -1.
    9900012    2    1    2    0    0 -0.20263499607E+02  0.17477194547E+02 -0.34169597620E+02  0.47787272506E+02  0.20000006662E+02 0.  0.
        -12    1    1    2    0    0  0.20263499607E+02 -0.17477194547E+02  0.34169597620E+02  0.43400727494E+02  0.00000000000E+00 0.  1.
         11    1    3    3    0    0 -0.35675099549E+01  0.19672276095E+01 -0.41506825841E+01  0.58159503025E+01  0.51100000000E-03 0. -1.
        -11    1    3    3    0    0 -0.54286546561E+01  0.14778264452E+02 -0.90601152550E+01  0.18164610656E+02  0.51100000000E-03 0.  1.
        -12    1    3    3    0    0 -0.11267334996E+02  0.73170248496E+00 -0.20958799780E+02  0.23806711547E+02  0.00000000000E+00 0.  1.
</event>
<event>
 7    1  0.2740409E-010  0.4778726E+02  0.7816164E-02  0.1312668E+00
        -11   -1    0    0    0    0  0.00000000000E+00  0.00000000000E+00  0.45593999997E+02  0.45594000000E+02  0.51100000000E-03 0.  1.
         11   -1    0    0    0    0 -0.00000000000E+00 -0.00000000000E+00 -0.45593999997E+02  0.45594000000E+02  0.51100000000E-03 0. -1.
    9900012    2    1    2    0    0  0.17377635170E+02 -0.24534538829E+02 -0.31300128612E+02  0.47787264398E+02  0.19999969697E+02 0.  0.
        -12    1    1    2    0    0 -0.17377635170E+02  0.24534538829E+02  0.31300128612E+02  0.43400735602E+02  0.00000000000E+00 0.  1.
         11    1    3    3    0    0  0.12412781667E+02 -0.18673160802E+02 -0.14007559247E+02  0.26438150453E+02  0.51100000000E-03 0. -1.
        -11    1    3    3    0    0  0.24631196840E+01 -0.12465475698E+01  0.49370555941E+00  0.28043867176E+01  0.51100000000E-03 0.  1.
         12    1    3    3    0    0  0.25017338190E+01 -0.46148304568E+01 -0.17786274925E+02  0.18544727227E+02  0.00000000000E+00 0. -1.
</event>
<event>
 7    1  0.2740409E-010  0.4778727E+02  0.7816164E-02  0.1312668E+00
        -11   -1    0    0    0    0  0.00000000000E+00  0.00000000000E+00  0.45593999997E+02  0.45594000000E+02  0.51100000000E-03 0. -1.
         11   -1    0    0    0    0 -0.00000000000E+00 -0.00000000000E+00 -0.45593999997E+02  0.45594000000E+02  0.51100000000E-03 0.  1.
    9900012    2    1    2    0    0 -0.13419172188E+02  0.97029121296E+01  0.40117361007E+02  0.47787270281E+02  0.19999996519E+02 0.  0.
        -12    1    1    2    0    0  0.13419172188E+02 -0.97029121296E+01 -0.40117361007E+02  0.43400729719E+02  0.00000000000E+00 0.  1.
         11    1    3    3    0    0 -0.93367720502E+01  0.12277151961E+02  0.19779333981E+02  0.25082380780E+02  0.51100000000E-03 0. -1.
        -11    1    3    3    0    0 -0.31861990716E+01 -0.56900651967E+01  0.10642552147E+02  0.12481691509E+02  0.51100000000E-03 0.  1.
        -12    1    3    3    0    0 -0.89620106593E+00  0.31158253650E+01  0.96954748782E+01  0.10223197991E+02  0.00000000000E+00 0.  1.
</event>
<event>
 7    1  0.2740409E-010  0.4778727E+02  0.7816164E-02  0.1312668E+00
        -11   -1    0    0    0    0  0.00000000000E+00  0.00000000000E+00  0.45593999997E+02  0.45594000000E+02  0.51100000000E-03 0.  1.
         11   -1    0    0    0    0 -0.00000000000E+00 -0.00000000000E+00 -0.45593999997E+02  0.45594000000E+02  0.51100000000E-03 0. -1.
    9900012    2    1    2    0    0  0.28857620739E+02  0.10058866308E+02 -0.30816887636E+02  0.47787266945E+02  0.19999981311E+02 0.  0.
        -12    1    1    2    0    0 -0.28857620739E+02 -0.10058866308E+02  0.30816887636E+02  0.43400733055E+02  0.00000000000E+00 0.  1.
         11    1    3    3    0    0  0.20399587686E+02  0.11386581892E+01 -0.11248044705E+02  0.23322912128E+02  0.51100000000E-03 0. -1.
        -11    1    3    3    0    0  0.23533708877E+01  0.81498727193E+01 -0.10374721889E+02  0.13401254957E+02  0.51100000000E-03 0.  1.
        -12    1    3    3    0    0  0.61046621661E+01  0.77033539910E+00 -0.91941210419E+01  0.11063099860E+02  0.00000000000E+00 0.  1.
</event>
<event>
 7    1  0.2740409E-010  0.4778727E+02  0.7816164E-02  0.1312668E+00
        -11   -1    0    0    0    0  0.00000000000E+00  0.00000000000E+00  0.45593999997E+02  0.45594000000E+02  0.51100000000E-03 0.  1.
         11   -1    0    0    0    0 -0.00000000000E+00 -0.00000000000E+00 -0.45593999997E+02  0.45594000000E+02  0.51100000000E-03 0. -1.
    9900012    2    1    2    0    0  0.35743804369E+02  0.24447588010E+02  0.28843115012E+01  0.47787270016E+02  0.19999995311E+02 0.  0.
        -12    1    1    2    0    0 -0.35743804369E+02 -0.24447588010E+02 -0.28843115012E+01  0.43400729984E+02  0.00000000000E+00 0.  1.
         11    1    3    3    0    0  0.17189640284E+02  0.12073193775E+02  0.29616515521E+01  0.21213606982E+02  0.51100000000E-03 0. -1.
        -11    1    3    3    0    0  0.41197612870E+00 -0.92829747734E+00 -0.36557154538E+01  0.37941687202E+01  0.51100000000E-03 0.  1.
        -12    1    3    3    0    0  0.18142187957E+02  0.13302691712E+02  0.35783754028E+01  0.22779494313E+02  0.00000000000E+00 0.  1.
</event>
<event>
 7    1  0.2740409E-010  0.4778727E+02  0.7816164E-02  0.1312668E+00
        -11   -1    0    0    0    0  0.00000000000E+00  0.00000000000E+00  0.45593999997E+02  0.45594000000E+02  0.51100000000E-03 0.  1.
         11   -1    0    0    0    0 -0.00000000000E+00 -0.00000000000E+00 -0.45593999997E+02  0.45594000000E+02  0.51100000000E-03 0. -1.
    9900012    2    1    2    0    0 -0.17970246651E+02  0.31163794706E+02  0.24279854274E+02  0.47787272025E+02  0.20000004471E+02 0.  0.
        -12    1    1    2    0    0  0.17970246651E+02 -0.31163794706E+02 -0.24279854274E+02  0.43400727975E+02  0.00000000000E+00 0.  1.
         11    1    3    3    0    0 -0.12500891348E+02  0.93034469532E+01  0.82595439528E+01  0.17636509753E+02  0.51100000000E-03 0. -1.
        -11    1    3    3    0    0  0.14860996336E+01  0.80723276936E+01  0.11369266570E+02  0.14022524349E+02  0.51100000000E-03 0.  1.
        -12    1    3    3    0    0 -0.69554549359E+01  0.13788020059E+02  0.46510437519E+01  0.16128237923E+02  0.00000000000E+00 0.  1.
</event>
<event>
 7    1  0.2740409E-010  0.4778728E+02  0.7816164E-02  0.1312668E+00
        -11   -1    0    0    0    0  0.00000000000E+00  0.00000000000E+00  0.45593999997E+02  0.45594000000E+02  0.51100000000E-03 0.  1.
         11   -1    0    0    0    0 -0.00000000000E+00 -0.00000000000E+00 -0.45593999997E+02  0.45594000000E+02  0.51100000000E-03 0. -1.
    9900012    2    1    2    0    0 -0.30067587268E+02  0.29283429712E+02 -0.11047327842E+02  0.47787279819E+02  0.20000040006E+02 0.  0.
        -12    1    1    2    0    0  0.30067587268E+02 -0.29283429712E+02  0.11047327842E+02  0.43400720181E+02  0.00000000000E+00 0.  1.
         11    1    3    3    0    0 -0.10127635280E+02  0.10703316774E+02 -0.77632089151E+01  0.16655251402E+02  0.51100000000E-03 0. -1.
        -11    1    3    3    0    0 -0.74162989059E+01  0.78488941094E+01  0.58477564465E+01  0.12280182569E+02  0.51100000000E-03 0.  1.
        -12    1    3    3    0    0 -0.12523653082E+02  0.10731218828E+02 -0.91318753732E+01  0.18851845848E+02  0.00000000000E+00 0.  1.
</event>
<event>
 7    1  0.2740409E-010  0.4778727E+02  0.7816164E-02  0.1312668E+00
        -11   -1    0    0    0    0  0.00000000000E+00  0.00000000000E+00  0.45593999997E+02  0.45594000000E+02  0.51100000000E-03 0.  1.
         11   -1    0    0    0    0 -0.00000000000E+00 -0.00000000000E+00 -0.45593999997E+02  0.45594000000E+02  0.51100000000E-03 0. -1.
    9900012    2    1    2    0    0 -0.15550626343E+02  0.18879176861E+02 -0.35852168187E+02  0.47787271178E+02  0.20000000608E+02 0.  0.
        -12    1    1    2    0    0  0.15550626343E+02 -0.18879176861E+02  0.35852168187E+02  0.43400728822E+02  0.00000000000E+00 0.  1.
         11    1    3    3    0    0  0.64354852423E-01  0.93243604633E+01 -0.20355618041E+02  0.22389708030E+02  0.51100000000E-03 0.  1.
        -11    1    3    3    0    0 -0.78812605877E+01  0.28298279754E+01 -0.22910214607E+01  0.86816458357E+01  0.51100000000E-03 0. -1.
         12    1    3    3    0    0 -0.77337206073E+01  0.67249884223E+01 -0.13205528686E+02  0.16715917312E+02  0.00000000000E+00 0. -1.
</event>
<event>
 7    1  0.2740409E-010  0.4778727E+02  0.7816164E-02  0.1312668E+00
        -11   -1    0    0    0    0  0.00000000000E+00  0.00000000000E+00  0.45593999997E+02  0.45594000000E+02  0.51100000000E-03 0. -1.
         11   -1    0    0    0    0 -0.00000000000E+00 -0.00000000000E+00 -0.45593999997E+02  0.45594000000E+02  0.51100000000E-03 0.  1.
    9900012    2    1    2    0    0 -0.23322473578E+02  0.29711853821E+02 -0.21375015115E+02  0.47787270715E+02  0.19999998500E+02 0.  0.
        -12    1    1    2    0    0  0.23322473578E+02 -0.29711853821E+02  0.21375015115E+02  0.43400729285E+02  0.00000000000E+00 0.  1.
         11    1    3    3    0    0 -0.71504135113E+01  0.14924063524E+02 -0.18155454553E+02  0.24565761045E+02  0.51100000000E-03 0. -1.
        -11    1    3    3    0    0 -0.93422911765E+01  0.71022299165E+01  0.16395826329E+01  0.11849401069E+02  0.51100000000E-03 0.  1.
         12    1    3    3    0    0 -0.68297688903E+01  0.76855603807E+01 -0.48591431946E+01  0.11372108602E+02  0.00000000000E+00 0. -1.
</event>
<event>
 7    1  0.2740409E-010  0.4778727E+02  0.7816164E-02  0.1312668E+00
        -11   -1    0    0    0    0  0.00000000000E+00  0.00000000000E+00  0.45593999997E+02  0.45594000000E+02  0.51100000000E-03 0. -1.
         11   -1    0    0    0    0 -0.00000000000E+00 -0.00000000000E+00 -0.45593999997E+02  0.45594000000E+02  0.51100000000E-03 0.  1.
    9900012    2    1    2    0    0 -0.24645070029E+02  0.93841580166E+01  0.34470005540E+02  0.47787272122E+02  0.20000004912E+02 0.  0.
        -12    1    1    2    0    0  0.24645070029E+02 -0.93841580166E+01 -0.34470005540E+02  0.43400727878E+02  0.00000000000E+00 0.  1.
         11    1    3    3    0    0 -0.59452960160E+01  0.59060724998E+01  0.18091102244E+01  0.85732792533E+01  0.51100000000E-03 0. -1.
        -11    1    3    3    0    0 -0.14572537521E+02 -0.17644826698E+01  0.25523868819E+02  0.29443847042E+02  0.51100000000E-03 0.  1.
        -12    1    3    3    0    0 -0.41272364918E+01  0.52425681866E+01  0.71370264966E+01  0.97701458262E+01  0.00000000000E+00 0.  1.
</event>
<event>
 7    1  0.2740409E-010  0.4778727E+02  0.7816164E-02  0.1312668E+00
        -11   -1    0    0    0    0  0.00000000000E+00  0.00000000000E+00  0.45593999997E+02  0.45594000000E+02  0.51100000000E-03 0.  1.
         11   -1    0    0    0    0 -0.00000000000E+00 -0.00000000000E+00 -0.45593999997E+02  0.45594000000E+02  0.51100000000E-03 0. -1.
    9900012    2    1    2    0    0 -0.13851694371E+02  0.19957387357E+02 -0.35964659370E+02  0.47787268778E+02  0.19999989666E+02 0.  0.
        -12    1    1    2    0    0  0.13851694371E+02 -0.19957387357E+02  0.35964659370E+02  0.43400731222E+02  0.00000000000E+00 0.  1.
         11    1    3    3    0    0 -0.34713044696E+01  0.17723561410E+01 -0.72018061449E+01  0.81888468676E+01  0.51100000000E-03 0. -1.
        -11    1    3    3    0    0 -0.67031267611E+01 -0.15523178111E+01 -0.98574304051E+01  0.12021253404E+02  0.51100000000E-03 0.  1.
        -12    1    3    3    0    0 -0.36772631403E+01  0.19737349027E+02 -0.18905422820E+02  0.27577168506E+02  0.00000000000E+00 0.  1.
</event>
<event>
 7    1  0.2740409E-010  0.4778727E+02  0.7816164E-02  0.1312668E+00
        -11   -1    0    0    0    0  0.00000000000E+00  0.00000000000E+00  0.45593999997E+02  0.45594000000E+02  0.51100000000E-03 0. -1.
         11   -1    0    0    0    0 -0.00000000000E+00 -0.00000000000E+00 -0.45593999997E+02  0.45594000000E+02  0.51100000000E-03 0.  1.
    9900012    2    1    2    0    0 -0.30314238160E+02  0.20324394456E+02  0.23485939752E+02  0.47787269462E+02  0.19999992785E+02 0.  0.
        -12    1    1    2    0    0  0.30314238160E+02 -0.20324394456E+02 -0.23485939752E+02  0.43400730538E+02  0.00000000000E+00 0.  1.
         11    1    3    3    0    0 -0.14309858839E+02  0.89043191001E+01  0.21451476770E+02  0.27280484132E+02  0.51100000000E-03 0. -1.
        -11    1    3    3    0    0 -0.11110961181E+01  0.32038008893E+01  0.51247503571E+00  0.34295051604E+01  0.51100000000E-03 0.  1.
         12    1    3    3    0    0 -0.14893283203E+02  0.82162744670E+01  0.15219879465E+01  0.17077280170E+02  0.00000000000E+00 0. -1.
</event>
<event>
 7    1  0.2740409E-010  0.4778727E+02  0.7816164E-02  0.1312668E+00
        -11   -1    0    0    0    0  0.00000000000E+00  0.00000000000E+00  0.45593999997E+02  0.45594000000E+02  0.51100000000E-03 0.  1.
         11   -1    0    0    0    0 -0.00000000000E+00 -0.00000000000E+00 -0.45593999997E+02  0.45594000000E+02  0.51100000000E-03 0. -1.
    9900012    2    1    2    0    0  0.24650546305E+02  0.23200529261E+01 -0.35645359710E+02  0.47787265587E+02  0.19999975119E+02 0.  0.
        -12    1    1    2    0    0 -0.24650546305E+02 -0.23200529261E+01  0.35645359710E+02  0.43400734413E+02  0.00000000000E+00 0.  1.
         11    1    3    3    0    0  0.12333342850E+02 -0.69423477497E+01 -0.18849998212E+02  0.23571804576E+02  0.51100000000E-03 0. -1.
        -11    1    3    3    0    0  0.32625789680E+00  0.44026164944E+01 -0.32364448908E+01  0.54739430034E+01  0.51100000000E-03 0.  1.
         12    1    3    3    0    0  0.11990945558E+02  0.48597841814E+01 -0.13558916608E+02  0.18741518008E+02  0.00000000000E+00 0. -1.
</event>
<event>
 7    1  0.2740409E-010  0.4778727E+02  0.7816164E-02  0.1312668E+00
        -11   -1    0    0    0    0  0.00000000000E+00  0.00000000000E+00  0.45593999997E+02  0.45594000000E+02  0.51100000000E-03 0. -1.
         11   -1    0    0    0    0 -0.00000000000E+00 -0.00000000000E+00 -0.45593999997E+02  0.45594000000E+02  0.51100000000E-03 0.  1.
    9900012    2    1    2    0    0 -0.90954346686E+01 -0.31452305940E+02  0.28489449387E+02  0.47787271813E+02  0.20000003505E+02 0.  0.
        -12    1    1    2    0    0  0.90954346686E+01  0.31452305940E+02 -0.28489449387E+02  0.43400728187E+02  0.00000000000E+00 0.  1.
         11    1    3    3    0    0 -0.27602209231E+01 -0.18779750199E+02  0.15092701690E+02  0.24250515080E+02  0.51100000000E-03 0. -1.
        -11    1    3    3    0    0  0.36194731936E+01 -0.54800684198E+00  0.23525404747E+01  0.43514761455E+01  0.51100000000E-03 0.  1.
        -12    1    3    3    0    0 -0.99546869391E+01 -0.12124548899E+02  0.11044207222E+02  0.19185280588E+02  0.00000000000E+00 0.  1.
</event>
<event>
 7    1  0.2740409E-010  0.4778727E+02  0.7816164E-02  0.1312668E+00
        -11   -1    0    0    0    0  0.00000000000E+00  0.00000000000E+00  0.45593999997E+02  0.45594000000E+02  0.51100000000E-03 0.  1.
         11   -1    0    0    0    0 -0.00000000000E+00 -0.00000000000E+00 -0.45593999997E+02  0.45594000000E+02  0.51100000000E-03 0. -1.
    9900012    2    1    2    0    0 -0.26003603786E+02  0.27030348689E+01 -0.34642889807E+02  0.47787267039E+02  0.19999981737E+02 0.  0.
        -12    1    1    2    0    0  0.26003603786E+02 -0.27030348689E+01  0.34642889807E+02  0.43400732961E+02  0.00000000000E+00 0.  1.
         11    1    3    3    0    0 -0.20351368230E+01  0.73239407734E+01 -0.66053028056E+01  0.10070348343E+02  0.51100000000E-03 0. -1.
        -11    1    3    3    0    0 -0.22325018920E+02 -0.52644119164E+01 -0.23455736776E+02  0.32806890900E+02  0.51100000000E-03 0.  1.
        -12    1    3    3    0    0 -0.16434480438E+01  0.64350601195E+00 -0.45818502257E+01  0.49100277954E+01  0.00000000000E+00 0.  1.
</event>
<event>
 7    1  0.2740409E-010  0.4778727E+02  0.7816164E-02  0.1312668E+00
        -11   -1    0    0    0    0  0.00000000000E+00  0.00000000000E+00  0.45593999997E+02  0.45594000000E+02  0.51100000000E-03 0. -1.
         11   -1    0    0    0    0 -0.00000000000E+00 -0.00000000000E+00 -0.45593999997E+02  0.45594000000E+02  0.51100000000E-03 0.  1.
    9900012    2    1    2    0    0 -0.13428420707E+02  0.15494257790E+02  0.38252174143E+02  0.47787270354E+02  0.19999996852E+02 0.  0.
        -12    1    1    2    0    0  0.13428420707E+02 -0.15494257790E+02 -0.38252174143E+02  0.43400729646E+02  0.00000000000E+00 0.  1.
         11    1    3    3    0    0 -0.25379584628E+01  0.51964945808E+01  0.14246651293E+02  0.15375690632E+02  0.51100000000E-03 0. -1.
        -11    1    3    3    0    0 -0.11038607509E+02  0.11032671396E+01  0.71123877313E+01  0.13177788646E+02  0.51100000000E-03 0.  1.
        -12    1    3    3    0    0  0.14814526487E+00  0.91944960693E+01  0.16893135119E+02  0.19233791075E+02  0.00000000000E+00 0.  1.
</event>
<event>
 7    1  0.2740409E-010  0.4778727E+02  0.7816164E-02  0.1312668E+00
        -11   -1    0    0    0    0  0.00000000000E+00  0.00000000000E+00  0.45593999997E+02  0.45594000000E+02  0.51100000000E-03 0. -1.
         11   -1    0    0    0    0 -0.00000000000E+00 -0.00000000000E+00 -0.45593999997E+02  0.45594000000E+02  0.51100000000E-03 0.  1.
    9900012    2    1    2    0    0 -0.28862016808E+02  0.31721467498E+02  0.66600034803E+01  0.47787272347E+02  0.20000005940E+02 0.  0.
        -12    1    1    2    0    0  0.28862016808E+02 -0.31721467498E+02 -0.66600034803E+01  0.43400727653E+02  0.00000000000E+00 0.  1.
         11    1    3    3    0    0 -0.47556916172E+01  0.40859575164E+01 -0.24038067274E+00  0.62745067306E+01  0.51100000000E-03 0. -1.
        -11    1    3    3    0    0  0.13455974971E+01 -0.10853118667E+01 -0.14298718782E+01  0.22434500933E+01  0.51100000000E-03 0.  1.
        -12    1    3    3    0    0 -0.25451922688E+02  0.28720821848E+02  0.83302560312E+01  0.39269315523E+02  0.00000000000E+00 0.  1.
</event>
<event>
 7    1  0.2740409E-010  0.4778727E+02  0.7816164E-02  0.1312668E+00
        -11   -1    0    0    0    0  0.00000000000E+00  0.00000000000E+00  0.45593999997E+02  0.45594000000E+02  0.51100000000E-03 0.  1.
         11   -1    0    0    0    0 -0.00000000000E+00 -0.00000000000E+00 -0.45593999997E+02  0.45594000000E+02  0.51100000000E-03 0. -1.
    9900012    2    1    2    0    0  0.77687641776E+00 -0.43298071225E+02  0.28803903134E+01  0.47787272389E+02  0.20000006131E+02 0.  0.
        -12    1    1    2    0    0 -0.77687641776E+00  0.43298071225E+02 -0.28803903134E+01  0.43400727611E+02  0.00000000000E+00 0.  1.
         11    1    3    3    0    0 -0.59298839957E+01 -0.84973090459E+01 -0.43199247995E+01  0.11226287711E+02  0.51100000000E-03 0. -1.
        -11    1    3    3    0    0  0.43653664279E+01 -0.31166876083E+02  0.69593398720E+01  0.32231397744E+02  0.51100000000E-03 0.  1.
        -12    1    3    3    0    0  0.23413939856E+01 -0.36338860966E+01  0.24097524100E+00  0.43295869347E+01  0.00000000000E+00 0.  1.
</event>
<event>
 7    1  0.2740409E-010  0.4778727E+02  0.7816164E-02  0.1312668E+00
        -11   -1    0    0    0    0  0.00000000000E+00  0.00000000000E+00  0.45593999997E+02  0.45594000000E+02  0.51100000000E-03 0.  1.
         11   -1    0    0    0    0 -0.00000000000E+00 -0.00000000000E+00 -0.45593999997E+02  0.45594000000E+02  0.51100000000E-03 0. -1.
    9900012    2    1    2    0    0  0.20314245474E+01  0.33901742440E+02 -0.27021625579E+02  0.47787273335E+02  0.20000010442E+02 0.  0.
        -12    1    1    2    0    0 -0.20314245474E+01 -0.33901742440E+02  0.27021625579E+02  0.43400726665E+02  0.00000000000E+00 0.  1.
         11    1    3    3    0    0  0.49088679949E+01  0.24494972423E+01 -0.81683500015E+01  0.98396627858E+01  0.51100000000E-03 0. -1.
        -11    1    3    3    0    0 -0.17526594200E+01  0.77017304027E+00  0.76745026695E-02  0.19144296053E+01  0.51100000000E-03 0.  1.
         12    1    3    3    0    0 -0.11247840274E+01  0.30682072158E+02 -0.18860950080E+02  0.36033180943E+02  0.00000000000E+00 0. -1.
</event>
<event>
 7    1  0.2740409E-010  0.4778727E+02  0.7816164E-02  0.1312668E+00
        -11   -1    0    0    0    0  0.00000000000E+00  0.00000000000E+00  0.45593999997E+02  0.45594000000E+02  0.51100000000E-03 0.  1.
         11   -1    0    0    0    0 -0.00000000000E+00 -0.00000000000E+00 -0.45593999997E+02  0.45594000000E+02  0.51100000000E-03 0. -1.
    9900012    2    1    2    0    0  0.48033892455E+01 -0.23541480895E+02 -0.36143459558E+02  0.47787267981E+02  0.19999986033E+02 0.  0.
        -12    1    1    2    0    0 -0.48033892455E+01  0.23541480895E+02  0.36143459558E+02  0.43400732019E+02  0.00000000000E+00 0.  1.
         11    1    3    3    0    0  0.50998784151E+01  0.11476284630E+01 -0.93051690598E+01  0.10672955656E+02  0.51100000000E-03 0. -1.
        -11    1    3    3    0    0 -0.13427589084E+01 -0.12054387404E+02 -0.84622367720E+01  0.14789209196E+02  0.51100000000E-03 0.  1.
         12    1    3    3    0    0  0.10462697389E+01 -0.12634721954E+02 -0.18376053726E+02  0.22325103130E+02  0.00000000000E+00 0. -1.
</event>
<event>
 7    1  0.2740409E-010  0.4778727E+02  0.7816164E-02  0.1312668E+00
        -11   -1    0    0    0    0  0.00000000000E+00  0.00000000000E+00  0.45593999997E+02  0.45594000000E+02  0.51100000000E-03 0.  1.
         11   -1    0    0    0    0 -0.00000000000E+00 -0.00000000000E+00 -0.45593999997E+02  0.45594000000E+02  0.51100000000E-03 0. -1.
    9900012    2    1    2    0    0  0.27246065837E+02  0.31082749642E+02  0.13233954223E+02  0.47787274507E+02  0.20000015789E+02 0.  0.
        -12    1    1    2    0    0 -0.27246065837E+02 -0.31082749642E+02 -0.13233954223E+02  0.43400725493E+02  0.00000000000E+00 0.  1.
         11    1    3    3    0    0  0.18344793759E+02  0.13326696847E+02  0.16645082211E+00  0.22675096760E+02  0.51100000000E-03 0. -1.
        -11    1    3    3    0    0  0.98751461565E+01  0.17915181425E+02  0.12516580900E+02  0.23982014819E+02  0.51100000000E-03 0.  1.
        -12    1    3    3    0    0 -0.97387407857E+00 -0.15912863059E+00  0.55092250083E+00  0.11301629280E+01  0.00000000000E+00 0.  1.
</event>
<event>
 7    1  0.2740409E-010  0.4778727E+02  0.7816164E-02  0.1312668E+00
        -11   -1    0    0    0    0  0.00000000000E+00  0.00000000000E+00  0.45593999997E+02  0.45594000000E+02  0.51100000000E-03 0.  1.
         11   -1    0    0    0    0 -0.00000000000E+00 -0.00000000000E+00 -0.45593999997E+02  0.45594000000E+02  0.51100000000E-03 0. -1.
    9900012    2    1    2    0    0 -0.15651236536E+01  0.20709669498E+02 -0.38108834402E+02  0.47787270948E+02  0.19999999561E+02 0.  0.
        -12    1    1    2    0    0  0.15651236536E+01 -0.20709669498E+02  0.38108834402E+02  0.43400729052E+02  0.00000000000E+00 0.  1.
         11    1    3    3    0    0 -0.34759165293E+01  0.12782473756E+02 -0.20243711449E+02  0.24192591521E+02  0.51100000000E-03 0. -1.
        -11    1    3    3    0    0  0.49048032707E+01 -0.14809350256E+01 -0.36642699962E+01  0.62989791665E+01  0.51100000000E-03 0.  1.
        -12    1    3    3    0    0 -0.29940103950E+01  0.94081307673E+01 -0.14200852957E+02  0.17295700260E+02  0.00000000000E+00 0.  1.
</event>
<event>
 7    1  0.2740409E-010  0.4778727E+02  0.7816164E-02  0.1312668E+00
        -11   -1    0    0    0    0  0.00000000000E+00  0.00000000000E+00  0.45593999997E+02  0.45594000000E+02  0.51100000000E-03 0. -1.
         11   -1    0    0    0    0 -0.00000000000E+00 -0.00000000000E+00 -0.45593999997E+02  0.45594000000E+02  0.51100000000E-03 0.  1.
    9900012    2    1    2    0    0 -0.14315932528E+01 -0.24835013109E+02  0.35563974971E+02  0.47787266698E+02  0.19999980184E+02 0.  0.
        -12    1    1    2    0    0  0.14315932528E+01  0.24835013109E+02 -0.35563974971E+02  0.43400733302E+02  0.00000000000E+00 0.  1.
         11    1    3    3    0    0  0.63685639178E+01 -0.66757086526E+01  0.21121754290E+02  0.23048908801E+02  0.51100000000E-03 0. -1.
        -11    1    3    3    0    0 -0.73025793833E+01 -0.13073051497E+02  0.10803319159E+02  0.18464670217E+02  0.51100000000E-03 0.  1.
         12    1    3    3    0    0 -0.49757778731E+00 -0.50862529594E+01  0.36389015218E+01  0.62736876801E+01  0.00000000000E+00 0. -1.
</event>
<event>
 7    1  0.2740409E-010  0.4778728E+02  0.7816164E-02  0.1312668E+00
        -11   -1    0    0    0    0  0.00000000000E+00  0.00000000000E+00  0.45593999997E+02  0.45594000000E+02  0.51100000000E-03 0. -1.
         11   -1    0    0    0    0 -0.00000000000E+00 -0.00000000000E+00 -0.45593999997E+02  0.45594000000E+02  0.51100000000E-03 0.  1.
    9900012    2    1    2    0    0 -0.29231687220E+02  0.28141088693E+02  0.15401626998E+02  0.47787279675E+02  0.20000039351E+02 0.  0.
        -12    1    1    2    0    0  0.29231687220E+02 -0.28141088693E+02 -0.15401626998E+02  0.43400720325E+02  0.00000000000E+00 0.  1.
         11    1    3    3    0    0 -0.12021550882E+02  0.10501143627E+02  0.50844581320E+01  0.16752415284E+02  0.51100000000E-03 0. -1.
        -11    1    3    3    0    0 -0.12707263328E+02  0.18393985847E+02  0.32073957079E+01  0.22585407769E+02  0.51100000000E-03 0.  1.
        -12    1    3    3    0    0 -0.45028730098E+01 -0.75404078144E+00  0.71097731582E+01  0.84494566218E+01  0.00000000000E+00 0.  1.
</event>
<event>
 7    1  0.2740409E-010  0.4778727E+02  0.7816164E-02  0.1312668E+00
        -11   -1    0    0    0    0  0.00000000000E+00  0.00000000000E+00  0.45593999997E+02  0.45594000000E+02  0.51100000000E-03 0.  1.
         11   -1    0    0    0    0 -0.00000000000E+00 -0.00000000000E+00 -0.45593999997E+02  0.45594000000E+02  0.51100000000E-03 0. -1.
    9900012    2    1    2    0    0 -0.64866251511E+00  0.26344500676E+02 -0.34484342327E+02  0.47787270229E+02  0.19999996283E+02 0.  0.
        -12    1    1    2    0    0  0.64866251511E+00 -0.26344500676E+02  0.34484342327E+02  0.43400729771E+02  0.00000000000E+00 0.  1.
         11    1    3    3    0    0 -0.84476061448E+01  0.10002216612E+02 -0.14553032821E+02  0.19575422122E+02  0.51100000000E-03 0. -1.
        -11    1    3    3    0    0  0.18829865315E+01  0.21530059397E+01  0.21695252686E+00  0.28684737255E+01  0.51100000000E-03 0.  1.
         12    1    3    3    0    0  0.59159570983E+01  0.14189278125E+02 -0.20148262033E+02  0.25343374381E+02  0.00000000000E+00 0. -1.
</event>
<event>
 7    1  0.2740409E-010  0.4778728E+02  0.7816164E-02  0.1312668E+00
        -11   -1    0    0    0    0  0.00000000000E+00  0.00000000000E+00  0.45593999997E+02  0.45594000000E+02  0.51100000000E-03 0.  1.
         11   -1    0    0    0    0 -0.00000000000E+00 -0.00000000000E+00 -0.45593999997E+02  0.45594000000E+02  0.51100000000E-03 0. -1.
    9900012    2    1    2    0    0  0.22931161360E+01 -0.35588656145E+02 -0.24734832484E+02  0.47787276898E+02  0.20000026687E+02 0.  0.
        -12    1    1    2    0    0 -0.22931161360E+01  0.35588656145E+02  0.24734832484E+02  0.43400723102E+02  0.00000000000E+00 0.  1.
         11    1    3    3    0    0  0.59472901840E+01 -0.46878927435E+01 -0.50556881157E+00  0.75896112544E+01  0.51100000000E-03 0. -1.
        -11    1    3    3    0    0 -0.44047744626E+01 -0.81254946716E+01 -0.60453728866E+01  0.11044104098E+02  0.51100000000E-03 0.  1.
         12    1    3    3    0    0  0.75060041466E+00 -0.22775268730E+02 -0.18183890785E+02  0.29153561546E+02  0.00000000000E+00 0. -1.
</event>
<event>
 7    1  0.2740409E-010  0.4778727E+02  0.7816164E-02  0.1312668E+00
        -11   -1    0    0    0    0  0.00000000000E+00  0.00000000000E+00  0.45593999997E+02  0.45594000000E+02  0.51100000000E-03 0.  1.
         11   -1    0    0    0    0 -0.00000000000E+00 -0.00000000000E+00 -0.45593999997E+02  0.45594000000E+02  0.51100000000E-03 0. -1.
    9900012    2    1    2    0    0  0.39235623627E+02  0.18280564524E+02  0.31638694055E+01  0.47787271086E+02  0.20000000188E+02 0.  0.
        -12    1    1    2    0    0 -0.39235623627E+02 -0.18280564524E+02 -0.31638694055E+01  0.43400728914E+02  0.00000000000E+00 0.  1.
         11    1    3    3    0    0  0.10343523612E+02 -0.24909758850E+01  0.22489768412E+01  0.10874343137E+02  0.51100000000E-03 0.  1.
        -11    1    3    3    0    0  0.77564007881E+01  0.84904287313E+01 -0.36093578893E+01  0.12053074208E+02  0.51100000000E-03 0. -1.
         12    1    3    3    0    0  0.21135699227E+02  0.12281111678E+02  0.45242504536E+01  0.24859853741E+02  0.00000000000E+00 0. -1.
</event>
<event>
 7    1  0.2740409E-010  0.4778727E+02  0.7816164E-02  0.1312668E+00
        -11   -1    0    0    0    0  0.00000000000E+00  0.00000000000E+00  0.45593999997E+02  0.45594000000E+02  0.51100000000E-03 0. -1.
         11   -1    0    0    0    0 -0.00000000000E+00 -0.00000000000E+00 -0.45593999997E+02  0.45594000000E+02  0.51100000000E-03 0.  1.
    9900012    2    1    2    0    0  0.34205608299E+02 -0.79438714413E+01  0.25504798949E+02  0.47787268416E+02  0.19999988015E+02 0.  0.
        -12    1    1    2    0    0 -0.34205608299E+02  0.79438714413E+01 -0.25504798949E+02  0.43400731584E+02  0.00000000000E+00 0.  1.
         11    1    3    3    0    0  0.12179592636E+02 -0.48253847299E+01  0.19715532704E+02  0.23671270448E+02  0.51100000000E-03 0. -1.
        -11    1    3    3    0    0  0.13739720587E+02 -0.38449736571E+01  0.53538716543E+00  0.14277618286E+02  0.51100000000E-03 0.  1.
         12    1    3    3    0    0  0.82862950765E+01  0.72648694569E+00  0.52538790800E+01  0.98383796818E+01  0.00000000000E+00 0. -1.
</event>
<event>
 7    1  0.2740409E-010  0.4778727E+02  0.7816164E-02  0.1312668E+00
        -11   -1    0    0    0    0  0.00000000000E+00  0.00000000000E+00  0.45593999997E+02  0.45594000000E+02  0.51100000000E-03 0. -1.
         11   -1    0    0    0    0 -0.00000000000E+00 -0.00000000000E+00 -0.45593999997E+02  0.45594000000E+02  0.51100000000E-03 0.  1.
    9900012    2    1    2    0    0 -0.15687155733E+02 -0.81763741282E+01  0.39631846836E+02  0.47787271521E+02  0.20000002172E+02 0.  0.
        -12    1    1    2    0    0  0.15687155733E+02  0.81763741282E+01 -0.39631846836E+02  0.43400728479E+02  0.00000000000E+00 0.  1.
         11    1    3    3    0    0  0.17517190806E+01 -0.15006392013E+01  0.11610115781E+02  0.11837027771E+02  0.51100000000E-03 0. -1.
        -11    1    3    3    0    0 -0.89259049998E+01 -0.67044915231E+01  0.67675330111E+01  0.13054558206E+02  0.51100000000E-03 0.  1.
        -12    1    3    3    0    0 -0.85129698135E+01  0.28756596123E-01  0.21254198045E+02  0.22895685543E+02  0.00000000000E+00 0.  1.
</event>
<event>
 7    1  0.2740409E-010  0.4778726E+02  0.7816164E-02  0.1312668E+00
        -11   -1    0    0    0    0  0.00000000000E+00  0.00000000000E+00  0.45593999997E+02  0.45594000000E+02  0.51100000000E-03 0.  1.
         11   -1    0    0    0    0 -0.00000000000E+00 -0.00000000000E+00 -0.45593999997E+02  0.45594000000E+02  0.51100000000E-03 0. -1.
    9900012    2    1    2    0    0  0.36131794788E+02 -0.22470025520E+02  0.85566189639E+01  0.47787258422E+02  0.19999942448E+02 0.  0.
        -12    1    1    2    0    0 -0.36131794788E+02  0.22470025520E+02 -0.85566189639E+01  0.43400741578E+02  0.00000000000E+00 0.  1.
         11    1    3    3    0    0  0.23886279070E+02 -0.97804380992E+01  0.38214397645E+01  0.26092426092E+02  0.51100000000E-03 0. -1.
        -11    1    3    3    0    0  0.90400311691E+00 -0.61779810189E+01  0.58674107731E+01  0.85680324782E+01  0.51100000000E-03 0.  1.
        -12    1    3    3    0    0  0.11341512601E+02 -0.65116064017E+01 -0.11322315738E+01  0.13126799852E+02  0.00000000000E+00 0.  1.
</event>
<event>
 7    1  0.2740409E-010  0.4778726E+02  0.7816164E-02  0.1312668E+00
        -11   -1    0    0    0    0  0.00000000000E+00  0.00000000000E+00  0.45593999997E+02  0.45594000000E+02  0.51100000000E-03 0. -1.
         11   -1    0    0    0    0 -0.00000000000E+00 -0.00000000000E+00 -0.45593999997E+02  0.45594000000E+02  0.51100000000E-03 0.  1.
    9900012    2    1    2    0    0 -0.31191597234E+02  0.21352127146E+02  0.21325921401E+02  0.47787262734E+02  0.19999962108E+02 0.  0.
        -12    1    1    2    0    0  0.31191597234E+02 -0.21352127146E+02 -0.21325921401E+02  0.43400737266E+02  0.00000000000E+00 0.  1.
         11    1    3    3    0    0 -0.61182584531E+01 -0.13676538716E+01  0.94535802199E+01  0.11343444929E+02  0.51100000000E-03 0. -1.
        -11    1    3    3    0    0 -0.11528008103E+02  0.79633849243E+01  0.21385648366E+01  0.14173352818E+02  0.51100000000E-03 0.  1.
         12    1    3    3    0    0 -0.13545330677E+02  0.14756396093E+02  0.97337763443E+01  0.22270464987E+02  0.00000000000E+00 0. -1.
</event>
<event>
 7    1  0.2740409E-010  0.4778727E+02  0.7816164E-02  0.1312668E+00
        -11   -1    0    0    0    0  0.00000000000E+00  0.00000000000E+00  0.45593999997E+02  0.45594000000E+02  0.51100000000E-03 0.  1.
         11   -1    0    0    0    0 -0.00000000000E+00 -0.00000000000E+00 -0.45593999997E+02  0.45594000000E+02  0.51100000000E-03 0. -1.
    9900012    2    1    2    0    0 -0.25220063521E+02  0.20208830803E+01 -0.35263124516E+02  0.47787268174E+02  0.19999986913E+02 0.  0.
        -12    1    1    2    0    0  0.25220063521E+02 -0.20208830803E+01  0.35263124516E+02  0.43400731826E+02  0.00000000000E+00 0.  1.
         11    1    3    3    0    0 -0.10397319275E+02 -0.33638848251E+01 -0.27889416929E+02  0.29953957103E+02  0.51100000000E-03 0. -1.
        -11    1    3    3    0    0 -0.16832531286E+01 -0.49879227912E+00 -0.14044070496E+01  0.22482202416E+01  0.51100000000E-03 0.  1.
         12    1    3    3    0    0 -0.13139491117E+02  0.58835601844E+01 -0.59693005374E+01  0.15585090830E+02  0.00000000000E+00 0. -1.
</event>
<event>
 7    1  0.2740409E-010  0.4778733E+02  0.7816164E-02  0.1312667E+00
        -11   -1    0    0    0    0  0.00000000000E+00  0.00000000000E+00  0.45593999997E+02  0.45594000000E+02  0.51100000000E-03 0.  1.
         11   -1    0    0    0    0 -0.00000000000E+00 -0.00000000000E+00 -0.45593999997E+02  0.45594000000E+02  0.51100000000E-03 0. -1.
    9900012    2    1    2    0    0  0.36781965422E+01 -0.32221169357E+02 -0.28842420286E+02  0.47787330737E+02  0.20000272159E+02 0.  0.
        -12    1    1    2    0    0 -0.36781965422E+01  0.32221169357E+02  0.28842420286E+02  0.43400669263E+02  0.00000000000E+00 0.  1.
         11    1    3    3    0    0  0.66144129397E+01 -0.17196169953E+02 -0.12537439373E+02  0.22285558236E+02  0.51100000000E-03 0. -1.
        -11    1    3    3    0    0 -0.51002474368E+01 -0.60179623800E+01 -0.13816692352E+02  0.15910040319E+02  0.51100000000E-03 0.  1.
        -12    1    3    3    0    0  0.21640310392E+01 -0.90070370241E+01 -0.24882885606E+01  0.95917321821E+01  0.00000000000E+00 0.  1.
</event>
<event>
 7    1  0.2740409E-010  0.4778727E+02  0.7816164E-02  0.1312668E+00
        -11   -1    0    0    0    0  0.00000000000E+00  0.00000000000E+00  0.45593999997E+02  0.45594000000E+02  0.51100000000E-03 0.  1.
         11   -1    0    0    0    0 -0.00000000000E+00 -0.00000000000E+00 -0.45593999997E+02  0.45594000000E+02  0.51100000000E-03 0. -1.
    9900012    2    1    2    0    0  0.26081583254E+02  0.32494838652E+02 -0.12143288784E+02  0.47787274354E+02  0.20000015092E+02 0.  0.
        -12    1    1    2    0    0 -0.26081583254E+02 -0.32494838652E+02  0.12143288784E+02  0.43400725646E+02  0.00000000000E+00 0.  1.
         11    1    3    3    0    0  0.12545225936E+02  0.28388149366E+02 -0.10892430767E+02  0.32892472794E+02  0.51100000000E-03 0. -1.
        -11    1    3    3    0    0  0.38744599091E+01  0.29457889466E+01  0.84584665304E+00  0.49400980686E+01  0.51100000000E-03 0.  1.
         12    1    3    3    0    0  0.96618974089E+01  0.11609003393E+01 -0.20967046692E+01  0.99547034917E+01  0.00000000000E+00 0. -1.
</event>
<event>
 7    1  0.2740409E-010  0.4778727E+02  0.7816164E-02  0.1312668E+00
        -11   -1    0    0    0    0  0.00000000000E+00  0.00000000000E+00  0.45593999997E+02  0.45594000000E+02  0.51100000000E-03 0.  1.
         11   -1    0    0    0    0 -0.00000000000E+00 -0.00000000000E+00 -0.45593999997E+02  0.45594000000E+02  0.51100000000E-03 0. -1.
    9900012    2    1    2    0    0  0.24395466531E+02 -0.21775406666E+02 -0.28536226879E+02  0.47787269968E+02  0.19999995094E+02 0.  0.
        -12    1    1    2    0    0 -0.24395466531E+02  0.21775406666E+02  0.28536226879E+02  0.43400730032E+02  0.00000000000E+00 0.  1.
         11    1    3    3    0    0  0.62723275906E+01 -0.83187951427E+01 -0.51645959370E+01  0.11628305873E+02  0.51100000000E-03 0. -1.
        -11    1    3    3    0    0 -0.26946342176E+01 -0.31385969864E+01 -0.20190781001E+01  0.46030990914E+01  0.51100000000E-03 0.  1.
        -12    1    3    3    0    0  0.20817773158E+02 -0.10318014537E+02 -0.21352552842E+02  0.31555865004E+02  0.00000000000E+00 0.  1.
</event>
<event>
 7    1  0.2740409E-010  0.4778727E+02  0.7816164E-02  0.1312668E+00
        -11   -1    0    0    0    0  0.00000000000E+00  0.00000000000E+00  0.45593999997E+02  0.45594000000E+02  0.51100000000E-03 0.  1.
         11   -1    0    0    0    0 -0.00000000000E+00 -0.00000000000E+00 -0.45593999997E+02  0.45594000000E+02  0.51100000000E-03 0. -1.
    9900012    2    1    2    0    0  0.59833804212E+01 -0.28112769187E+02 -0.32519144676E+02  0.47787269556E+02  0.19999993212E+02 0.  0.
        -12    1    1    2    0    0 -0.59833804212E+01  0.28112769187E+02  0.32519144676E+02  0.43400730444E+02  0.00000000000E+00 0.  1.
         11    1    3    3    0    0  0.48933874028E+01 -0.43133335552E+01 -0.32903010426E+01  0.73058995233E+01  0.51100000000E-03 0. -1.
        -11    1    3    3    0    0 -0.50144240977E+01 -0.19954381766E+02 -0.19315420097E+02  0.28220688413E+02  0.51100000000E-03 0.  1.
        -12    1    3    3    0    0  0.61044171161E+01 -0.38450538654E+01 -0.99134235363E+01  0.12260681619E+02  0.00000000000E+00 0.  1.
</event>
<event>
 7    1  0.2740409E-010  0.4778727E+02  0.7816164E-02  0.1312668E+00
        -11   -1    0    0    0    0  0.00000000000E+00  0.00000000000E+00  0.45593999997E+02  0.45594000000E+02  0.51100000000E-03 0.  1.
         11   -1    0    0    0    0 -0.00000000000E+00 -0.00000000000E+00 -0.45593999997E+02  0.45594000000E+02  0.51100000000E-03 0. -1.
    9900012    2    1    2    0    0 -0.19502728299E+02 -0.24255942423E+02 -0.30247579992E+02  0.47787271327E+02  0.20000001289E+02 0.  0.
        -12    1    1    2    0    0  0.19502728299E+02  0.24255942423E+02  0.30247579992E+02  0.43400728673E+02  0.00000000000E+00 0.  1.
         11    1    3    3    0    0 -0.66735878190E+01 -0.14425571701E+02 -0.49040969901E+01  0.16633822797E+02  0.51100000000E-03 0. -1.
        -11    1    3    3    0    0 -0.76891128442E+01 -0.62240585783E+01 -0.21809729381E+02  0.23948395718E+02  0.51100000000E-03 0.  1.
        -12    1    3    3    0    0 -0.51400276361E+01 -0.36063121436E+01 -0.35337536207E+01  0.72050528124E+01  0.00000000000E+00 0.  1.
</event>
<event>
 7    1  0.2740409E-010  0.4778727E+02  0.7816164E-02  0.1312668E+00
        -11   -1    0    0    0    0  0.00000000000E+00  0.00000000000E+00  0.45593999997E+02  0.45594000000E+02  0.51100000000E-03 0. -1.
         11   -1    0    0    0    0 -0.00000000000E+00 -0.00000000000E+00 -0.45593999997E+02  0.45594000000E+02  0.51100000000E-03 0.  1.
    9900012    2    1    2    0    0  0.98253431563E+00  0.12496875195E+02  0.41551000889E+02  0.47787274911E+02  0.20000017631E+02 0.  0.
        -12    1    1    2    0    0 -0.98253431563E+00 -0.12496875195E+02 -0.41551000889E+02  0.43400725089E+02  0.00000000000E+00 0.  1.
         11    1    3    3    0    0 -0.60985535931E+01  0.66259983313E+01  0.31799774166E+02  0.33050292693E+02  0.51100000000E-03 0. -1.
        -11    1    3    3    0    0  0.38968020863E+01  0.80100424934E+00  0.94600980363E+00  0.40892064165E+01  0.51100000000E-03 0.  1.
         12    1    3    3    0    0  0.31842858224E+01  0.50698726147E+01  0.88052169198E+01  0.10647775802E+02  0.00000000000E+00 0. -1.
</event>
<event>
 7    1  0.2740409E-010  0.4778728E+02  0.7816164E-02  0.1312668E+00
        -11   -1    0    0    0    0  0.00000000000E+00  0.00000000000E+00  0.45593999997E+02  0.45594000000E+02  0.51100000000E-03 0. -1.
         11   -1    0    0    0    0 -0.00000000000E+00 -0.00000000000E+00 -0.45593999997E+02  0.45594000000E+02  0.51100000000E-03 0.  1.
    9900012    2    1    2    0    0  0.18055781367E+02  0.31504364607E+00  0.39465328515E+02  0.47787278254E+02  0.20000032869E+02 0.  0.
        -12    1    1    2    0    0 -0.18055781367E+02 -0.31504364607E+00 -0.39465328515E+02  0.43400721746E+02  0.00000000000E+00 0.  1.
         11    1    3    3    0    0  0.38287734775E+01 -0.60950060833E+01  0.21535686113E+02  0.22706703462E+02  0.51100000000E-03 0. -1.
        -11    1    3    3    0    0 -0.14486752464E+00  0.23164308834E+01  0.10826917099E+01  0.25610662305E+01  0.51100000000E-03 0.  1.
         12    1    3    3    0    0  0.14371875415E+02  0.40936188459E+01  0.16846950692E+02  0.22519508561E+02  0.00000000000E+00 0. -1.
</event>
<event>
 7    1  0.2740409E-010  0.4778727E+02  0.7816164E-02  0.1312668E+00
        -11   -1    0    0    0    0  0.00000000000E+00  0.00000000000E+00  0.45593999997E+02  0.45594000000E+02  0.51100000000E-03 0. -1.
         11   -1    0    0    0    0 -0.00000000000E+00 -0.00000000000E+00 -0.45593999997E+02  0.45594000000E+02  0.51100000000E-03 0.  1.
    9900012    2    1    2    0    0  0.35323327571E+02 -0.23692329509E+02  0.86347821232E+01  0.47787269470E+02  0.19999992819E+02 0.  0.
        -12    1    1    2    0    0 -0.35323327571E+02  0.23692329509E+02 -0.86347821232E+01  0.43400730530E+02  0.00000000000E+00 0.  1.
         11    1    3    3    0    0  0.25089771371E+02 -0.21118296784E+02  0.76228973582E+01  0.33668793428E+02  0.51100000000E-03 0.  1.
        -11    1    3    3    0    0  0.20165275827E+01  0.76215850665E+00 -0.35440553511E+01  0.41482041505E+01  0.51100000000E-03 0. -1.
         12    1    3    3    0    0  0.82170286175E+01 -0.33361912309E+01  0.45559401161E+01  0.99702718906E+01  0.00000000000E+00 0. -1.
</event>
<event>
 7    1  0.2740409E-010  0.4778727E+02  0.7816164E-02  0.1312668E+00
        -11   -1    0    0    0    0  0.00000000000E+00  0.00000000000E+00  0.45593999997E+02  0.45594000000E+02  0.51100000000E-03 0. -1.
         11   -1    0    0    0    0 -0.00000000000E+00 -0.00000000000E+00 -0.45593999997E+02  0.45594000000E+02  0.51100000000E-03 0.  1.
    9900012    2    1    2    0    0 -0.90640518558E+01 -0.12570496354E+02  0.40539473830E+02  0.47787270132E+02  0.19999995842E+02 0.  0.
        -12    1    1    2    0    0  0.90640518558E+01  0.12570496354E+02 -0.40539473830E+02  0.43400729868E+02  0.00000000000E+00 0.  1.
         11    1    3    3    0    0  0.48412644287E+01 -0.17169008166E+01  0.68730942269E+01  0.85805019781E+01  0.51100000000E-03 0.  1.
        -11    1    3    3    0    0 -0.47023934399E+01  0.11209631811E+01  0.10399215101E+02  0.11467900309E+02  0.51100000000E-03 0. -1.
         12    1    3    3    0    0 -0.92029228446E+01 -0.11974558718E+02  0.23267164502E+02  0.27738867845E+02  0.00000000000E+00 0. -1.
</event>
<event>
 7    1  0.2740409E-010  0.4778727E+02  0.7816164E-02  0.1312668E+00
        -11   -1    0    0    0    0  0.00000000000E+00  0.00000000000E+00  0.45593999997E+02  0.45594000000E+02  0.51100000000E-03 0. -1.
         11   -1    0    0    0    0 -0.00000000000E+00 -0.00000000000E+00 -0.45593999997E+02  0.45594000000E+02  0.51100000000E-03 0.  1.
    9900012    2    1    2    0    0 -0.59467787189E+01  0.42385060956E+02 -0.71948444339E+01  0.47787270100E+02  0.19999995695E+02 0.  0.
        -12    1    1    2    0    0  0.59467787189E+01 -0.42385060956E+02  0.71948444339E+01  0.43400729900E+02  0.00000000000E+00 0.  1.
         11    1    3    3    0    0 -0.22670157903E+01  0.27664192867E+02 -0.91342783297E+01  0.29221258844E+02  0.51100000000E-03 0. -1.
        -11    1    3    3    0    0 -0.72142603632E+01  0.79623313253E+01  0.20496777419E+01  0.10938256343E+02  0.51100000000E-03 0.  1.
         12    1    3    3    0    0  0.35344974347E+01  0.67585367643E+01 -0.11024384601E+00  0.76277549132E+01  0.00000000000E+00 0. -1.
</event>
<event>
 7    1  0.2740409E-010  0.4778726E+02  0.7816164E-02  0.1312668E+00
        -11   -1    0    0    0    0  0.00000000000E+00  0.00000000000E+00  0.45593999997E+02  0.45594000000E+02  0.51100000000E-03 0.  1.
         11   -1    0    0    0    0 -0.00000000000E+00 -0.00000000000E+00 -0.45593999997E+02  0.45594000000E+02  0.51100000000E-03 0. -1.
    9900012    2    1    2    0    0  0.60339370282E+01  0.42143343441E+02 -0.84352930076E+01  0.47787263134E+02  0.19999963931E+02 0.  0.
        -12    1    1    2    0    0 -0.60339370282E+01 -0.42143343441E+02  0.84352930076E+01  0.43400736866E+02  0.00000000000E+00 0.  1.
         11    1    3    3    0    0 -0.60903070238E+01  0.67953457842E+01 -0.45622962542E+01  0.10202113082E+02  0.51100000000E-03 0. -1.
        -11    1    3    3    0    0  0.78170910899E+01  0.23454598717E+02 -0.20960726756E+01  0.24811663286E+02  0.51100000000E-03 0.  1.
         12    1    3    3    0    0  0.43071529621E+01  0.11893398939E+02 -0.17769240778E+01  0.12773486765E+02  0.00000000000E+00 0. -1.
</event>
<event>
 7    1  0.2740409E-010  0.4778727E+02  0.7816164E-02  0.1312668E+00
        -11   -1    0    0    0    0  0.00000000000E+00  0.00000000000E+00  0.45593999997E+02  0.45594000000E+02  0.51100000000E-03 0. -1.
         11   -1    0    0    0    0 -0.00000000000E+00 -0.00000000000E+00 -0.45593999997E+02  0.45594000000E+02  0.51100000000E-03 0.  1.
    9900012    2    1    2    0    0  0.69654251807E+01 -0.30917955765E+02  0.29651074378E+02  0.47787270186E+02  0.19999996084E+02 0.  0.
        -12    1    1    2    0    0 -0.69654251807E+01  0.30917955765E+02 -0.29651074378E+02  0.43400729814E+02  0.00000000000E+00 0.  1.
         11    1    3    3    0    0 -0.16368073407E+01 -0.95447326277E+01  0.86940130513E+01  0.13014104748E+02  0.51100000000E-03 0. -1.
        -11    1    3    3    0    0  0.39121964171E+01 -0.21310355415E+02  0.20868209396E+02  0.30081866505E+02  0.51100000000E-03 0.  1.
        -12    1    3    3    0    0  0.46900361042E+01 -0.62867722350E-01  0.88851930391E-01  0.46912989326E+01  0.00000000000E+00 0.  1.
</event>
<event>
 7    1  0.2740409E-010  0.4778726E+02  0.7816164E-02  0.1312668E+00
        -11   -1    0    0    0    0  0.00000000000E+00  0.00000000000E+00  0.45593999997E+02  0.45594000000E+02  0.51100000000E-03 0.  1.
         11   -1    0    0    0    0 -0.00000000000E+00 -0.00000000000E+00 -0.45593999997E+02  0.45594000000E+02  0.51100000000E-03 0. -1.
    9900012    2    1    2    0    0  0.15646275912E+02  0.19402289008E+02 -0.35529837372E+02  0.47787261385E+02  0.19999955960E+02 0.  0.
        -12    1    1    2    0    0 -0.15646275912E+02 -0.19402289008E+02  0.35529837372E+02  0.43400738615E+02  0.00000000000E+00 0.  1.
         11    1    3    3    0    0  0.20600269130E+01  0.42460783825E+01 -0.35153161220E+01  0.58847548981E+01  0.51100000000E-03 0. -1.
        -11    1    3    3    0    0  0.70332081288E+01  0.27710742462E+01 -0.69478234552E+00  0.75912839381E+01  0.51100000000E-03 0.  1.
        -12    1    3    3    0    0  0.65530408698E+01  0.12385136379E+02 -0.31319738904E+02  0.34311222549E+02  0.00000000000E+00 0.  1.
</event>
<event>
 7    1  0.2740409E-010  0.4778727E+02  0.7816164E-02  0.1312668E+00
        -11   -1    0    0    0    0  0.00000000000E+00  0.00000000000E+00  0.45593999997E+02  0.45594000000E+02  0.51100000000E-03 0. -1.
         11   -1    0    0    0    0 -0.00000000000E+00 -0.00000000000E+00 -0.45593999997E+02  0.45594000000E+02  0.51100000000E-03 0.  1.
    9900012    2    1    2    0    0  0.17464678330E+02 -0.22752338908E+02  0.32572062710E+02  0.47787272078E+02  0.20000004712E+02 0.  0.
        -12    1    1    2    0    0 -0.17464678330E+02  0.22752338908E+02 -0.32572062710E+02  0.43400727922E+02  0.00000000000E+00 0.  1.
         11    1    3    3    0    0  0.46415999527E+01 -0.10181921203E+02  0.99079023374E+01  0.14945986033E+02  0.51100000000E-03 0. -1.
        -11    1    3    3    0    0 -0.26546452907E+01 -0.30669669008E+01  0.35222624820E+00  0.40715465343E+01  0.51100000000E-03 0.  1.
        -12    1    3    3    0    0  0.15477723668E+02 -0.95034508050E+01  0.22311934125E+02  0.28769739511E+02  0.00000000000E+00 0.  1.
</event>
<event>
 7    1  0.2740409E-010  0.4778727E+02  0.7816164E-02  0.1312668E+00
        -11   -1    0    0    0    0  0.00000000000E+00  0.00000000000E+00  0.45593999997E+02  0.45594000000E+02  0.51100000000E-03 0.  1.
         11   -1    0    0    0    0 -0.00000000000E+00 -0.00000000000E+00 -0.45593999997E+02  0.45594000000E+02  0.51100000000E-03 0. -1.
    9900012    2    1    2    0    0 -0.31120491103E+02  0.18882429387E+02 -0.23634548048E+02  0.47787274575E+02  0.20000016095E+02 0.  0.
        -12    1    1    2    0    0  0.31120491103E+02 -0.18882429387E+02  0.23634548048E+02  0.43400725425E+02  0.00000000000E+00 0.  1.
         11    1    3    3    0    0 -0.18563833637E+02  0.15743349918E+02 -0.13352255546E+02  0.27762415499E+02  0.51100000000E-03 0. -1.
        -11    1    3    3    0    0 -0.81145219107E-01 -0.12405117537E+01 -0.59989896099E+01  0.61264451813E+01  0.51100000000E-03 0.  1.
        -12    1    3    3    0    0 -0.12475512247E+02  0.43795912226E+01 -0.42833028918E+01  0.13898413894E+02  0.00000000000E+00 0.  1.
</event>
<event>
 7    1  0.2740409E-010  0.4778727E+02  0.7816164E-02  0.1312668E+00
        -11   -1    0    0    0    0  0.00000000000E+00  0.00000000000E+00  0.45593999997E+02  0.45594000000E+02  0.51100000000E-03 0.  1.
         11   -1    0    0    0    0 -0.00000000000E+00 -0.00000000000E+00 -0.45593999997E+02  0.45594000000E+02  0.51100000000E-03 0. -1.
    9900012    2    1    2    0    0 -0.16024915300E+02 -0.37246561980E+02 -0.15476409072E+02  0.47787268123E+02  0.19999986681E+02 0.  0.
        -12    1    1    2    0    0  0.16024915300E+02  0.37246561980E+02  0.15476409072E+02  0.43400731877E+02  0.00000000000E+00 0.  1.
         11    1    3    3    0    0 -0.87823026505E+01 -0.15885723924E+02  0.76914362600E+00  0.18168011630E+02  0.51100000000E-03 0. -1.
        -11    1    3    3    0    0 -0.61982069387E+01 -0.14908096523E+02 -0.16490102321E+02  0.23077967545E+02  0.51100000000E-03 0.  1.
        -12    1    3    3    0    0 -0.10444057103E+01 -0.64527415331E+01  0.24454962249E+00  0.65412889478E+01  0.00000000000E+00 0.  1.
</event>
<event>
 7    1  0.2740409E-010  0.4778727E+02  0.7816164E-02  0.1312668E+00
        -11   -1    0    0    0    0  0.00000000000E+00  0.00000000000E+00  0.45593999997E+02  0.45594000000E+02  0.51100000000E-03 0.  1.
         11   -1    0    0    0    0 -0.00000000000E+00 -0.00000000000E+00 -0.45593999997E+02  0.45594000000E+02  0.51100000000E-03 0. -1.
    9900012    2    1    2    0    0  0.17626373852E+01  0.25120067158E+02 -0.35348246919E+02  0.47787271610E+02  0.20000002579E+02 0.  0.
        -12    1    1    2    0    0 -0.17626373852E+01 -0.25120067158E+02  0.35348246919E+02  0.43400728390E+02  0.00000000000E+00 0.  1.
         11    1    3    3    0    0 -0.13845793792E+01  0.12612426942E+02 -0.28538682050E+02  0.31232142847E+02  0.51100000000E-03 0. -1.
        -11    1    3    3    0    0  0.37529207370E+01  0.13329364565E+02 -0.70005591651E+01  0.15516578317E+02  0.51100000000E-03 0.  1.
        -12    1    3    3    0    0 -0.60570397256E+00 -0.82172434912E+00  0.19099429627E+00  0.10385504463E+01  0.00000000000E+00 0.  1.
</event>
<event>
 7    1  0.2740409E-010  0.4778727E+02  0.7816164E-02  0.1312668E+00
        -11   -1    0    0    0    0  0.00000000000E+00  0.00000000000E+00  0.45593999997E+02  0.45594000000E+02  0.51100000000E-03 0.  1.
         11   -1    0    0    0    0 -0.00000000000E+00 -0.00000000000E+00 -0.45593999997E+02  0.45594000000E+02  0.51100000000E-03 0. -1.
    9900012    2    1    2    0    0 -0.25566628441E+02 -0.19217961121E+02 -0.29336675409E+02  0.47787273698E+02  0.20000012097E+02 0.  0.
        -12    1    1    2    0    0  0.25566628441E+02  0.19217961121E+02  0.29336675409E+02  0.43400726302E+02  0.00000000000E+00 0.  1.
         11    1    3    3    0    0 -0.15620998721E+02 -0.15381148891E+02 -0.12048791745E+02  0.25015369776E+02  0.51100000000E-03 0.  1.
        -11    1    3    3    0    0 -0.90710414177E+00 -0.22609031677E+01 -0.11868657363E+02  0.12116086369E+02  0.51100000000E-03 0. -1.
         12    1    3    3    0    0 -0.90385255777E+01 -0.15759090624E+01 -0.54192263017E+01  0.10655817552E+02  0.00000000000E+00 0. -1.
</event>
<event>
 7    1  0.2740409E-010  0.4778727E+02  0.7816164E-02  0.1312668E+00
        -11   -1    0    0    0    0  0.00000000000E+00  0.00000000000E+00  0.45593999997E+02  0.45594000000E+02  0.51100000000E-03 0.  1.
         11   -1    0    0    0    0 -0.00000000000E+00 -0.00000000000E+00 -0.45593999997E+02  0.45594000000E+02  0.51100000000E-03 0. -1.
    9900012    2    1    2    0    0  0.12456808994E+02  0.31693434863E+02 -0.26906827274E+02  0.47787271231E+02  0.20000000853E+02 0.  0.
        -12    1    1    2    0    0 -0.12456808994E+02 -0.31693434863E+02  0.26906827274E+02  0.43400728769E+02  0.00000000000E+00 0.  1.
         11    1    3    3    0    0  0.12140108035E+02  0.25768052724E+02 -0.21506109696E+02  0.35691560891E+02  0.51100000000E-03 0.  1.
        -11    1    3    3    0    0 -0.11679846649E+01  0.67648199014E+01 -0.47300789965E+00  0.68811854509E+01  0.51100000000E-03 0. -1.
         12    1    3    3    0    0  0.14846856236E+01 -0.83943776256E+00 -0.49277096780E+01  0.52145248900E+01  0.00000000000E+00 0. -1.
</event>
<event>
 7    1  0.2740409E-010  0.4778727E+02  0.7816164E-02  0.1312668E+00
        -11   -1    0    0    0    0  0.00000000000E+00  0.00000000000E+00  0.45593999997E+02  0.45594000000E+02  0.51100000000E-03 0.  1.
         11   -1    0    0    0    0 -0.00000000000E+00 -0.00000000000E+00 -0.45593999997E+02  0.45594000000E+02  0.51100000000E-03 0. -1.
    9900012    2    1    2    0    0 -0.25477288902E+02 -0.33846299898E+02  0.94317950218E+01  0.47787273924E+02  0.20000013130E+02 0.  0.
        -12    1    1    2    0    0  0.25477288902E+02  0.33846299898E+02 -0.94317950218E+01  0.43400726076E+02  0.00000000000E+00 0.  1.
         11    1    3    3    0    0 -0.19613610340E+02 -0.29363621546E+02  0.20000201686E+01  0.35368291757E+02  0.51100000000E-03 0. -1.
        -11    1    3    3    0    0 -0.71599775673E+01 -0.29839145270E+01  0.68636986513E+01  0.10357576169E+02  0.51100000000E-03 0.  1.
        -12    1    3    3    0    0  0.12962990058E+01 -0.14987638254E+01  0.56807620196E+00  0.20614059979E+01  0.00000000000E+00 0.  1.
</event>
<event>
 7    1  0.2740409E-010  0.4778727E+02  0.7816164E-02  0.1312668E+00
        -11   -1    0    0    0    0  0.00000000000E+00  0.00000000000E+00  0.45593999997E+02  0.45594000000E+02  0.51100000000E-03 0.  1.
         11   -1    0    0    0    0 -0.00000000000E+00 -0.00000000000E+00 -0.45593999997E+02  0.45594000000E+02  0.51100000000E-03 0. -1.
    9900012    2    1    2    0    0 -0.54977777652E+01  0.41350235833E+02 -0.11981463978E+02  0.47787273706E+02  0.20000012133E+02 0.  0.
        -12    1    1    2    0    0  0.54977777652E+01 -0.41350235833E+02  0.11981463978E+02  0.43400726294E+02  0.00000000000E+00 0.  1.
         11    1    3    3    0    0 -0.30828782897E+01  0.24248559231E+02 -0.13560773444E+00  0.24444123077E+02  0.51100000000E-03 0. -1.
        -11    1    3    3    0    0 -0.16444991672E+01  0.10289583762E+02 -0.12707700402E+02  0.16433671570E+02  0.51100000000E-03 0.  1.
        -12    1    3    3    0    0 -0.77040030830E+00  0.68120928404E+01  0.86184415831E+00  0.69094790581E+01  0.00000000000E+00 0.  1.
</event>
<event>
 7    1  0.2740409E-010  0.4778727E+02  0.7816164E-02  0.1312668E+00
        -11   -1    0    0    0    0  0.00000000000E+00  0.00000000000E+00  0.45593999997E+02  0.45594000000E+02  0.51100000000E-03 0.  1.
         11   -1    0    0    0    0 -0.00000000000E+00 -0.00000000000E+00 -0.45593999997E+02  0.45594000000E+02  0.51100000000E-03 0. -1.
    9900012    2    1    2    0    0  0.26437570006E+02  0.34306473325E+02 -0.27829025852E+01  0.47787265368E+02  0.19999974117E+02 0.  0.
        -12    1    1    2    0    0 -0.26437570006E+02 -0.34306473325E+02  0.27829025852E+01  0.43400734632E+02  0.00000000000E+00 0.  1.
         11    1    3    3    0    0  0.11776118052E+02  0.15536727318E+02  0.43785461759E+01  0.19980953906E+02  0.51100000000E-03 0. -1.
        -11    1    3    3    0    0  0.16441777489E+02  0.16146799203E+02 -0.82161082119E+01  0.24465396091E+02  0.51100000000E-03 0.  1.
        -12    1    3    3    0    0 -0.17803255355E+01  0.26229468049E+01  0.10546594508E+01  0.33409153702E+01  0.00000000000E+00 0.  1.
</event>
<event>
 7    1  0.2740409E-010  0.4778728E+02  0.7816164E-02  0.1312668E+00
        -11   -1    0    0    0    0  0.00000000000E+00  0.00000000000E+00  0.45593999997E+02  0.45594000000E+02  0.51100000000E-03 0.  1.
         11   -1    0    0    0    0 -0.00000000000E+00 -0.00000000000E+00 -0.45593999997E+02  0.45594000000E+02  0.51100000000E-03 0. -1.
    9900012    2    1    2    0    0  0.67605996124E+01  0.14499624290E+02 -0.40344492918E+02  0.47787275116E+02  0.20000018562E+02 0.  0.
        -12    1    1    2    0    0 -0.67605996124E+01 -0.14499624290E+02  0.40344492918E+02  0.43400724884E+02  0.00000000000E+00 0.  1.
         11    1    3    3    0    0  0.10758623408E+01  0.17816078202E+02 -0.31268202898E+02  0.36003758623E+02  0.51100000000E-03 0. -1.
        -11    1    3    3    0    0  0.33079708834E+01 -0.67485811208E+00 -0.21605066391E+01  0.40082282914E+01  0.51100000000E-03 0.  1.
         12    1    3    3    0    0  0.23767663882E+01 -0.26415958000E+01 -0.69157833813E+01  0.77752882012E+01  0.00000000000E+00 0. -1.
</event>
<event>
 7    1  0.2740409E-010  0.4778727E+02  0.7816164E-02  0.1312668E+00
        -11   -1    0    0    0    0  0.00000000000E+00  0.00000000000E+00  0.45593999997E+02  0.45594000000E+02  0.51100000000E-03 0.  1.
         11   -1    0    0    0    0 -0.00000000000E+00 -0.00000000000E+00 -0.45593999997E+02  0.45594000000E+02  0.51100000000E-03 0. -1.
    9900012    2    1    2    0    0  0.34720855998E+02 -0.30263570839E+01 -0.25863624047E+02  0.47787265821E+02  0.19999976184E+02 0.  0.
        -12    1    1    2    0    0 -0.34720855998E+02  0.30263570839E+01  0.25863624047E+02  0.43400734179E+02  0.00000000000E+00 0.  1.
         11    1    3    3    0    0  0.10310917242E+02 -0.37028510629E+00 -0.19217379301E+02  0.21811918597E+02  0.51100000000E-03 0. -1.
        -11    1    3    3    0    0  0.23050213598E+02 -0.29758214017E+01 -0.73961313337E+01  0.24389969637E+02  0.51100000000E-03 0.  1.
         12    1    3    3    0    0  0.13597251587E+01  0.31974942413E+00  0.74988658718E+00  0.15853775875E+01  0.00000000000E+00 0. -1.
</event>
<event>
 7    1  0.2740409E-010  0.4778728E+02  0.7816164E-02  0.1312668E+00
        -11   -1    0    0    0    0  0.00000000000E+00  0.00000000000E+00  0.45593999997E+02  0.45594000000E+02  0.51100000000E-03 0.  1.
         11   -1    0    0    0    0 -0.00000000000E+00 -0.00000000000E+00 -0.45593999997E+02  0.45594000000E+02  0.51100000000E-03 0. -1.
    9900012    2    1    2    0    0 -0.29347590854E+02  0.11296420297E+02 -0.29912070651E+02  0.47787283749E+02  0.20000057925E+02 0.  0.
        -12    1    1    2    0    0  0.29347590854E+02 -0.11296420297E+02  0.29912070651E+02  0.43400716251E+02  0.00000000000E+00 0.  1.
         11    1    3    3    0    0 -0.10375646293E+02  0.79994299438E+00 -0.42597779366E+01  0.11244538813E+02  0.51100000000E-03 0. -1.
        -11    1    3    3    0    0 -0.49997089346E+01  0.10230320918E+02 -0.15664269134E+02  0.19365585023E+02  0.51100000000E-03 0.  1.
        -12    1    3    3    0    0 -0.13972235627E+02  0.26615638453E+00 -0.99880235799E+01  0.17177159913E+02  0.00000000000E+00 0.  1.
</event>
<event>
 7    1  0.2740409E-010  0.4778729E+02  0.7816164E-02  0.1312668E+00
        -11   -1    0    0    0    0  0.00000000000E+00  0.00000000000E+00  0.45593999997E+02  0.45594000000E+02  0.51100000000E-03 0.  1.
         11   -1    0    0    0    0 -0.00000000000E+00 -0.00000000000E+00 -0.45593999997E+02  0.45594000000E+02  0.51100000000E-03 0. -1.
    9900012    2    1    2    0    0  0.31948461742E+02 -0.46984328494E+01  0.28997282679E+02  0.47787287083E+02  0.20000073127E+02 0.  0.
        -12    1    1    2    0    0 -0.31948461742E+02  0.46984328494E+01 -0.28997282679E+02  0.43400712917E+02  0.00000000000E+00 0.  1.
         11    1    3    3    0    0  0.20463229754E+02 -0.58702005476E+00  0.68268561696E+01  0.21579952037E+02  0.51100000000E-03 0. -1.
        -11    1    3    3    0    0  0.10754308843E+02 -0.55218676846E+01  0.21011013110E+02  0.24240644661E+02  0.51100000000E-03 0.  1.
         12    1    3    3    0    0  0.73092314551E+00  0.14104548900E+01  0.11594133998E+01  0.19666903856E+01  0.00000000000E+00 0. -1.
</event>
<event>
 7    1  0.2740409E-010  0.4778727E+02  0.7816164E-02  0.1312668E+00
        -11   -1    0    0    0    0  0.00000000000E+00  0.00000000000E+00  0.45593999997E+02  0.45594000000E+02  0.51100000000E-03 0.  1.
         11   -1    0    0    0    0 -0.00000000000E+00 -0.00000000000E+00 -0.45593999997E+02  0.45594000000E+02  0.51100000000E-03 0. -1.
    9900012    2    1    2    0    0 -0.86684550534E+01  0.21121331289E+01 -0.42473761835E+02  0.47787266552E+02  0.19999979518E+02 0.  0.
        -12    1    1    2    0    0  0.86684550534E+01 -0.21121331289E+01  0.42473761835E+02  0.43400733448E+02  0.00000000000E+00 0.  1.
         11    1    3    3    0    0  0.22257315390E+01 -0.40251239118E+01 -0.96783541627E+01  0.10715691436E+02  0.51100000000E-03 0.  1.
        -11    1    3    3    0    0 -0.13026635545E+01  0.82957233740E+00 -0.20661695649E+02  0.20719333724E+02  0.51100000000E-03 0. -1.
         12    1    3    3    0    0 -0.95915230379E+01  0.53076847033E+01 -0.12133712023E+02  0.16352241393E+02  0.00000000000E+00 0. -1.
</event>
<event>
 7    1  0.2740409E-010  0.4778727E+02  0.7816164E-02  0.1312668E+00
        -11   -1    0    0    0    0  0.00000000000E+00  0.00000000000E+00  0.45593999997E+02  0.45594000000E+02  0.51100000000E-03 0.  1.
         11   -1    0    0    0    0 -0.00000000000E+00 -0.00000000000E+00 -0.45593999997E+02  0.45594000000E+02  0.51100000000E-03 0. -1.
    9900012    2    1    2    0    0  0.12646697659E+01  0.28679649161E+02 -0.32549983664E+02  0.47787273023E+02  0.20000009021E+02 0.  0.
        -12    1    1    2    0    0 -0.12646697659E+01 -0.28679649161E+02  0.32549983664E+02  0.43400726977E+02  0.00000000000E+00 0.  1.
         11    1    3    3    0    0  0.40981825073E+01  0.14310721303E+02 -0.19361571734E+02  0.24422577758E+02  0.51100000000E-03 0. -1.
        -11    1    3    3    0    0 -0.68695015702E+01  0.13223927505E+02 -0.88595645848E+01  0.17336498937E+02  0.51100000000E-03 0.  1.
        -12    1    3    3    0    0  0.40359888289E+01  0.11450003528E+01 -0.43288473454E+01  0.60281963285E+01  0.00000000000E+00 0.  1.
</event>
<event>
 7    1  0.2740409E-010  0.4778727E+02  0.7816164E-02  0.1312668E+00
        -11   -1    0    0    0    0  0.00000000000E+00  0.00000000000E+00  0.45593999997E+02  0.45594000000E+02  0.51100000000E-03 0.  1.
         11   -1    0    0    0    0 -0.00000000000E+00 -0.00000000000E+00 -0.45593999997E+02  0.45594000000E+02  0.51100000000E-03 0. -1.
    9900012    2    1    2    0    0 -0.22327398431E+02 -0.68549459043E+01 -0.36580325221E+02  0.47787271927E+02  0.20000004022E+02 0.  0.
        -12    1    1    2    0    0  0.22327398431E+02  0.68549459043E+01  0.36580325221E+02  0.43400728073E+02  0.00000000000E+00 0.  1.
         11    1    3    3    0    0  0.35964139055E+00 -0.42933357300E+01 -0.10999895547E+01  0.44465774368E+01  0.51100000000E-03 0. -1.
        -11    1    3    3    0    0 -0.18737210708E+02 -0.26277427999E+01 -0.20711707826E+02  0.28052859723E+02  0.51100000000E-03 0.  1.
         12    1    3    3    0    0 -0.39498291131E+01  0.66132625562E-01 -0.14768627841E+02  0.15287834766E+02  0.00000000000E+00 0. -1.
</event>
<event>
 7    1  0.2740409E-010  0.4778727E+02  0.7816164E-02  0.1312668E+00
        -11   -1    0    0    0    0  0.00000000000E+00  0.00000000000E+00  0.45593999997E+02  0.45594000000E+02  0.51100000000E-03 0.  1.
         11   -1    0    0    0    0 -0.00000000000E+00 -0.00000000000E+00 -0.45593999997E+02  0.45594000000E+02  0.51100000000E-03 0. -1.
    9900012    2    1    2    0    0 -0.42463661316E+02  0.85259605105E+01 -0.27872676995E+01  0.47787269635E+02  0.19999993575E+02 0.  0.
        -12    1    1    2    0    0  0.42463661316E+02 -0.85259605105E+01  0.27872676995E+01  0.43400730365E+02  0.00000000000E+00 0.  1.
         11    1    3    3    0    0 -0.15749598329E+02  0.24433406842E+01  0.28220680522E+01  0.16185914543E+02  0.51100000000E-03 0. -1.
        -11    1    3    3    0    0 -0.18857124858E+02 -0.24893381934E+01 -0.85789937962E+00  0.19040061821E+02  0.51100000000E-03 0.  1.
        -12    1    3    3    0    0 -0.78569381285E+01  0.85719580198E+01 -0.47514363721E+01  0.12561293271E+02  0.00000000000E+00 0.  1.
</event>
<event>
 7    1  0.2740409E-010  0.4778726E+02  0.7816164E-02  0.1312668E+00
        -11   -1    0    0    0    0  0.00000000000E+00  0.00000000000E+00  0.45593999997E+02  0.45594000000E+02  0.51100000000E-03 0.  1.
         11   -1    0    0    0    0 -0.00000000000E+00 -0.00000000000E+00 -0.45593999997E+02  0.45594000000E+02  0.51100000000E-03 0. -1.
    9900012    2    1    2    0    0  0.40266999213E+01 -0.37611268720E+02 -0.21279144385E+02  0.47787264606E+02  0.19999970643E+02 0.  0.
        -12    1    1    2    0    0 -0.40266999213E+01  0.37611268720E+02  0.21279144385E+02  0.43400735394E+02  0.00000000000E+00 0.  1.
         11    1    3    3    0    0 -0.44944872709E+01 -0.14282562434E+02 -0.68299470879E+00  0.14988611928E+02  0.51100000000E-03 0. -1.
        -11    1    3    3    0    0  0.44832997643E+00  0.16730956175E+00 -0.11607812831E+01  0.12555499614E+01  0.51100000000E-03 0.  1.
         12    1    3    3    0    0  0.80728572158E+01 -0.23496015848E+02 -0.19435368394E+02  0.31543102716E+02  0.00000000000E+00 0. -1.
</event>
<event>
 7    1  0.2740409E-010  0.4778727E+02  0.7816164E-02  0.1312668E+00
        -11   -1    0    0    0    0  0.00000000000E+00  0.00000000000E+00  0.45593999997E+02  0.45594000000E+02  0.51100000000E-03 0. -1.
         11   -1    0    0    0    0 -0.00000000000E+00 -0.00000000000E+00 -0.45593999997E+02  0.45594000000E+02  0.51100000000E-03 0.  1.
    9900012    2    1    2    0    0 -0.63642760514E+01  0.18002437240E+02  0.38974751136E+02  0.47787274403E+02  0.20000015312E+02 0.  0.
        -12    1    1    2    0    0  0.63642760514E+01 -0.18002437240E+02 -0.38974751136E+02  0.43400725597E+02  0.00000000000E+00 0.  1.
         11    1    3    3    0    0 -0.10446550543E+02  0.92253762888E+01  0.25123722492E+02  0.28730461500E+02  0.51100000000E-03 0. -1.
        -11    1    3    3    0    0  0.49517033568E+01  0.10439795893E+01  0.73120382130E+01  0.88924216390E+01  0.51100000000E-03 0.  1.
        -12    1    3    3    0    0 -0.86942886525E+00  0.77330813614E+01  0.65389904318E+01  0.10164391264E+02  0.00000000000E+00 0.  1.
</event>
<event>
 7    1  0.2740409E-010  0.4778729E+02  0.7816164E-02  0.1312668E+00
        -11   -1    0    0    0    0  0.00000000000E+00  0.00000000000E+00  0.45593999997E+02  0.45594000000E+02  0.51100000000E-03 0. -1.
         11   -1    0    0    0    0 -0.00000000000E+00 -0.00000000000E+00 -0.45593999997E+02  0.45594000000E+02  0.51100000000E-03 0.  1.
    9900012    2    1    2    0    0  0.49083599257E+01  0.14798547818E+02  0.40503490955E+02  0.47787288091E+02  0.20000077720E+02 0.  0.
        -12    1    1    2    0    0 -0.49083599257E+01 -0.14798547818E+02 -0.40503490955E+02  0.43400711909E+02  0.00000000000E+00 0.  1.
         11    1    3    3    0    0  0.85573226037E+00  0.17482457770E+02  0.28741937019E+02  0.33652155224E+02  0.51100000000E-03 0. -1.
        -11    1    3    3    0    0  0.30096756724E+01 -0.24825100244E+01  0.21296194445E+01  0.44448040355E+01  0.51100000000E-03 0.  1.
         12    1    3    3    0    0  0.10429519929E+01 -0.20139992789E+00  0.96319344922E+01  0.96903288310E+01  0.00000000000E+00 0. -1.
</event>
<event>
 7    1  0.2740409E-010  0.4778727E+02  0.7816164E-02  0.1312668E+00
        -11   -1    0    0    0    0  0.00000000000E+00  0.00000000000E+00  0.45593999997E+02  0.45594000000E+02  0.51100000000E-03 0.  1.
         11   -1    0    0    0    0 -0.00000000000E+00 -0.00000000000E+00 -0.45593999997E+02  0.45594000000E+02  0.51100000000E-03 0. -1.
    9900012    2    1    2    0    0 -0.34525589077E+02  0.24551901178E+02 -0.94239502494E+01  0.47787274304E+02  0.20000014863E+02 0.  0.
        -12    1    1    2    0    0  0.34525589077E+02 -0.24551901178E+02  0.94239502494E+01  0.43400725696E+02  0.00000000000E+00 0.  1.
         11    1    3    3    0    0 -0.16699849282E+02  0.16915866842E+02 -0.11603597141E+02  0.26451370171E+02  0.51100000000E-03 0. -1.
        -11    1    3    3    0    0 -0.74106567984E+01  0.35009953376E+01  0.52296325826E+01  0.97223381832E+01  0.51100000000E-03 0.  1.
        -12    1    3    3    0    0 -0.10415082997E+02  0.41350389989E+01 -0.30499856909E+01  0.11613565950E+02  0.00000000000E+00 0.  1.
</event>
<event>
 7    1  0.2740409E-010  0.4778727E+02  0.7816164E-02  0.1312668E+00
        -11   -1    0    0    0    0  0.00000000000E+00  0.00000000000E+00  0.45593999997E+02  0.45594000000E+02  0.51100000000E-03 0. -1.
         11   -1    0    0    0    0 -0.00000000000E+00 -0.00000000000E+00 -0.45593999997E+02  0.45594000000E+02  0.51100000000E-03 0.  1.
    9900012    2    1    2    0    0  0.29625421711E+02 -0.23966633076E+02 -0.20773979325E+02  0.47787270404E+02  0.19999997079E+02 0.  0.
        -12    1    1    2    0    0 -0.29625421711E+02  0.23966633076E+02  0.20773979325E+02  0.43400729596E+02  0.00000000000E+00 0.  1.
         11    1    3    3    0    0  0.22179961072E+02 -0.23286137776E+02 -0.90506237002E+01  0.33408212692E+02  0.51100000000E-03 0. -1.
        -11    1    3    3    0    0  0.39707610547E+00  0.35660510765E+00  0.13015519624E+00  0.54934258215E+00  0.51100000000E-03 0.  1.
         12    1    3    3    0    0  0.70483845336E+01 -0.10371004074E+01 -0.11853510821E+02  0.13829715129E+02  0.00000000000E+00 0. -1.
</event>
<event>
 7    1  0.2740409E-010  0.4778727E+02  0.7816164E-02  0.1312668E+00
        -11   -1    0    0    0    0  0.00000000000E+00  0.00000000000E+00  0.45593999997E+02  0.45594000000E+02  0.51100000000E-03 0.  1.
         11   -1    0    0    0    0 -0.00000000000E+00 -0.00000000000E+00 -0.45593999997E+02  0.45594000000E+02  0.51100000000E-03 0. -1.
    9900012    2    1    2    0    0  0.14155367612E+02 -0.29595803809E+02 -0.28413676910E+02  0.47787273383E+02  0.20000010661E+02 0.  0.
        -12    1    1    2    0    0 -0.14155367612E+02  0.29595803809E+02  0.28413676910E+02  0.43400726617E+02  0.00000000000E+00 0.  1.
         11    1    3    3    0    0  0.37837645393E+01 -0.20490858900E+02 -0.75572132535E+01  0.22165370400E+02  0.51100000000E-03 0. -1.
        -11    1    3    3    0    0  0.43324235373E+01 -0.66387491628E+01 -0.14433575231E+02  0.16467269913E+02  0.51100000000E-03 0.  1.
         12    1    3    3    0    0  0.60391795354E+01 -0.24661957464E+01 -0.64228884255E+01  0.91546330701E+01  0.00000000000E+00 0. -1.
</event>
<event>
 7    1  0.2740409E-010  0.4778727E+02  0.7816164E-02  0.1312668E+00
        -11   -1    0    0    0    0  0.00000000000E+00  0.00000000000E+00  0.45593999997E+02  0.45594000000E+02  0.51100000000E-03 0.  1.
         11   -1    0    0    0    0 -0.00000000000E+00 -0.00000000000E+00 -0.45593999997E+02  0.45594000000E+02  0.51100000000E-03 0. -1.
    9900012    2    1    2    0    0  0.16004836076E+02  0.34974665568E+02 -0.20105756163E+02  0.47787269127E+02  0.19999991258E+02 0.  0.
        -12    1    1    2    0    0 -0.16004836076E+02 -0.34974665568E+02  0.20105756163E+02  0.43400730873E+02  0.00000000000E+00 0.  1.
         11    1    3    3    0    0  0.11707793030E+01  0.19258878746E+02 -0.13694111939E+02  0.23660174065E+02  0.51100000000E-03 0. -1.
        -11    1    3    3    0    0  0.88897618391E+01  0.51697924021E+01 -0.62224716055E+01  0.12019724297E+02  0.51100000000E-03 0.  1.
         12    1    3    3    0    0  0.59442949340E+01  0.10545994420E+02 -0.18917261881E+00  0.12107370765E+02  0.00000000000E+00 0. -1.
</event>
<event>
 7    1  0.2740409E-010  0.4778727E+02  0.7816164E-02  0.1312668E+00
        -11   -1    0    0    0    0  0.00000000000E+00  0.00000000000E+00  0.45593999997E+02  0.45594000000E+02  0.51100000000E-03 0.  1.
         11   -1    0    0    0    0 -0.00000000000E+00 -0.00000000000E+00 -0.45593999997E+02  0.45594000000E+02  0.51100000000E-03 0. -1.
    9900012    2    1    2    0    0 -0.11291475488E+02  0.40283471929E+02 -0.11548496415E+02  0.47787270757E+02  0.19999998689E+02 0.  0.
        -12    1    1    2    0    0  0.11291475488E+02 -0.40283471929E+02  0.11548496415E+02  0.43400729243E+02  0.00000000000E+00 0.  1.
         11    1    3    3    0    0 -0.51204431108E+01  0.88473598104E+00  0.10267961361E+01  0.52967920455E+01  0.51100000000E-03 0. -1.
        -11    1    3    3    0    0  0.16019334617E+01  0.11855156312E+02 -0.34120983375E+01  0.12439989443E+02  0.51100000000E-03 0.  1.
         12    1    3    3    0    0 -0.77729658393E+01  0.27543579636E+02 -0.91631942137E+01  0.30050489269E+02  0.00000000000E+00 0. -1.
</event>
<event>
 7    1  0.2740409E-010  0.4778730E+02  0.7816164E-02  0.1312668E+00
        -11   -1    0    0    0    0  0.00000000000E+00  0.00000000000E+00  0.45593999997E+02  0.45594000000E+02  0.51100000000E-03 0. -1.
         11   -1    0    0    0    0 -0.00000000000E+00 -0.00000000000E+00 -0.45593999997E+02  0.45594000000E+02  0.51100000000E-03 0.  1.
    9900012    2    1    2    0    0 -0.10514601109E+02 -0.11893944152E+02  0.40393042310E+02  0.47787301722E+02  0.20000139870E+02 0.  0.
        -12    1    1    2    0    0  0.10514601109E+02  0.11893944152E+02 -0.40393042310E+02  0.43400698278E+02  0.00000000000E+00 0.  1.
         11    1    3    3    0    0 -0.10685974229E+02 -0.33073973679E+01  0.10805494090E+02  0.15552736909E+02  0.51100000000E-03 0. -1.
        -11    1    3    3    0    0  0.38287320410E+01 -0.77962124710E+01  0.16822695941E+02  0.18932596676E+02  0.51100000000E-03 0.  1.
         12    1    3    3    0    0 -0.36573589216E+01 -0.79033431360E+00  0.12764852279E+02  0.13301968137E+02  0.00000000000E+00 0. -1.
</event>
<event>
 7    1  0.2740409E-010  0.4778726E+02  0.7816164E-02  0.1312668E+00
        -11   -1    0    0    0    0  0.00000000000E+00  0.00000000000E+00  0.45593999997E+02  0.45594000000E+02  0.51100000000E-03 0.  1.
         11   -1    0    0    0    0 -0.00000000000E+00 -0.00000000000E+00 -0.45593999997E+02  0.45594000000E+02  0.51100000000E-03 0. -1.
    9900012    2    1    2    0    0 -0.10224133702E+02  0.14634050948E+02 -0.39559267093E+02  0.47787263024E+02  0.19999963430E+02 0.  0.
        -12    1    1    2    0    0  0.10224133702E+02 -0.14634050948E+02  0.39559267093E+02  0.43400736976E+02  0.00000000000E+00 0.  1.
         11    1    3    3    0    0 -0.64389144776E+01  0.84519886383E+01 -0.10866810017E+02  0.15198134484E+02  0.51100000000E-03 0. -1.
        -11    1    3    3    0    0 -0.49672153877E+01 -0.89974944695E+00 -0.22648068373E+02  0.23203831129E+02  0.51100000000E-03 0.  1.
        -12    1    3    3    0    0  0.11819961632E+01  0.70818117568E+01 -0.60443887036E+01  0.93852974108E+01  0.00000000000E+00 0.  1.
</event>
<event>
 7    1  0.2740409E-010  0.4778727E+02  0.7816164E-02  0.1312668E+00
        -11   -1    0    0    0    0  0.00000000000E+00  0.00000000000E+00  0.45593999997E+02  0.45594000000E+02  0.51100000000E-03 0. -1.
         11   -1    0    0    0    0 -0.00000000000E+00 -0.00000000000E+00 -0.45593999997E+02  0.45594000000E+02  0.51100000000E-03 0.  1.
    9900012    2    1    2    0    0 -0.15129008677E+01  0.42423501724E+02  0.90322184499E+01  0.47787270309E+02  0.19999996649E+02 0.  0.
        -12    1    1    2    0    0  0.15129008677E+01 -0.42423501724E+02 -0.90322184499E+01  0.43400729691E+02  0.00000000000E+00 0.  1.
         11    1    3    3    0    0  0.69259174508E+01  0.24723582578E+02  0.58090437968E+01  0.26324301664E+02  0.51100000000E-03 0. -1.
        -11    1    3    3    0    0  0.76713903207E+00  0.23578994032E+00 -0.99201869961E+00  0.12760096206E+01  0.51100000000E-03 0.  1.
         12    1    3    3    0    0 -0.92059573506E+01  0.17464129206E+02  0.42151933526E+01  0.20186959025E+02  0.00000000000E+00 0. -1.
</event>
<event>
 7    1  0.2740409E-010  0.4778727E+02  0.7816164E-02  0.1312668E+00
        -11   -1    0    0    0    0  0.00000000000E+00  0.00000000000E+00  0.45593999997E+02  0.45594000000E+02  0.51100000000E-03 0.  1.
         11   -1    0    0    0    0 -0.00000000000E+00 -0.00000000000E+00 -0.45593999997E+02  0.45594000000E+02  0.51100000000E-03 0. -1.
    9900012    2    1    2    0    0 -0.10830087826E+02  0.38869624498E+02 -0.15983892416E+02  0.47787270425E+02  0.19999997174E+02 0.  0.
        -12    1    1    2    0    0  0.10830087826E+02 -0.38869624498E+02  0.15983892416E+02  0.43400729575E+02  0.00000000000E+00 0.  1.
         11    1    3    3    0    0 -0.90215550176E+01  0.20623248900E+02 -0.48731148799E+00  0.22515424111E+02  0.51100000000E-03 0. -1.
        -11    1    3    3    0    0 -0.37074529265E+01  0.17116324070E+02 -0.14871151242E+02  0.22975310583E+02  0.51100000000E-03 0.  1.
         12    1    3    3    0    0  0.18989201182E+01  0.11300515277E+01 -0.62542968537E+00  0.22965357306E+01  0.00000000000E+00 0. -1.
</event>
<event>
 7    1  0.2740409E-010  0.4778727E+02  0.7816164E-02  0.1312668E+00
        -11   -1    0    0    0    0  0.00000000000E+00  0.00000000000E+00  0.45593999997E+02  0.45594000000E+02  0.51100000000E-03 0.  1.
         11   -1    0    0    0    0 -0.00000000000E+00 -0.00000000000E+00 -0.45593999997E+02  0.45594000000E+02  0.51100000000E-03 0. -1.
    9900012    2    1    2    0    0 -0.47581941119E+01 -0.41367968429E+02 -0.12234136782E+02  0.47787270444E+02  0.19999997264E+02 0.  0.
        -12    1    1    2    0    0  0.47581941119E+01  0.41367968429E+02  0.12234136782E+02  0.43400729556E+02  0.00000000000E+00 0.  1.
         11    1    3    3    0    0 -0.13682950871E+01 -0.54678664100E+00 -0.98494608202E+00  0.17723786621E+01  0.51100000000E-03 0. -1.
        -11    1    3    3    0    0  0.21993977817E+01 -0.51910796243E+01 -0.80220064980E+01  0.98049603152E+01  0.51100000000E-03 0.  1.
        -12    1    3    3    0    0 -0.55892968065E+01 -0.35630102164E+02 -0.32271842024E+01  0.36209931467E+02  0.00000000000E+00 0.  1.
</event>
<event>
 7    1  0.2740409E-010  0.4778727E+02  0.7816164E-02  0.1312668E+00
        -11   -1    0    0    0    0  0.00000000000E+00  0.00000000000E+00  0.45593999997E+02  0.45594000000E+02  0.51100000000E-03 0. -1.
         11   -1    0    0    0    0 -0.00000000000E+00 -0.00000000000E+00 -0.45593999997E+02  0.45594000000E+02  0.51100000000E-03 0.  1.
    9900012    2    1    2    0    0 -0.40526165025E+02  0.66338525120E+01  0.14044405531E+02  0.47787269850E+02  0.19999994555E+02 0.  0.
        -12    1    1    2    0    0  0.40526165025E+02 -0.66338525120E+01 -0.14044405531E+02  0.43400730150E+02  0.00000000000E+00 0.  1.
         11    1    3    3    0    0 -0.63338632846E+01  0.26475887781E+01  0.88913485164E+01  0.11233148675E+02  0.51100000000E-03 0. -1.
        -11    1    3    3    0    0 -0.12374396521E+02 -0.38159646145E+01  0.77066086986E+00  0.12972324142E+02  0.51100000000E-03 0.  1.
        -12    1    3    3    0    0 -0.21817905219E+02  0.78022283484E+01  0.43823961449E+01  0.23581797034E+02  0.00000000000E+00 0.  1.
</event>
<event>
 7    1  0.2740409E-010  0.4778723E+02  0.7816164E-02  0.1312668E+00
        -11   -1    0    0    0    0  0.00000000000E+00  0.00000000000E+00  0.45593999997E+02  0.45594000000E+02  0.51100000000E-03 0.  1.
         11   -1    0    0    0    0 -0.00000000000E+00 -0.00000000000E+00 -0.45593999997E+02  0.45594000000E+02  0.51100000000E-03 0. -1.
    9900012    2    1    2    0    0 -0.25999998526E+02 -0.24138637483E+01 -0.34666990064E+02  0.47787229712E+02  0.19999811546E+02 0.  0.
        -12    1    1    2    0    0  0.25999998526E+02  0.24138637483E+01  0.34666990064E+02  0.43400770288E+02  0.00000000000E+00 0.  1.
         11    1    3    3    0    0  0.27771427486E+01 -0.23130815746E+00 -0.82286185919E+00  0.29057059745E+01  0.51100000000E-03 0. -1.
        -11    1    3    3    0    0 -0.55725817611E+01 -0.24335004085E+01 -0.50794832539E+01  0.79231775261E+01  0.51100000000E-03 0.  1.
         12    1    3    3    0    0 -0.23204559514E+02  0.25094481765E+00 -0.28764644951E+02  0.36958346211E+02  0.00000000000E+00 0. -1.
</event>
<event>
 7    1  0.2740409E-010  0.4778727E+02  0.7816164E-02  0.1312668E+00
        -11   -1    0    0    0    0  0.00000000000E+00  0.00000000000E+00  0.45593999997E+02  0.45594000000E+02  0.51100000000E-03 0.  1.
         11   -1    0    0    0    0 -0.00000000000E+00 -0.00000000000E+00 -0.45593999997E+02  0.45594000000E+02  0.51100000000E-03 0. -1.
    9900012    2    1    2    0    0 -0.83116597504E+01 -0.13860235648E+02 -0.40279447190E+02  0.47787266297E+02  0.19999978355E+02 0.  0.
        -12    1    1    2    0    0  0.83116597504E+01  0.13860235648E+02  0.40279447190E+02  0.43400733703E+02  0.00000000000E+00 0.  1.
         11    1    3    3    0    0 -0.57635306092E+01 -0.11125971958E+02 -0.26898664893E+02  0.29673956770E+02  0.51100000000E-03 0. -1.
        -11    1    3    3    0    0  0.40337460647E+00 -0.17815970006E+01  0.18323027363E+01  0.25873021711E+01  0.51100000000E-03 0.  1.
        -12    1    3    3    0    0 -0.29515037477E+01 -0.95266668901E+00 -0.15213085033E+02  0.15526007356E+02  0.00000000000E+00 0.  1.
</event>
<event>
 7    1  0.2740409E-010  0.4778727E+02  0.7816164E-02  0.1312668E+00
        -11   -1    0    0    0    0  0.00000000000E+00  0.00000000000E+00  0.45593999997E+02  0.45594000000E+02  0.51100000000E-03 0.  1.
         11   -1    0    0    0    0 -0.00000000000E+00 -0.00000000000E+00 -0.45593999997E+02  0.45594000000E+02  0.51100000000E-03 0. -1.
    9900012    2    1    2    0    0 -0.35083371849E+01  0.15169233968E+02 -0.40511846042E+02  0.47787265459E+02  0.19999974532E+02 0.  0.
        -12    1    1    2    0    0  0.35083371849E+01 -0.15169233968E+02  0.40511846042E+02  0.43400734541E+02  0.00000000000E+00 0.  1.
         11    1    3    3    0    0  0.42042272296E+01  0.30938229476E+01 -0.22777192852E+02  0.23367665299E+02  0.51100000000E-03 0. -1.
        -11    1    3    3    0    0 -0.42816482435E-01  0.11452356248E+01  0.92622484473E+00  0.14735299833E+01  0.51100000000E-03 0.  1.
         12    1    3    3    0    0 -0.76697479321E+01  0.10930175396E+02 -0.18660878035E+02  0.22946070177E+02  0.00000000000E+00 0. -1.
</event>
<event>
 7    1  0.2740409E-010  0.4778727E+02  0.7816164E-02  0.1312668E+00
        -11   -1    0    0    0    0  0.00000000000E+00  0.00000000000E+00  0.45593999997E+02  0.45594000000E+02  0.51100000000E-03 0.  1.
         11   -1    0    0    0    0 -0.00000000000E+00 -0.00000000000E+00 -0.45593999997E+02  0.45594000000E+02  0.51100000000E-03 0. -1.
    9900012    2    1    2    0    0 -0.36868595931E+02  0.70583724521E+01 -0.21783234544E+02  0.47787270804E+02  0.19999998903E+02 0.  0.
        -12    1    1    2    0    0  0.36868595931E+02 -0.70583724521E+01  0.21783234544E+02  0.43400729196E+02  0.00000000000E+00 0.  1.
         11    1    3    3    0    0 -0.16172205577E+02  0.69573217373E+01 -0.20184069316E+02  0.26783226344E+02  0.51100000000E-03 0. -1.
        -11    1    3    3    0    0 -0.15284834417E+01 -0.85434256643E+00 -0.16639106452E+00  0.17589340806E+01  0.51100000000E-03 0.  1.
         12    1    3    3    0    0 -0.19167906912E+02  0.95539328122E+00 -0.14327741630E+01  0.19245110379E+02  0.00000000000E+00 0. -1.
</event>
<event>
 7    1  0.2740409E-010  0.4778727E+02  0.7816164E-02  0.1312668E+00
        -11   -1    0    0    0    0  0.00000000000E+00  0.00000000000E+00  0.45593999997E+02  0.45594000000E+02  0.51100000000E-03 0.  1.
         11   -1    0    0    0    0 -0.00000000000E+00 -0.00000000000E+00 -0.45593999997E+02  0.45594000000E+02  0.51100000000E-03 0. -1.
    9900012    2    1    2    0    0 -0.42300528834E+02 -0.31516342241E+01 -0.91845501849E+01  0.47787268439E+02  0.19999988120E+02 0.  0.
        -12    1    1    2    0    0  0.42300528834E+02  0.31516342241E+01  0.91845501849E+01  0.43400731561E+02  0.00000000000E+00 0.  1.
         11    1    3    3    0    0 -0.49213194920E+00  0.34535038876E+01  0.16151074850E+01  0.38441456016E+01  0.51100000000E-03 0.  1.
        -11    1    3    3    0    0 -0.35999561648E+02 -0.68865030964E+01 -0.81258591169E+01  0.37542268849E+02  0.51100000000E-03 0. -1.
         12    1    3    3    0    0 -0.58088352375E+01  0.28136498473E+00 -0.26737985530E+01  0.64008539878E+01  0.00000000000E+00 0. -1.
</event>
<event>
 7    1  0.2740409E-010  0.4778727E+02  0.7816164E-02  0.1312668E+00
        -11   -1    0    0    0    0  0.00000000000E+00  0.00000000000E+00  0.45593999997E+02  0.45594000000E+02  0.51100000000E-03 0.  1.
         11   -1    0    0    0    0 -0.00000000000E+00 -0.00000000000E+00 -0.45593999997E+02  0.45594000000E+02  0.51100000000E-03 0. -1.
    9900012    2    1    2    0    0  0.25541989207E+02  0.34636293734E+02  0.56175877499E+01  0.47787270185E+02  0.19999996083E+02 0.  0.
        -12    1    1    2    0    0 -0.25541989207E+02 -0.34636293734E+02 -0.56175877499E+01  0.43400729815E+02  0.00000000000E+00 0.  1.
         11    1    3    3    0    0  0.35463777659E+01  0.98546757964E+01  0.11872998333E+01  0.10540451198E+02  0.51100000000E-03 0. -1.
        -11    1    3    3    0    0  0.12305093634E+01  0.29453794922E+01  0.62927815619E+01  0.70560976250E+01  0.51100000000E-03 0.  1.
        -12    1    3    3    0    0  0.20765102078E+02  0.21836238446E+02 -0.18624936454E+01  0.30190721362E+02  0.00000000000E+00 0.  1.
</event>
<event>
 7    1  0.2740409E-010  0.4778727E+02  0.7816164E-02  0.1312668E+00
        -11   -1    0    0    0    0  0.00000000000E+00  0.00000000000E+00  0.45593999997E+02  0.45594000000E+02  0.51100000000E-03 0. -1.
         11   -1    0    0    0    0 -0.00000000000E+00 -0.00000000000E+00 -0.45593999997E+02  0.45594000000E+02  0.51100000000E-03 0.  1.
    9900012    2    1    2    0    0  0.26480872443E+02 -0.25838590812E+02  0.22688191737E+02  0.47787269306E+02  0.19999992073E+02 0.  0.
        -12    1    1    2    0    0 -0.26480872443E+02  0.25838590812E+02 -0.22688191737E+02  0.43400730694E+02  0.00000000000E+00 0.  1.
         11    1    3    3    0    0  0.25929072316E+01 -0.81627059853E+01  0.50779320229E+01  0.99568233290E+01  0.51100000000E-03 0. -1.
        -11    1    3    3    0    0  0.82581028267E+01 -0.67606277187E+01  0.15260539770E+02  0.18622202442E+02  0.51100000000E-03 0.  1.
        -12    1    3    3    0    0  0.15629862384E+02 -0.10915257108E+02  0.23497199442E+01  0.19208243535E+02  0.00000000000E+00 0.  1.
</event>
<event>
 7    1  0.2740409E-010  0.4778727E+02  0.7816164E-02  0.1312668E+00
        -11   -1    0    0    0    0  0.00000000000E+00  0.00000000000E+00  0.45593999997E+02  0.45594000000E+02  0.51100000000E-03 0.  1.
         11   -1    0    0    0    0 -0.00000000000E+00 -0.00000000000E+00 -0.45593999997E+02  0.45594000000E+02  0.51100000000E-03 0. -1.
    9900012    2    1    2    0    0  0.25911608176E+02 -0.13883025706E+02 -0.31929192731E+02  0.47787272017E+02  0.20000004434E+02 0.  0.
        -12    1    1    2    0    0 -0.25911608176E+02  0.13883025706E+02  0.31929192731E+02  0.43400727983E+02  0.00000000000E+00 0.  1.
         11    1    3    3    0    0  0.12567930407E+02 -0.61491601271E+01 -0.41198389013E+01  0.14585544824E+02  0.51100000000E-03 0. -1.
        -11    1    3    3    0    0 -0.10078392055E+01  0.64426059293E+00 -0.64919792359E+00  0.13609811832E+01  0.51100000000E-03 0.  1.
         12    1    3    3    0    0  0.14351516974E+02 -0.83781261720E+01 -0.27160155906E+02  0.31840746010E+02  0.00000000000E+00 0. -1.
</event>
<event>
 7    1  0.2740409E-010  0.4778728E+02  0.7816164E-02  0.1312668E+00
        -11   -1    0    0    0    0  0.00000000000E+00  0.00000000000E+00  0.45593999997E+02  0.45594000000E+02  0.51100000000E-03 0.  1.
         11   -1    0    0    0    0 -0.00000000000E+00 -0.00000000000E+00 -0.45593999997E+02  0.45594000000E+02  0.51100000000E-03 0. -1.
    9900012    2    1    2    0    0 -0.56404218808E+01 -0.20855898124E+02 -0.37640932947E+02  0.47787277902E+02  0.20000031266E+02 0.  0.
        -12    1    1    2    0    0  0.56404218808E+01  0.20855898124E+02  0.37640932947E+02  0.43400722098E+02  0.00000000000E+00 0.  1.
         11    1    3    3    0    0 -0.83203883976E+01 -0.14193319464E+02 -0.33712681413E+02  0.37512985336E+02  0.51100000000E-03 0. -1.
        -11    1    3    3    0    0 -0.13049912107E+01 -0.68404223064E+00  0.79668677564E+00  0.16750002725E+01  0.51100000000E-03 0.  1.
         12    1    3    3    0    0  0.39849577276E+01 -0.59785364287E+01 -0.47249383095E+01  0.85992922935E+01  0.00000000000E+00 0. -1.
</event>
<event>
 7    1  0.2740409E-010  0.4778728E+02  0.7816164E-02  0.1312668E+00
        -11   -1    0    0    0    0  0.00000000000E+00  0.00000000000E+00  0.45593999997E+02  0.45594000000E+02  0.51100000000E-03 0.  1.
         11   -1    0    0    0    0 -0.00000000000E+00 -0.00000000000E+00 -0.45593999997E+02  0.45594000000E+02  0.51100000000E-03 0. -1.
    9900012    2    1    2    0    0 -0.42198054072E+02  0.10705315246E+01  0.10089653303E+02  0.47787275248E+02  0.20000019166E+02 0.  0.
        -12    1    1    2    0    0  0.42198054072E+02 -0.10705315246E+01 -0.10089653303E+02  0.43400724752E+02  0.00000000000E+00 0.  1.
         11    1    3    3    0    0 -0.11091837547E+02  0.54061928914E+01  0.84404442243E+01  0.14949812063E+02  0.51100000000E-03 0. -1.
        -11    1    3    3    0    0 -0.78918315095E+01  0.27758688578E+01  0.18023461695E+01  0.85577394483E+01  0.51100000000E-03 0.  1.
         12    1    3    3    0    0 -0.23214385015E+02 -0.71115302245E+01 -0.15313709029E+00  0.24279723737E+02  0.00000000000E+00 0. -1.
</event>
<event>
 7    1  0.2740409E-010  0.4778727E+02  0.7816164E-02  0.1312668E+00
        -11   -1    0    0    0    0  0.00000000000E+00  0.00000000000E+00  0.45593999997E+02  0.45594000000E+02  0.51100000000E-03 0.  1.
         11   -1    0    0    0    0 -0.00000000000E+00 -0.00000000000E+00 -0.45593999997E+02  0.45594000000E+02  0.51100000000E-03 0. -1.
    9900012    2    1    2    0    0  0.41789882082E+02 -0.32795250363E+01 -0.11246061852E+02  0.47787269176E+02  0.19999991482E+02 0.  0.
        -12    1    1    2    0    0 -0.41789882082E+02  0.32795250363E+01  0.11246061852E+02  0.43400730824E+02  0.00000000000E+00 0.  1.
         11    1    3    3    0    0  0.25327918416E+02 -0.50929180877E+01 -0.14907986511E+02  0.29827660451E+02  0.51100000000E-03 0. -1.
        -11    1    3    3    0    0  0.14679777780E+02  0.24255502457E+00  0.15188119030E+01  0.14760132061E+02  0.51100000000E-03 0.  1.
         12    1    3    3    0    0  0.17821858859E+01  0.15708380269E+01  0.21431127557E+01  0.31994766638E+01  0.00000000000E+00 0. -1.
</event>
<event>
 7    1  0.2740409E-010  0.4778727E+02  0.7816164E-02  0.1312668E+00
        -11   -1    0    0    0    0  0.00000000000E+00  0.00000000000E+00  0.45593999997E+02  0.45594000000E+02  0.51100000000E-03 0.  1.
         11   -1    0    0    0    0 -0.00000000000E+00 -0.00000000000E+00 -0.45593999997E+02  0.45594000000E+02  0.51100000000E-03 0. -1.
    9900012    2    1    2    0    0 -0.29660561693E+02 -0.14433882369E+01 -0.31651082719E+02  0.47787270434E+02  0.19999997217E+02 0.  0.
        -12    1    1    2    0    0  0.29660561693E+02  0.14433882369E+01  0.31651082719E+02  0.43400729566E+02  0.00000000000E+00 0.  1.
         11    1    3    3    0    0 -0.13400089559E+02 -0.35659888386E+01 -0.22528979888E+02  0.26454368479E+02  0.51100000000E-03 0. -1.
        -11    1    3    3    0    0 -0.91613967794E+01  0.35607443557E+01 -0.10017773458E+02  0.14034453200E+02  0.51100000000E-03 0.  1.
         12    1    3    3    0    0 -0.70990753548E+01 -0.14381437540E+01  0.89567062661E+00  0.72984487545E+01  0.00000000000E+00 0. -1.
</event>
<event>
 7    1  0.2740409E-010  0.4778727E+02  0.7816164E-02  0.1312668E+00
        -11   -1    0    0    0    0  0.00000000000E+00  0.00000000000E+00  0.45593999997E+02  0.45594000000E+02  0.51100000000E-03 0.  1.
         11   -1    0    0    0    0 -0.00000000000E+00 -0.00000000000E+00 -0.45593999997E+02  0.45594000000E+02  0.51100000000E-03 0. -1.
    9900012    2    1    2    0    0  0.30628171801E+02  0.19173522131E+02 -0.24039853866E+02  0.47787269215E+02  0.19999991658E+02 0.  0.
        -12    1    1    2    0    0 -0.30628171801E+02 -0.19173522131E+02  0.24039853866E+02  0.43400730785E+02  0.00000000000E+00 0.  1.
         11    1    3    3    0    0  0.18014197706E+02  0.14430580129E+02 -0.24521582261E+02  0.33675821574E+02  0.51100000000E-03 0. -1.
        -11    1    3    3    0    0  0.30077247864E+01  0.61961834464E+00  0.18241460867E+01  0.35718124937E+01  0.51100000000E-03 0.  1.
         12    1    3    3    0    0  0.96062493092E+01  0.41233236572E+01 -0.13424176917E+01  0.10539635147E+02  0.00000000000E+00 0. -1.
</event>
<event>
 7    1  0.2740409E-010  0.4778726E+02  0.7816164E-02  0.1312668E+00
        -11   -1    0    0    0    0  0.00000000000E+00  0.00000000000E+00  0.45593999997E+02  0.45594000000E+02  0.51100000000E-03 0.  1.
         11   -1    0    0    0    0 -0.00000000000E+00 -0.00000000000E+00 -0.45593999997E+02  0.45594000000E+02  0.51100000000E-03 0. -1.
    9900012    2    1    2    0    0  0.21497906294E+02  0.36160916222E+02  0.10670163523E+02  0.47787260068E+02  0.19999949955E+02 0.  0.
        -12    1    1    2    0    0 -0.21497906294E+02 -0.36160916222E+02 -0.10670163523E+02  0.43400739932E+02  0.00000000000E+00 0.  1.
         11    1    3    3    0    0  0.18919994414E+01 -0.12310641265E+01  0.10131427692E+01  0.24741946774E+01  0.51100000000E-03 0. -1.
        -11    1    3    3    0    0  0.13513570209E+02  0.30652549658E+02  0.22206568123E+01  0.33572707625E+02  0.51100000000E-03 0.  1.
        -12    1    3    3    0    0  0.60923366437E+01  0.67394306901E+01  0.74363639412E+01  0.11740357766E+02  0.00000000000E+00 0.  1.
</event>
<event>
 7    1  0.2740409E-010  0.4778727E+02  0.7816164E-02  0.1312668E+00
        -11   -1    0    0    0    0  0.00000000000E+00  0.00000000000E+00  0.45593999997E+02  0.45594000000E+02  0.51100000000E-03 0.  1.
         11   -1    0    0    0    0 -0.00000000000E+00 -0.00000000000E+00 -0.45593999997E+02  0.45594000000E+02  0.51100000000E-03 0. -1.
    9900012    2    1    2    0    0 -0.23134450378E+02  0.11944393389E+02 -0.34723937697E+02  0.47787272161E+02  0.20000005092E+02 0.  0.
        -12    1    1    2    0    0  0.23134450378E+02 -0.11944393389E+02  0.34723937697E+02  0.43400727839E+02  0.00000000000E+00 0.  1.
         11    1    3    3    0    0 -0.16903466323E+02  0.12561396348E+02 -0.13108771659E+02  0.24806365042E+02  0.51100000000E-03 0. -1.
        -11    1    3    3    0    0 -0.43306313665E+01 -0.43890515043E+00 -0.20036802369E+02  0.20504157023E+02  0.51100000000E-03 0.  1.
         12    1    3    3    0    0 -0.19003526885E+01 -0.17809780776E+00 -0.15783636686E+01  0.24767500964E+01  0.00000000000E+00 0. -1.
</event>
<event>
 7    1  0.2740409E-010  0.4778727E+02  0.7816164E-02  0.1312668E+00
        -11   -1    0    0    0    0  0.00000000000E+00  0.00000000000E+00  0.45593999997E+02  0.45594000000E+02  0.51100000000E-03 0.  1.
         11   -1    0    0    0    0 -0.00000000000E+00 -0.00000000000E+00 -0.45593999997E+02  0.45594000000E+02  0.51100000000E-03 0. -1.
    9900012    2    1    2    0    0 -0.30386162125E+01 -0.43170339495E+02 -0.32728866161E+01  0.47787272040E+02  0.20000004540E+02 0.  0.
        -12    1    1    2    0    0  0.30386162125E+01  0.43170339495E+02  0.32728866161E+01  0.43400727960E+02  0.00000000000E+00 0.  1.
         11    1    3    3    0    0 -0.46491216536E+01 -0.15141900533E+02  0.63733242564E+01  0.17073685783E+02  0.51100000000E-03 0. -1.
        -11    1    3    3    0    0  0.38812268806E+01 -0.14608535106E+02 -0.77028854981E+01  0.16964895087E+02  0.51100000000E-03 0.  1.
         12    1    3    3    0    0 -0.22707214395E+01 -0.13419903857E+02 -0.19433253744E+01  0.13748691170E+02  0.00000000000E+00 0. -1.
</event>
<event>
 7    1  0.2740409E-010  0.4778727E+02  0.7816164E-02  0.1312668E+00
        -11   -1    0    0    0    0  0.00000000000E+00  0.00000000000E+00  0.45593999997E+02  0.45594000000E+02  0.51100000000E-03 0.  1.
         11   -1    0    0    0    0 -0.00000000000E+00 -0.00000000000E+00 -0.45593999997E+02  0.45594000000E+02  0.51100000000E-03 0. -1.
    9900012    2    1    2    0    0  0.16289874444E+02 -0.20830137203E+02 -0.34414653163E+02  0.47787274457E+02  0.20000015561E+02 0.  0.
        -12    1    1    2    0    0 -0.16289874444E+02  0.20830137203E+02  0.34414653163E+02  0.43400725543E+02  0.00000000000E+00 0.  1.
         11    1    3    3    0    0  0.21736379834E+01  0.33157397574E+01 -0.16272149443E+01  0.42856342539E+01  0.51100000000E-03 0. -1.
        -11    1    3    3    0    0  0.33677074229E+01 -0.11519227123E+02 -0.13314650484E+02  0.17925232622E+02  0.51100000000E-03 0.  1.
         12    1    3    3    0    0  0.10748529038E+02 -0.12626649838E+02 -0.19472787735E+02  0.25576407581E+02  0.00000000000E+00 0. -1.
</event>
<event>
 7    1  0.2740409E-010  0.4778726E+02  0.7816164E-02  0.1312668E+00
        -11   -1    0    0    0    0  0.00000000000E+00  0.00000000000E+00  0.45593999997E+02  0.45594000000E+02  0.51100000000E-03 0.  1.
         11   -1    0    0    0    0 -0.00000000000E+00 -0.00000000000E+00 -0.45593999997E+02  0.45594000000E+02  0.51100000000E-03 0. -1.
    9900012    2    1    2    0    0 -0.68260939208E+01  0.30061740050E+02 -0.30550290318E+02  0.47787262546E+02  0.19999961251E+02 0.  0.
        -12    1    1    2    0    0  0.68260939208E+01 -0.30061740050E+02  0.30550290318E+02  0.43400737454E+02  0.00000000000E+00 0.  1.
         11    1    3    3    0    0 -0.49728132680E+01  0.62185944631E-01 -0.21846256743E+01  0.54318807505E+01  0.51100000000E-03 0. -1.
        -11    1    3    3    0    0  0.88243512813E+00 -0.27903765790E+00 -0.16082997917E+01  0.18555813782E+01  0.51100000000E-03 0.  1.
         12    1    3    3    0    0 -0.27357157810E+01  0.30278591764E+02 -0.26757364851E+02  0.40499800417E+02  0.00000000000E+00 0. -1.
</event>
<event>
 7    1  0.2740409E-010  0.4778727E+02  0.7816164E-02  0.1312668E+00
        -11   -1    0    0    0    0  0.00000000000E+00  0.00000000000E+00  0.45593999997E+02  0.45594000000E+02  0.51100000000E-03 0.  1.
         11   -1    0    0    0    0 -0.00000000000E+00 -0.00000000000E+00 -0.45593999997E+02  0.45594000000E+02  0.51100000000E-03 0. -1.
    9900012    2    1    2    0    0 -0.33766291785E+02  0.27182341523E+02 -0.21402873284E+01  0.47787274413E+02  0.20000015360E+02 0.  0.
        -12    1    1    2    0    0  0.33766291785E+02 -0.27182341523E+02  0.21402873284E+01  0.43400725587E+02  0.00000000000E+00 0.  1.
         11    1    3    3    0    0 -0.17799042435E+02  0.24396787591E+02 -0.35550588844E+01  0.30408018684E+02  0.51100000000E-03 0. -1.
        -11    1    3    3    0    0 -0.79226589607E+01 -0.13061874519E+01  0.21834520656E+01  0.83211846422E+01  0.51100000000E-03 0.  1.
        -12    1    3    3    0    0 -0.80445903895E+01  0.40917413845E+01 -0.76868050954E+00  0.90580710871E+01  0.00000000000E+00 0.  1.
</event>
<event>
 7    1  0.2740409E-010  0.4778728E+02  0.7816164E-02  0.1312668E+00
        -11   -1    0    0    0    0  0.00000000000E+00  0.00000000000E+00  0.45593999997E+02  0.45594000000E+02  0.51100000000E-03 0. -1.
         11   -1    0    0    0    0 -0.00000000000E+00 -0.00000000000E+00 -0.45593999997E+02  0.45594000000E+02  0.51100000000E-03 0.  1.
    9900012    2    1    2    0    0 -0.32726529446E+02 -0.23859441220E+02  0.15598850703E+02  0.47787276410E+02  0.20000024464E+02 0.  0.
        -12    1    1    2    0    0  0.32726529446E+02  0.23859441220E+02 -0.15598850703E+02  0.43400723590E+02  0.00000000000E+00 0.  1.
         11    1    3    3    0    0 -0.10323628954E+02 -0.13427998102E+02  0.46344608129E+01  0.17560372293E+02  0.51100000000E-03 0. -1.
        -11    1    3    3    0    0 -0.13404536920E+02 -0.13023905253E+01  0.11030589445E+02  0.17408381168E+02  0.51100000000E-03 0.  1.
        -12    1    3    3    0    0 -0.89983635723E+01 -0.91290525927E+01 -0.66199554489E-01  0.12818522949E+02  0.00000000000E+00 0.  1.
</event>
<event>
 7    1  0.2740409E-010  0.4778727E+02  0.7816164E-02  0.1312668E+00
        -11   -1    0    0    0    0  0.00000000000E+00  0.00000000000E+00  0.45593999997E+02  0.45594000000E+02  0.51100000000E-03 0.  1.
         11   -1    0    0    0    0 -0.00000000000E+00 -0.00000000000E+00 -0.45593999997E+02  0.45594000000E+02  0.51100000000E-03 0. -1.
    9900012    2    1    2    0    0 -0.14755484576E+02  0.24585202163E+02 -0.32580160218E+02  0.47787270394E+02  0.19999997035E+02 0.  0.
        -12    1    1    2    0    0  0.14755484576E+02 -0.24585202163E+02  0.32580160218E+02  0.43400729606E+02  0.00000000000E+00 0.  1.
         11    1    3    3    0    0 -0.11870806495E+02  0.21395580706E+02 -0.26498568768E+02  0.36067451637E+02  0.51100000000E-03 0. -1.
        -11    1    3    3    0    0  0.13870214408E+01  0.85868392862E+00 -0.66253734907E+01  0.68232500115E+01  0.51100000000E-03 0.  1.
         12    1    3    3    0    0 -0.42716995223E+01  0.23309375281E+01  0.54378204052E+00  0.48965687452E+01  0.00000000000E+00 0. -1.
</event>
<event>
 7    1  0.2740409E-010  0.4778726E+02  0.7816164E-02  0.1312668E+00
        -11   -1    0    0    0    0  0.00000000000E+00  0.00000000000E+00  0.45593999997E+02  0.45594000000E+02  0.51100000000E-03 0.  1.
         11   -1    0    0    0    0 -0.00000000000E+00 -0.00000000000E+00 -0.45593999997E+02  0.45594000000E+02  0.51100000000E-03 0. -1.
    9900012    2    1    2    0    0 -0.21697061841E+02 -0.20056308560E+02 -0.31790027445E+02  0.47787264401E+02  0.19999969709E+02 0.  0.
        -12    1    1    2    0    0  0.21697061841E+02  0.20056308560E+02  0.31790027445E+02  0.43400735599E+02  0.00000000000E+00 0.  1.
         11    1    3    3    0    0 -0.51438275781E+00 -0.47818915524E+01 -0.17221964168E+02  0.17880915147E+02  0.51100000000E-03 0. -1.
        -11    1    3    3    0    0 -0.85704600098E+01 -0.62618453138E+01 -0.61234180134E+01  0.12253968334E+02  0.51100000000E-03 0.  1.
         12    1    3    3    0    0 -0.12612219073E+02 -0.90125716938E+01 -0.84446452643E+01  0.17652380920E+02  0.00000000000E+00 0. -1.
</event>
<event>
 7    1  0.2740409E-010  0.4778727E+02  0.7816164E-02  0.1312668E+00
        -11   -1    0    0    0    0  0.00000000000E+00  0.00000000000E+00  0.45593999997E+02  0.45594000000E+02  0.51100000000E-03 0.  1.
         11   -1    0    0    0    0 -0.00000000000E+00 -0.00000000000E+00 -0.45593999997E+02  0.45594000000E+02  0.51100000000E-03 0. -1.
    9900012    2    1    2    0    0  0.31207659395E+01 -0.19000268032E+02 -0.38895677916E+02  0.47787272750E+02  0.20000007776E+02 0.  0.
        -12    1    1    2    0    0 -0.31207659395E+01  0.19000268032E+02  0.38895677916E+02  0.43400727250E+02  0.00000000000E+00 0.  1.
         11    1    3    3    0    0  0.26734325496E+01 -0.98041813797E+01 -0.97395051431E+01  0.14075765514E+02  0.51100000000E-03 0. -1.
        -11    1    3    3    0    0  0.33773343081E+01 -0.44552728876E+01 -0.27255757897E+02  0.27823230983E+02  0.51100000000E-03 0.  1.
        -12    1    3    3    0    0 -0.29300009182E+01 -0.47408137643E+01 -0.19004148759E+01  0.58882762528E+01  0.00000000000E+00 0.  1.
</event>
<event>
 7    1  0.2740409E-010  0.4778727E+02  0.7816164E-02  0.1312668E+00
        -11   -1    0    0    0    0  0.00000000000E+00  0.00000000000E+00  0.45593999997E+02  0.45594000000E+02  0.51100000000E-03 0.  1.
         11   -1    0    0    0    0 -0.00000000000E+00 -0.00000000000E+00 -0.45593999997E+02  0.45594000000E+02  0.51100000000E-03 0. -1.
    9900012    2    1    2    0    0  0.12044175141E+02  0.15348359842E+02 -0.38768404133E+02  0.47787268858E+02  0.19999990031E+02 0.  0.
        -12    1    1    2    0    0 -0.12044175141E+02 -0.15348359842E+02  0.38768404133E+02  0.43400731142E+02  0.00000000000E+00 0.  1.
         11    1    3    3    0    0  0.74010688143E+01  0.12043314920E+02 -0.14362128022E+02  0.20151624635E+02  0.51100000000E-03 0. -1.
        -11    1    3    3    0    0  0.11679252715E+01  0.72032624130E+01 -0.10549515515E+02  0.12827443888E+02  0.51100000000E-03 0.  1.
         12    1    3    3    0    0  0.34751810549E+01 -0.38982174904E+01 -0.13856760595E+02  0.14808200335E+02  0.00000000000E+00 0. -1.
</event>
<event>
 7    1  0.2740409E-010  0.4778727E+02  0.7816164E-02  0.1312668E+00
        -11   -1    0    0    0    0  0.00000000000E+00  0.00000000000E+00  0.45593999997E+02  0.45594000000E+02  0.51100000000E-03 0. -1.
         11   -1    0    0    0    0 -0.00000000000E+00 -0.00000000000E+00 -0.45593999997E+02  0.45594000000E+02  0.51100000000E-03 0.  1.
    9900012    2    1    2    0    0  0.34366293809E+02  0.20121026002E+02  0.17254724181E+02  0.47787270235E+02  0.19999996311E+02 0.  0.
        -12    1    1    2    0    0 -0.34366293809E+02 -0.20121026002E+02 -0.17254724181E+02  0.43400729765E+02  0.00000000000E+00 0.  1.
         11    1    3    3    0    0  0.10163794516E+02 -0.21828474880E+01  0.22132491557E+01  0.10628547135E+02  0.51100000000E-03 0. -1.
        -11    1    3    3    0    0  0.17613988338E+02  0.15497529674E+02  0.14687248961E+02  0.27679257458E+02  0.51100000000E-03 0.  1.
        -12    1    3    3    0    0  0.65885109553E+01  0.68063438159E+01  0.35422606453E+00  0.94794656418E+01  0.00000000000E+00 0.  1.
</event>
<event>
 7    1  0.2740409E-010  0.4778729E+02  0.7816164E-02  0.1312668E+00
        -11   -1    0    0    0    0  0.00000000000E+00  0.00000000000E+00  0.45593999997E+02  0.45594000000E+02  0.51100000000E-03 0. -1.
         11   -1    0    0    0    0 -0.00000000000E+00 -0.00000000000E+00 -0.45593999997E+02  0.45594000000E+02  0.51100000000E-03 0.  1.
    9900012    2    1    2    0    0 -0.92798075988E+01 -0.37714766735E+02  0.19367575439E+02  0.47787292202E+02  0.20000096466E+02 0.  0.
        -12    1    1    2    0    0  0.92798075988E+01  0.37714766735E+02 -0.19367575439E+02  0.43400707798E+02  0.00000000000E+00 0.  1.
         11    1    3    3    0    0 -0.24640799556E+01  0.13834573393E+01  0.33539516443E+01  0.43857309688E+01  0.51100000000E-03 0. -1.
        -11    1    3    3    0    0 -0.19984972717E+01 -0.29744568944E+02  0.11494870940E+02  0.31950984823E+02  0.51100000000E-03 0.  1.
         12    1    3    3    0    0 -0.48172303715E+01 -0.93536551308E+01  0.45187528554E+01  0.11450576410E+02  0.00000000000E+00 0. -1.
</event>
<event>
 7    1  0.2740409E-010  0.4778727E+02  0.7816164E-02  0.1312668E+00
        -11   -1    0    0    0    0  0.00000000000E+00  0.00000000000E+00  0.45593999997E+02  0.45594000000E+02  0.51100000000E-03 0. -1.
         11   -1    0    0    0    0 -0.00000000000E+00 -0.00000000000E+00 -0.45593999997E+02  0.45594000000E+02  0.51100000000E-03 0.  1.
    9900012    2    1    2    0    0 -0.51726949863E+01 -0.38467072643E+02 -0.19420364570E+02  0.47787274071E+02  0.20000013798E+02 0.  0.
        -12    1    1    2    0    0  0.51726949863E+01  0.38467072643E+02  0.19420364570E+02  0.43400725929E+02  0.00000000000E+00 0.  1.
         11    1    3    3    0    0 -0.81689743285E+01 -0.14100101139E+02 -0.39313525461E+01  0.16763070327E+02  0.51100000000E-03 0. -1.
        -11    1    3    3    0    0  0.49916802262E+01 -0.21944046577E+02 -0.16293724802E+02  0.27783871577E+02  0.51100000000E-03 0.  1.
         12    1    3    3    0    0 -0.19954008840E+01 -0.24229249275E+01  0.80471277715E+00  0.32403321660E+01  0.00000000000E+00 0. -1.
</event>
<event>
 7    1  0.2740409E-010  0.4778727E+02  0.7816164E-02  0.1312668E+00
        -11   -1    0    0    0    0  0.00000000000E+00  0.00000000000E+00  0.45593999997E+02  0.45594000000E+02  0.51100000000E-03 0. -1.
         11   -1    0    0    0    0 -0.00000000000E+00 -0.00000000000E+00 -0.45593999997E+02  0.45594000000E+02  0.51100000000E-03 0.  1.
    9900012    2    1    2    0    0 -0.45979850688E+01  0.36323625194E+02  0.23303985630E+02  0.47787274658E+02  0.20000016477E+02 0.  0.
        -12    1    1    2    0    0  0.45979850688E+01 -0.36323625194E+02 -0.23303985630E+02  0.43400725342E+02  0.00000000000E+00 0.  1.
         11    1    3    3    0    0 -0.61580291032E+01  0.94301230765E+01  0.56554850752E+01  0.12602898689E+02  0.51100000000E-03 0. -1.
        -11    1    3    3    0    0  0.26117452820E+01  0.26578856744E+02  0.11737570905E+02  0.29172374094E+02  0.51100000000E-03 0.  1.
        -12    1    3    3    0    0 -0.10517012475E+01  0.31464537326E+00  0.59109296498E+01  0.60120018754E+01  0.00000000000E+00 0.  1.
</event>
<event>
 7    1  0.2740409E-010  0.4778727E+02  0.7816164E-02  0.1312668E+00
        -11   -1    0    0    0    0  0.00000000000E+00  0.00000000000E+00  0.45593999997E+02  0.45594000000E+02  0.51100000000E-03 0. -1.
         11   -1    0    0    0    0 -0.00000000000E+00 -0.00000000000E+00 -0.45593999997E+02  0.45594000000E+02  0.51100000000E-03 0.  1.
    9900012    2    1    2    0    0 -0.71712518199E+01  0.30819316742E+02  0.29704649792E+02  0.47787270094E+02  0.19999995666E+02 0.  0.
        -12    1    1    2    0    0  0.71712518199E+01 -0.30819316742E+02 -0.29704649792E+02  0.43400729906E+02  0.00000000000E+00 0.  1.
         11    1    3    3    0    0 -0.24050035297E+01  0.10579395650E+02  0.35070858929E+01  0.11402074636E+02  0.51100000000E-03 0. -1.
        -11    1    3    3    0    0 -0.62805609152E+01  0.20496732528E+02  0.27138394853E+02  0.34584013145E+02  0.51100000000E-03 0.  1.
        -12    1    3    3    0    0  0.15143126249E+01 -0.25681143552E+00 -0.94083095425E+00  0.18011823128E+01  0.00000000000E+00 0.  1.
</event>
<event>
 7    1  0.2740409E-010  0.4778727E+02  0.7816164E-02  0.1312668E+00
        -11   -1    0    0    0    0  0.00000000000E+00  0.00000000000E+00  0.45593999997E+02  0.45594000000E+02  0.51100000000E-03 0.  1.
         11   -1    0    0    0    0 -0.00000000000E+00 -0.00000000000E+00 -0.45593999997E+02  0.45594000000E+02  0.51100000000E-03 0. -1.
    9900012    2    1    2    0    0  0.10683468658E+02 -0.14610500093E+02 -0.39446420945E+02  0.47787270272E+02  0.19999996480E+02 0.  0.
        -12    1    1    2    0    0 -0.10683468658E+02  0.14610500093E+02  0.39446420945E+02  0.43400729728E+02  0.00000000000E+00 0.  1.
         11    1    3    3    0    0  0.18051390347E+01  0.31093666523E+00 -0.44686912809E+01  0.48295352333E+01  0.51100000000E-03 0. -1.
        -11    1    3    3    0    0  0.51331517339E+01  0.16002858611E+01 -0.17394027918E+01  0.56511665959E+01  0.51100000000E-03 0.  1.
        -12    1    3    3    0    0  0.37451778892E+01 -0.16521722620E+02 -0.33238326872E+02  0.37306568443E+02  0.00000000000E+00 0.  1.
</event>
<event>
 7    1  0.2740409E-010  0.4778727E+02  0.7816164E-02  0.1312668E+00
        -11   -1    0    0    0    0  0.00000000000E+00  0.00000000000E+00  0.45593999997E+02  0.45594000000E+02  0.51100000000E-03 0. -1.
         11   -1    0    0    0    0 -0.00000000000E+00 -0.00000000000E+00 -0.45593999997E+02  0.45594000000E+02  0.51100000000E-03 0.  1.
    9900012    2    1    2    0    0 -0.23942378932E+02  0.35389866236E+01  0.36025840654E+02  0.47787272701E+02  0.20000007551E+02 0.  0.
        -12    1    1    2    0    0  0.23942378932E+02 -0.35389866236E+01 -0.36025840654E+02  0.43400727299E+02  0.00000000000E+00 0.  1.
         11    1    3    3    0    0 -0.15440397218E+02  0.88000076542E+01  0.13840819638E+02  0.22525858241E+02  0.51100000000E-03 0. -1.
        -11    1    3    3    0    0 -0.61848576001E-01 -0.25259675141E+01  0.91573230571E+01  0.94995211965E+01  0.51100000000E-03 0.  1.
         12    1    3    3    0    0 -0.84401331382E+01 -0.27350535165E+01  0.13027697959E+02  0.15761893263E+02  0.00000000000E+00 0. -1.
</event>
<event>
 7    1  0.2740409E-010  0.4778727E+02  0.7816164E-02  0.1312668E+00
        -11   -1    0    0    0    0  0.00000000000E+00  0.00000000000E+00  0.45593999997E+02  0.45594000000E+02  0.51100000000E-03 0.  1.
         11   -1    0    0    0    0 -0.00000000000E+00 -0.00000000000E+00 -0.45593999997E+02  0.45594000000E+02  0.51100000000E-03 0. -1.
    9900012    2    1    2    0    0  0.16034829066E+02  0.46394550768E+01 -0.40062239041E+02  0.47787270933E+02  0.19999999490E+02 0.  0.
        -12    1    1    2    0    0 -0.16034829066E+02 -0.46394550768E+01  0.40062239041E+02  0.43400729067E+02  0.00000000000E+00 0.  1.
         11    1    3    3    0    0  0.96437744716E+01  0.59473268143E+01 -0.77182960504E+01  0.13709309847E+02  0.51100000000E-03 0. -1.
        -11    1    3    3    0    0 -0.30836316707E+00  0.13179506406E+01 -0.51891325947E+00  0.14496044171E+01  0.51100000000E-03 0.  1.
         12    1    3    3    0    0  0.66994177616E+01 -0.26258223782E+01 -0.31825029731E+02  0.32628356669E+02  0.00000000000E+00 0. -1.
</event>
<event>
 7    1  0.2740409E-010  0.4778727E+02  0.7816164E-02  0.1312668E+00
        -11   -1    0    0    0    0  0.00000000000E+00  0.00000000000E+00  0.45593999997E+02  0.45594000000E+02  0.51100000000E-03 0. -1.
         11   -1    0    0    0    0 -0.00000000000E+00 -0.00000000000E+00 -0.45593999997E+02  0.45594000000E+02  0.51100000000E-03 0.  1.
    9900012    2    1    2    0    0 -0.91072323481E+00 -0.27182368348E+02  0.33821776084E+02  0.47787273010E+02  0.20000008962E+02 0.  0.
        -12    1    1    2    0    0  0.91072323481E+00  0.27182368348E+02 -0.33821776084E+02  0.43400726990E+02  0.00000000000E+00 0.  1.
         11    1    3    3    0    0  0.31476725885E+01 -0.23046169903E+02  0.23794823439E+02  0.33275026862E+02  0.51100000000E-03 0. -1.
        -11    1    3    3    0    0 -0.59933004555E+01 -0.88425440739E-01  0.54074065014E+01  0.80726398867E+01  0.51100000000E-03 0.  1.
        -12    1    3    3    0    0  0.19349046322E+01 -0.40477730043E+01  0.46195461429E+01  0.64396062610E+01  0.00000000000E+00 0.  1.
</event>
<event>
 7    1  0.2740409E-010  0.4778728E+02  0.7816164E-02  0.1312668E+00
        -11   -1    0    0    0    0  0.00000000000E+00  0.00000000000E+00  0.45593999997E+02  0.45594000000E+02  0.51100000000E-03 0. -1.
         11   -1    0    0    0    0 -0.00000000000E+00 -0.00000000000E+00 -0.45593999997E+02  0.45594000000E+02  0.51100000000E-03 0.  1.
    9900012    2    1    2    0    0 -0.13714555189E+02  0.40421408576E+02  0.78513002067E+01  0.47787283298E+02  0.20000055867E+02 0.  0.
        -12    1    1    2    0    0  0.13714555189E+02 -0.40421408576E+02 -0.78513002067E+01  0.43400716702E+02  0.00000000000E+00 0.  1.
         11    1    3    3    0    0  0.15870741437E+01  0.57726443101E+01  0.52364357100E+01  0.79537718017E+01  0.51100000000E-03 0. -1.
        -11    1    3    3    0    0 -0.16254331718E+02  0.29761330158E+02  0.50598922964E+01  0.34286186470E+02  0.51100000000E-03 0.  1.
        -12    1    3    3    0    0  0.95270238476E+00  0.48874341087E+01 -0.24450277997E+01  0.55473250258E+01  0.00000000000E+00 0.  1.
</event>
<event>
 7    1  0.2740409E-010  0.4778727E+02  0.7816164E-02  0.1312668E+00
        -11   -1    0    0    0    0  0.00000000000E+00  0.00000000000E+00  0.45593999997E+02  0.45594000000E+02  0.51100000000E-03 0.  1.
         11   -1    0    0    0    0 -0.00000000000E+00 -0.00000000000E+00 -0.45593999997E+02  0.45594000000E+02  0.51100000000E-03 0. -1.
    9900012    2    1    2    0    0 -0.49700751989E+01  0.31991607803E+02 -0.28904300089E+02  0.47787272115E+02  0.20000004882E+02 0.  0.
        -12    1    1    2    0    0  0.49700751989E+01 -0.31991607803E+02  0.28904300089E+02  0.43400727885E+02  0.00000000000E+00 0.  1.
         11    1    3    3    0    0 -0.23978774431E+01  0.22398600136E+02 -0.24286174001E+02  0.33124995881E+02  0.51100000000E-03 0. -1.
        -11    1    3    3    0    0 -0.22884407699E+00  0.50413678822E+01  0.27060264031E+01  0.57262849118E+01  0.51100000000E-03 0.  1.
        -12    1    3    3    0    0 -0.23433536788E+01  0.45516397850E+01 -0.73241524915E+01  0.89359913224E+01  0.00000000000E+00 0.  1.
</event>
<event>
 7    1  0.2740409E-010  0.4778727E+02  0.7816164E-02  0.1312668E+00
        -11   -1    0    0    0    0  0.00000000000E+00  0.00000000000E+00  0.45593999997E+02  0.45594000000E+02  0.51100000000E-03 0. -1.
         11   -1    0    0    0    0 -0.00000000000E+00 -0.00000000000E+00 -0.45593999997E+02  0.45594000000E+02  0.51100000000E-03 0.  1.
    9900012    2    1    2    0    0 -0.15700263573E+02  0.37212210413E+02 -0.15886359990E+02  0.47787270584E+02  0.19999997900E+02 0.  0.
        -12    1    1    2    0    0  0.15700263573E+02 -0.37212210413E+02  0.15886359990E+02  0.43400729416E+02  0.00000000000E+00 0.  1.
         11    1    3    3    0    0 -0.11962015221E+02  0.18225482438E+02 -0.15088918334E+01  0.21852569026E+02  0.51100000000E-03 0. -1.
        -11    1    3    3    0    0  0.14843107691E+01  0.11578213244E+02 -0.11594837825E+02  0.16452916606E+02  0.51100000000E-03 0.  1.
        -12    1    3    3    0    0 -0.52225591215E+01  0.74085147312E+01 -0.27826303315E+01  0.94817849512E+01  0.00000000000E+00 0.  1.
</event>
<event>
 7    1  0.2740409E-010  0.4778727E+02  0.7816164E-02  0.1312668E+00
        -11   -1    0    0    0    0  0.00000000000E+00  0.00000000000E+00  0.45593999997E+02  0.45594000000E+02  0.51100000000E-03 0. -1.
         11   -1    0    0    0    0 -0.00000000000E+00 -0.00000000000E+00 -0.45593999997E+02  0.45594000000E+02  0.51100000000E-03 0.  1.
    9900012    2    1    2    0    0 -0.27144550659E+02 -0.10294596375E+02  0.32261711340E+02  0.47787270011E+02  0.19999995287E+02 0.  0.
        -12    1    1    2    0    0  0.27144550659E+02  0.10294596375E+02 -0.32261711340E+02  0.43400729989E+02  0.00000000000E+00 0.  1.
         11    1    3    3    0    0 -0.18833604500E+02 -0.98429456596E+00  0.19637863821E+02  0.27227177415E+02  0.51100000000E-03 0. -1.
        -11    1    3    3    0    0 -0.43878433490E+01  0.14194090393E+01  0.22621146206E+01  0.51366384040E+01  0.51100000000E-03 0.  1.
         12    1    3    3    0    0 -0.39231028100E+01 -0.10729710848E+02  0.10361732899E+02  0.15423454192E+02  0.00000000000E+00 0. -1.
</event>
<event>
 7    1  0.2740409E-010  0.4778726E+02  0.7816164E-02  0.1312668E+00
        -11   -1    0    0    0    0  0.00000000000E+00  0.00000000000E+00  0.45593999997E+02  0.45594000000E+02  0.51100000000E-03 0.  1.
         11   -1    0    0    0    0 -0.00000000000E+00 -0.00000000000E+00 -0.45593999997E+02  0.45594000000E+02  0.51100000000E-03 0. -1.
    9900012    2    1    2    0    0 -0.20805015606E+02  0.81237026974E+01 -0.37212641327E+02  0.47787263896E+02  0.19999967406E+02 0.  0.
        -12    1    1    2    0    0  0.20805015606E+02 -0.81237026974E+01  0.37212641327E+02  0.43400736104E+02  0.00000000000E+00 0.  1.
         11    1    3    3    0    0 -0.19414175809E+02  0.48461074985E+01 -0.31763942743E+02  0.37541217868E+02  0.51100000000E-03 0. -1.
        -11    1    3    3    0    0  0.20789630092E+01  0.25938616710E+01 -0.58072759690E+01  0.66913870015E+01  0.51100000000E-03 0.  1.
        -12    1    3    3    0    0 -0.34698028058E+01  0.68373352789E+00  0.35857738457E+00  0.35546590257E+01  0.00000000000E+00 0.  1.
</event>
<event>
 7    1  0.2740409E-010  0.4778727E+02  0.7816164E-02  0.1312668E+00
        -11   -1    0    0    0    0  0.00000000000E+00  0.00000000000E+00  0.45593999997E+02  0.45594000000E+02  0.51100000000E-03 0.  1.
         11   -1    0    0    0    0 -0.00000000000E+00 -0.00000000000E+00 -0.45593999997E+02  0.45594000000E+02  0.51100000000E-03 0. -1.
    9900012    2    1    2    0    0 -0.15344966536E+02  0.15151705590E+02 -0.37664054179E+02  0.47787272386E+02  0.20000006116E+02 0.  0.
        -12    1    1    2    0    0  0.15344966536E+02 -0.15151705590E+02  0.37664054179E+02  0.43400727614E+02  0.00000000000E+00 0.  1.
         11    1    3    3    0    0 -0.14153436724E+01  0.58555115545E+01 -0.23035553245E+02  0.23810227358E+02  0.51100000000E-03 0. -1.
        -11    1    3    3    0    0 -0.10579971318E+02  0.91199438063E+01 -0.15122721575E+02  0.20586546000E+02  0.51100000000E-03 0.  1.
         12    1    3    3    0    0 -0.33496515448E+01  0.17625022927E+00  0.49422064094E+00  0.33904990277E+01  0.00000000000E+00 0. -1.
</event>
<event>
 7    1  0.2740409E-010  0.4778727E+02  0.7816164E-02  0.1312668E+00
        -11   -1    0    0    0    0  0.00000000000E+00  0.00000000000E+00  0.45593999997E+02  0.45594000000E+02  0.51100000000E-03 0. -1.
         11   -1    0    0    0    0 -0.00000000000E+00 -0.00000000000E+00 -0.45593999997E+02  0.45594000000E+02  0.51100000000E-03 0.  1.
    9900012    2    1    2    0    0  0.31606909514E+02 -0.10038263474E+02  0.27997499304E+02  0.47787269247E+02  0.19999991805E+02 0.  0.
        -12    1    1    2    0    0 -0.31606909514E+02  0.10038263474E+02 -0.27997499304E+02  0.43400730753E+02  0.00000000000E+00 0.  1.
         11    1    3    3    0    0  0.72714734260E+01 -0.34346733885E+01  0.79928424929E+01  0.11338290808E+02  0.51100000000E-03 0. -1.
        -11    1    3    3    0    0  0.20225900337E+02  0.23713895041E+01  0.15533376119E+02  0.25612424847E+02  0.51100000000E-03 0.  1.
        -12    1    3    3    0    0  0.41095357513E+01 -0.89749795900E+01  0.44712806921E+01  0.10836553592E+02  0.00000000000E+00 0.  1.
</event>
<event>
 7    1  0.2740409E-010  0.4778727E+02  0.7816164E-02  0.1312668E+00
        -11   -1    0    0    0    0  0.00000000000E+00  0.00000000000E+00  0.45593999997E+02  0.45594000000E+02  0.51100000000E-03 0.  1.
         11   -1    0    0    0    0 -0.00000000000E+00 -0.00000000000E+00 -0.45593999997E+02  0.45594000000E+02  0.51100000000E-03 0. -1.
    9900012    2    1    2    0    0  0.15300461730E+02 -0.93287559646E+01 -0.39528392244E+02  0.47787267168E+02  0.19999982324E+02 0.  0.
        -12    1    1    2    0    0 -0.15300461730E+02  0.93287559646E+01  0.39528392244E+02  0.43400732832E+02  0.00000000000E+00 0.  1.
         11    1    3    3    0    0  0.12096196475E+02 -0.19230843770E+01 -0.27175697456E+02  0.29808300105E+02  0.51100000000E-03 0. -1.
        -11    1    3    3    0    0  0.44800592549E+01 -0.90782279932E+01 -0.72270931019E+01  0.12438489836E+02  0.51100000000E-03 0.  1.
        -12    1    3    3    0    0 -0.12757939995E+01  0.16725564056E+01 -0.51256016856E+01  0.55404772266E+01  0.00000000000E+00 0.  1.
</event>
<event>
 7    1  0.2740409E-010  0.4778727E+02  0.7816164E-02  0.1312668E+00
        -11   -1    0    0    0    0  0.00000000000E+00  0.00000000000E+00  0.45593999997E+02  0.45594000000E+02  0.51100000000E-03 0.  1.
         11   -1    0    0    0    0 -0.00000000000E+00 -0.00000000000E+00 -0.45593999997E+02  0.45594000000E+02  0.51100000000E-03 0. -1.
    9900012    2    1    2    0    0  0.21294681582E+01 -0.37626141306E+02 -0.21525848161E+02  0.47787270936E+02  0.19999999508E+02 0.  0.
        -12    1    1    2    0    0 -0.21294681582E+01  0.37626141306E+02  0.21525848161E+02  0.43400729064E+02  0.00000000000E+00 0.  1.
         11    1    3    3    0    0  0.99402577875E+01 -0.27835583257E+02 -0.12622459137E+02  0.32139615664E+02  0.51100000000E-03 0. -1.
        -11    1    3    3    0    0 -0.38060409041E+01 -0.30435070093E+01 -0.45878292681E+01  0.66930605804E+01  0.51100000000E-03 0.  1.
         12    1    3    3    0    0 -0.40047487252E+01 -0.67470510400E+01 -0.43155597557E+01  0.89545946917E+01  0.00000000000E+00 0. -1.
</event>
<event>
 7    1  0.2740409E-010  0.4778727E+02  0.7816164E-02  0.1312668E+00
        -11   -1    0    0    0    0  0.00000000000E+00  0.00000000000E+00  0.45593999997E+02  0.45594000000E+02  0.51100000000E-03 0.  1.
         11   -1    0    0    0    0 -0.00000000000E+00 -0.00000000000E+00 -0.45593999997E+02  0.45594000000E+02  0.51100000000E-03 0. -1.
    9900012    2    1    2    0    0  0.25183705086E+02 -0.57466421894E+01 -0.34876651777E+02  0.47787265703E+02  0.19999975646E+02 0.  0.
        -12    1    1    2    0    0 -0.25183705086E+02  0.57466421894E+01  0.34876651777E+02  0.43400734297E+02  0.00000000000E+00 0.  1.
         11    1    3    3    0    0  0.75678677901E+01  0.54232760593E+01 -0.51447875489E+01  0.10637358003E+02  0.51100000000E-03 0. -1.
        -11    1    3    3    0    0  0.75319984102E+01 -0.37117384388E+01 -0.18488080392E+02  0.20305593296E+02  0.51100000000E-03 0.  1.
         12    1    3    3    0    0  0.10083838886E+02 -0.74581798099E+01 -0.11243783837E+02  0.16844314403E+02  0.00000000000E+00 0. -1.
</event>
<event>
 7    1  0.2740409E-010  0.4778727E+02  0.7816164E-02  0.1312668E+00
        -11   -1    0    0    0    0  0.00000000000E+00  0.00000000000E+00  0.45593999997E+02  0.45594000000E+02  0.51100000000E-03 0. -1.
         11   -1    0    0    0    0 -0.00000000000E+00 -0.00000000000E+00 -0.45593999997E+02  0.45594000000E+02  0.51100000000E-03 0.  1.
    9900012    2    1    2    0    0  0.37139721523E+02  0.35418990339E+01  0.22174747433E+02  0.47787269738E+02  0.19999994043E+02 0.  0.
        -12    1    1    2    0    0 -0.37139721523E+02 -0.35418990339E+01 -0.22174747433E+02  0.43400730262E+02  0.00000000000E+00 0.  1.
         11    1    3    3    0    0  0.24072552296E+02  0.31137811156E+01  0.74619882921E+01  0.25394185878E+02  0.51100000000E-03 0. -1.
        -11    1    3    3    0    0  0.23780184180E+01  0.26308073943E+01  0.98050528127E+01  0.10426657185E+02  0.51100000000E-03 0.  1.
        -12    1    3    3    0    0  0.10689150809E+02 -0.22026894759E+01  0.49077063280E+01  0.11966426674E+02  0.00000000000E+00 0.  1.
</event>
<event>
 7    1  0.2740409E-010  0.4778727E+02  0.7816164E-02  0.1312668E+00
        -11   -1    0    0    0    0  0.00000000000E+00  0.00000000000E+00  0.45593999997E+02  0.45594000000E+02  0.51100000000E-03 0.  1.
         11   -1    0    0    0    0 -0.00000000000E+00 -0.00000000000E+00 -0.45593999997E+02  0.45594000000E+02  0.51100000000E-03 0. -1.
    9900012    2    1    2    0    0 -0.26330449238E+02 -0.29591109864E+02 -0.17739701170E+02  0.47787270310E+02  0.19999996650E+02 0.  0.
        -12    1    1    2    0    0  0.26330449238E+02  0.29591109864E+02  0.17739701170E+02  0.43400729690E+02  0.00000000000E+00 0.  1.
         11    1    3    3    0    0  0.12581739218E+01 -0.42644055535E+01  0.70089492153E+00  0.45010454668E+01  0.51100000000E-03 0. -1.
        -11    1    3    3    0    0 -0.24205613785E+02 -0.15588960732E+02 -0.14638054543E+02  0.32298607965E+02  0.51100000000E-03 0.  1.
         12    1    3    3    0    0 -0.33830093749E+01 -0.97377435780E+01 -0.38025415487E+01  0.10987616878E+02  0.00000000000E+00 0. -1.
</event>
<event>
 7    1  0.2852648E-010  0.4778727E+02  0.7816164E-02  0.1312668E+00
        -11   -1    0    0    0    0  0.00000000000E+00  0.00000000000E+00  0.45593999997E+02  0.45594000000E+02  0.51100000000E-03 0.  1.
         11   -1    0    0    0    0 -0.00000000000E+00 -0.00000000000E+00 -0.45593999997E+02  0.45594000000E+02  0.51100000000E-03 0. -1.
    9900012    2    1    2    0    0  0.31275279216E+02 -0.13405686381E+01 -0.30061324393E+02  0.47787269147E+02  0.19999991349E+02 0.  0.
        -12    1    1    2    0    0 -0.31275279216E+02  0.13405686381E+01  0.30061324393E+02  0.43400730853E+02  0.00000000000E+00 0.  1.
         11    1    3    3    0    0  0.20786883343E+02 -0.32951169007E+01 -0.19371730895E+02  0.28604479940E+02  0.51100000000E-03 0. -1.
        -11    1    3    3    0    0  0.53051559456E+01 -0.70238474919E+00  0.15977249699E+01  0.55848678842E+01  0.51100000000E-03 0.  1.
        -12    1    3    3    0    0  0.51832399272E+01  0.26569330117E+01 -0.12287318467E+02  0.13597921323E+02  0.00000000000E+00 0.  1.
</event>
<event>
 7    1  0.2740409E-010  0.4778727E+02  0.7816164E-02  0.1312668E+00
        -11   -1    0    0    0    0  0.00000000000E+00  0.00000000000E+00  0.45593999997E+02  0.45594000000E+02  0.51100000000E-03 0.  1.
         11   -1    0    0    0    0 -0.00000000000E+00 -0.00000000000E+00 -0.45593999997E+02  0.45594000000E+02  0.51100000000E-03 0. -1.
    9900012    2    1    2    0    0  0.35448624963E+02  0.24601304863E+02 -0.46684163094E+01  0.47787270472E+02  0.19999997392E+02 0.  0.
        -12    1    1    2    0    0 -0.35448624963E+02 -0.24601304863E+02  0.46684163094E+01  0.43400729528E+02  0.00000000000E+00 0.  1.
         11    1    3    3    0    0  0.10289838148E+02  0.13829309098E+02 -0.91657712918E+01  0.19522856422E+02  0.51100000000E-03 0.  1.
        -11    1    3    3    0    0  0.15747642358E+02  0.93727881712E+01  0.20504474098E+01  0.18440220519E+02  0.51100000000E-03 0. -1.
         12    1    3    3    0    0  0.94111444570E+01  0.13992075935E+01  0.24469075726E+01  0.98241935318E+01  0.00000000000E+00 0. -1.
</event>
<event>
 7    1  0.2740409E-010  0.4778727E+02  0.7816164E-02  0.1312668E+00
        -11   -1    0    0    0    0  0.00000000000E+00  0.00000000000E+00  0.45593999997E+02  0.45594000000E+02  0.51100000000E-03 0. -1.
         11   -1    0    0    0    0 -0.00000000000E+00 -0.00000000000E+00 -0.45593999997E+02  0.45594000000E+02  0.51100000000E-03 0.  1.
    9900012    2    1    2    0    0  0.21810142672E+02 -0.36626616289E+02  0.81505951417E+01  0.47787267917E+02  0.19999985742E+02 0.  0.
        -12    1    1    2    0    0 -0.21810142672E+02  0.36626616289E+02 -0.81505951417E+01  0.43400732083E+02  0.00000000000E+00 0.  1.
         11    1    3    3    0    0  0.15513817445E+02 -0.33939443361E+02  0.83536961277E+01  0.38240666660E+02  0.51100000000E-03 0. -1.
        -11    1    3    3    0    0  0.15198973077E+01 -0.16219229595E+00 -0.30706197154E+01  0.34300291346E+01  0.51100000000E-03 0.  1.
         12    1    3    3    0    0  0.47764279197E+01 -0.25249806320E+01  0.28675187293E+01  0.61165721223E+01  0.00000000000E+00 0. -1.
</event>
<event>
 7    1  0.2740409E-010  0.4778727E+02  0.7816164E-02  0.1312668E+00
        -11   -1    0    0    0    0  0.00000000000E+00  0.00000000000E+00  0.45593999997E+02  0.45594000000E+02  0.51100000000E-03 0.  1.
         11   -1    0    0    0    0 -0.00000000000E+00 -0.00000000000E+00 -0.45593999997E+02  0.45594000000E+02  0.51100000000E-03 0. -1.
    9900012    2    1    2    0    0  0.35172694979E+02 -0.24042134482E+02 -0.82752916260E+01  0.47787272425E+02  0.20000006297E+02 0.  0.
        -12    1    1    2    0    0 -0.35172694979E+02  0.24042134482E+02  0.82752916260E+01  0.43400727575E+02  0.00000000000E+00 0.  1.
         11    1    3    3    0    0 -0.84338879183E+00  0.58285617970E+00 -0.18563825492E+01  0.21206561273E+01  0.51100000000E-03 0.  1.
        -11    1    3    3    0    0  0.32689954379E+02 -0.19485646791E+02 -0.88625356898E+01  0.39075159465E+02  0.51100000000E-03 0. -1.
        -12    1    3    3    0    0  0.33261293920E+01 -0.51393438710E+01  0.24436266130E+01  0.65914568329E+01  0.00000000000E+00 0.  1.
</event>
<event>
 7    1 -0.2740409E-010  0.4778727E+02  0.7816164E-02  0.1312668E+00
        -11   -1    0    0    0    0  0.00000000000E+00  0.00000000000E+00  0.45593999997E+02  0.45594000000E+02  0.51100000000E-03 0. -1.
         11   -1    0    0    0    0 -0.00000000000E+00 -0.00000000000E+00 -0.45593999997E+02  0.45594000000E+02  0.51100000000E-03 0.  1.
    9900012    2    1    2    0    0 -0.32558907179E+02  0.74750510416E+01  0.27706757965E+02  0.47787271185E+02  0.20000000641E+02 0.  0.
        -12    1    1    2    0    0  0.32558907179E+02 -0.74750510416E+01 -0.27706757965E+02  0.43400728815E+02  0.00000000000E+00 0.  1.
         11    1    3    3    0    0 -0.14985362575E+02  0.11420391699E+02  0.13995602955E+02  0.23470478061E+02  0.51100000000E-03 0. -1.
        -11    1    3    3    0    0 -0.11370248700E+01 -0.82123557778E+00  0.55069006452E+01  0.56827113604E+01  0.51100000000E-03 0.  1.
         12    1    3    3    0    0 -0.16436519734E+02 -0.31241050794E+01  0.82042543641E+01  0.18634081764E+02  0.00000000000E+00 0. -1.
</event>
<event>
 7    1  0.2740409E-010  0.4778727E+02  0.7816164E-02  0.1312668E+00
        -11   -1    0    0    0    0  0.00000000000E+00  0.00000000000E+00  0.45593999997E+02  0.45594000000E+02  0.51100000000E-03 0. -1.
         11   -1    0    0    0    0 -0.00000000000E+00 -0.00000000000E+00 -0.45593999997E+02  0.45594000000E+02  0.51100000000E-03 0.  1.
    9900012    2    1    2    0    0 -0.12259891518E+02 -0.20067153218E+02  0.36477766973E+02  0.47787273489E+02  0.20000011148E+02 0.  0.
        -12    1    1    2    0    0  0.12259891518E+02  0.20067153218E+02 -0.36477766973E+02  0.43400726511E+02  0.00000000000E+00 0.  1.
         11    1    3    3    0    0 -0.83354536051E+01 -0.38104705304E+01  0.15142366706E+02  0.17700020965E+02  0.51100000000E-03 0. -1.
        -11    1    3    3    0    0 -0.62153965044E+01 -0.14344475290E+02  0.10459708345E+02  0.18809588618E+02  0.51100000000E-03 0.  1.
        -12    1    3    3    0    0  0.22909585917E+01 -0.19122073983E+01  0.10875691922E+02  0.11277663906E+02  0.00000000000E+00 0.  1.
</event>
<event>
 7    1  0.2740409E-010  0.4778727E+02  0.7816164E-02  0.1312668E+00
        -11   -1    0    0    0    0  0.00000000000E+00  0.00000000000E+00  0.45593999997E+02  0.45594000000E+02  0.51100000000E-03 0.  1.
         11   -1    0    0    0    0 -0.00000000000E+00 -0.00000000000E+00 -0.45593999997E+02  0.45594000000E+02  0.51100000000E-03 0. -1.
    9900012    2    1    2    0    0 -0.29342043159E+02 -0.28305879200E+02  0.14881023469E+02  0.47787272431E+02  0.20000006322E+02 0.  0.
        -12    1    1    2    0    0  0.29342043159E+02  0.28305879200E+02 -0.14881023469E+02  0.43400727569E+02  0.00000000000E+00 0.  1.
         11    1    3    3    0    0 -0.72267139511E+01 -0.75737614813E+01  0.23130367399E+01  0.10720886005E+02  0.51100000000E-03 0. -1.
        -11    1    3    3    0    0 -0.14911786283E+02 -0.13433955549E+02 -0.95698991695E+00  0.20093490533E+02  0.51100000000E-03 0.  1.
        -12    1    3    3    0    0 -0.72035429244E+01 -0.72981621701E+01  0.13524976646E+02  0.16972895893E+02  0.00000000000E+00 0.  1.
</event>
<event>
 7    1  0.2740409E-010  0.4778727E+02  0.7816164E-02  0.1312668E+00
        -11   -1    0    0    0    0  0.00000000000E+00  0.00000000000E+00  0.45593999997E+02  0.45594000000E+02  0.51100000000E-03 0.  1.
         11   -1    0    0    0    0 -0.00000000000E+00 -0.00000000000E+00 -0.45593999997E+02  0.45594000000E+02  0.51100000000E-03 0. -1.
    9900012    2    1    2    0    0  0.17565799690E+02 -0.33103928983E+02 -0.21890538980E+02  0.47787272705E+02  0.20000007572E+02 0.  0.
        -12    1    1    2    0    0 -0.17565799690E+02  0.33103928983E+02  0.21890538980E+02  0.43400727295E+02  0.00000000000E+00 0.  1.
         11    1    3    3    0    0  0.10252679846E+01 -0.25873452876E+01  0.23879940874E+01  0.36671577686E+01  0.51100000000E-03 0.  1.
        -11    1    3    3    0    0  0.17041741180E+02 -0.19903381882E+02 -0.17779136314E+02  0.31664858142E+02  0.51100000000E-03 0. -1.
        -12    1    3    3    0    0 -0.50120947454E+00 -0.10613201813E+02 -0.64993967533E+01  0.12455256795E+02  0.00000000000E+00 0.  1.
</event>
<event>
 7    1  0.2740409E-010  0.4778732E+02  0.7816164E-02  0.1312668E+00
        -11   -1    0    0    0    0  0.00000000000E+00  0.00000000000E+00  0.45593999997E+02  0.45594000000E+02  0.51100000000E-03 0.  1.
         11   -1    0    0    0    0 -0.00000000000E+00 -0.00000000000E+00 -0.45593999997E+02  0.45594000000E+02  0.51100000000E-03 0. -1.
    9900012    2    1    2    0    0 -0.18824883340E+01  0.13238913786E+02 -0.41289305061E+02  0.47787316676E+02  0.20000208052E+02 0.  0.
        -12    1    1    2    0    0  0.18824883340E+01 -0.13238913786E+02  0.41289305061E+02  0.43400683324E+02  0.00000000000E+00 0.  1.
         11    1    3    3    0    0  0.51724651243E+01  0.78980091785E+01 -0.18803239479E+02  0.21040312727E+02  0.51100000000E-03 0. -1.
        -11    1    3    3    0    0 -0.40675590588E+01  0.43077816525E+01 -0.23652016691E+01  0.63793572293E+01  0.51100000000E-03 0.  1.
         12    1    3    3    0    0 -0.29873943995E+01  0.10331229545E+01 -0.20120863913E+02  0.20367646720E+02  0.00000000000E+00 0. -1.
</event>
<event>
 7    1  0.2740409E-010  0.4778728E+02  0.7816164E-02  0.1312668E+00
        -11   -1    0    0    0    0  0.00000000000E+00  0.00000000000E+00  0.45593999997E+02  0.45594000000E+02  0.51100000000E-03 0.  1.
         11   -1    0    0    0    0 -0.00000000000E+00 -0.00000000000E+00 -0.45593999997E+02  0.45594000000E+02  0.51100000000E-03 0. -1.
    9900012    2    1    2    0    0 -0.27545715363E+02 -0.32933161399E+02  0.63453381574E+01  0.47787275687E+02  0.20000021166E+02 0.  0.
        -12    1    1    2    0    0  0.27545715363E+02  0.32933161399E+02 -0.63453381574E+01  0.43400724313E+02  0.00000000000E+00 0.  1.
         11    1    3    3    0    0 -0.11914008532E+02 -0.13226800217E+02  0.25859854036E+01  0.17988306314E+02  0.51100000000E-03 0. -1.
        -11    1    3    3    0    0 -0.98434301623E+01 -0.21360385724E+02  0.25327788458E+01  0.23655320006E+02  0.51100000000E-03 0.  1.
        -12    1    3    3    0    0 -0.57882766692E+01  0.16540245427E+01  0.12265739080E+01  0.61436493666E+01  0.00000000000E+00 0.  1.
</event>
<event>
 7    1  0.2740409E-010  0.4778727E+02  0.7816164E-02  0.1312668E+00
        -11   -1    0    0    0    0  0.00000000000E+00  0.00000000000E+00  0.45593999997E+02  0.45594000000E+02  0.51100000000E-03 0.  1.
         11   -1    0    0    0    0 -0.00000000000E+00 -0.00000000000E+00 -0.45593999997E+02  0.45594000000E+02  0.51100000000E-03 0. -1.
    9900012    2    1    2    0    0  0.79994983129E+01 -0.43363625214E+01 -0.42436154088E+02  0.47787272046E+02  0.20000004565E+02 0.  0.
        -12    1    1    2    0    0 -0.79994983129E+01  0.43363625214E+01  0.42436154088E+02  0.43400727954E+02  0.00000000000E+00 0.  1.
         11    1    3    3    0    0  0.11161283016E+01 -0.51673530838E+01 -0.20268643806E+02  0.20946722948E+02  0.51100000000E-03 0. -1.
        -11    1    3    3    0    0  0.28125269224E+01  0.67942023348E+01 -0.14793658137E+02  0.16520406000E+02  0.51100000000E-03 0.  1.
        -12    1    3    3    0    0  0.40708430889E+01 -0.59632117724E+01 -0.73738521451E+01  0.10320143098E+02  0.00000000000E+00 0.  1.
</event>
<event>
 7    1  0.2740409E-010  0.4778727E+02  0.7816164E-02  0.1312668E+00
        -11   -1    0    0    0    0  0.00000000000E+00  0.00000000000E+00  0.45593999997E+02  0.45594000000E+02  0.51100000000E-03 0.  1.
         11   -1    0    0    0    0 -0.00000000000E+00 -0.00000000000E+00 -0.45593999997E+02  0.45594000000E+02  0.51100000000E-03 0. -1.
    9900012    2    1    2    0    0 -0.79304803822E+01 -0.28780980046E+02 -0.31502155889E+02  0.47787272389E+02  0.20000006131E+02 0.  0.
        -12    1    1    2    0    0  0.79304803822E+01  0.28780980046E+02  0.31502155889E+02  0.43400727611E+02  0.00000000000E+00 0.  1.
         11    1    3    3    0    0  0.56822836740E+01 -0.77681530705E+01 -0.67572047880E+01  0.11759777493E+02  0.51100000000E-03 0. -1.
        -11    1    3    3    0    0 -0.87612434021E+01 -0.70478791506E+01 -0.87561665690E+01  0.14251401325E+02  0.51100000000E-03 0.  1.
         12    1    3    3    0    0 -0.48515206542E+01 -0.13964947825E+02 -0.15988784532E+02  0.21776093571E+02  0.00000000000E+00 0. -1.
</event>
<event>
 7    1  0.2740409E-010  0.4778727E+02  0.7816164E-02  0.1312668E+00
        -11   -1    0    0    0    0  0.00000000000E+00  0.00000000000E+00  0.45593999997E+02  0.45594000000E+02  0.51100000000E-03 0.  1.
         11   -1    0    0    0    0 -0.00000000000E+00 -0.00000000000E+00 -0.45593999997E+02  0.45594000000E+02  0.51100000000E-03 0. -1.
    9900012    2    1    2    0    0 -0.41626846634E+02  0.79152728602E+01 -0.93902886275E+01  0.47787269296E+02  0.19999992027E+02 0.  0.
        -12    1    1    2    0    0  0.41626846634E+02 -0.79152728602E+01  0.93902886275E+01  0.43400730704E+02  0.00000000000E+00 0.  1.
         11    1    3    3    0    0 -0.16456816548E+02  0.62258517929E+01 -0.93574703765E+01  0.19928629997E+02  0.51100000000E-03 0. -1.
        -11    1    3    3    0    0 -0.25800151832E+02  0.12301601408E+01  0.17744505838E+01  0.25890341899E+02  0.51100000000E-03 0.  1.
        -12    1    3    3    0    0  0.63012174587E+00  0.45926092651E+00 -0.18072688348E+01  0.19682973999E+01  0.00000000000E+00 0.  1.
</event>
<event>
 7    1  0.2740409E-010  0.4778727E+02  0.7816164E-02  0.1312668E+00
        -11   -1    0    0    0    0  0.00000000000E+00  0.00000000000E+00  0.45593999997E+02  0.45594000000E+02  0.51100000000E-03 0. -1.
         11   -1    0    0    0    0 -0.00000000000E+00 -0.00000000000E+00 -0.45593999997E+02  0.45594000000E+02  0.51100000000E-03 0.  1.
    9900012    2    1    2    0    0 -0.29734998172E+02 -0.10825324642E+02  0.29702960191E+02  0.47787267126E+02  0.19999982135E+02 0.  0.
        -12    1    1    2    0    0  0.29734998172E+02  0.10825324642E+02 -0.29702960191E+02  0.43400732874E+02  0.00000000000E+00 0.  1.
         11    1    3    3    0    0 -0.12086759299E+02 -0.11714966273E+02  0.75979888565E+01  0.18467799546E+02  0.51100000000E-03 0. -1.
        -11    1    3    3    0    0 -0.96884786513E+01  0.26741085776E+01  0.73212783515E+01  0.12434572458E+02  0.51100000000E-03 0.  1.
         12    1    3    3    0    0 -0.79597602210E+01 -0.17844669464E+01  0.14783692983E+02  0.16884895122E+02  0.00000000000E+00 0. -1.
</event>
<event>
 7    1  0.2740409E-010  0.4778728E+02  0.7816164E-02  0.1312668E+00
        -11   -1    0    0    0    0  0.00000000000E+00  0.00000000000E+00  0.45593999997E+02  0.45594000000E+02  0.51100000000E-03 0. -1.
         11   -1    0    0    0    0 -0.00000000000E+00 -0.00000000000E+00 -0.45593999997E+02  0.45594000000E+02  0.51100000000E-03 0.  1.
    9900012    2    1    2    0    0 -0.37412185232E+02 -0.21998067274E+02 -0.19045643195E+00  0.47787276028E+02  0.20000022724E+02 0.  0.
        -12    1    1    2    0    0  0.37412185232E+02  0.21998067274E+02  0.19045643195E+00  0.43400723972E+02  0.00000000000E+00 0.  1.
         11    1    3    3    0    0 -0.31075353218E+02 -0.12865169206E+02 -0.25131645167E+01  0.33726935119E+02  0.51100000000E-03 0. -1.
        -11    1    3    3    0    0  0.19472594213E+01 -0.14558740378E+01 -0.34364770187E+00  0.24555004524E+01  0.51100000000E-03 0.  1.
        -12    1    3    3    0    0 -0.82840914344E+01 -0.76770240306E+01  0.26663557866E+01  0.11604840457E+02  0.00000000000E+00 0.  1.
</event>
<event>
 7    1  0.2740409E-010  0.4778727E+02  0.7816164E-02  0.1312668E+00
        -11   -1    0    0    0    0  0.00000000000E+00  0.00000000000E+00  0.45593999997E+02  0.45594000000E+02  0.51100000000E-03 0. -1.
         11   -1    0    0    0    0 -0.00000000000E+00 -0.00000000000E+00 -0.45593999997E+02  0.45594000000E+02  0.51100000000E-03 0.  1.
    9900012    2    1    2    0    0 -0.70038560578E+01  0.78485827869E+01  0.42106643314E+02  0.47787266566E+02  0.19999979582E+02 0.  0.
        -12    1    1    2    0    0  0.70038560578E+01 -0.78485827869E+01 -0.42106643314E+02  0.43400733434E+02  0.00000000000E+00 0.  1.
         11    1    3    3    0    0  0.30152170134E+01  0.19846019998E+00  0.23877967921E+02  0.24068408182E+02  0.51100000000E-03 0. -1.
        -11    1    3    3    0    0 -0.67909113127E+01  0.67018803939E+00  0.51592186301E+01  0.85547159859E+01  0.51100000000E-03 0.  1.
        -12    1    3    3    0    0 -0.32281617584E+01  0.69799345475E+01  0.13069456762E+02  0.15164142399E+02  0.00000000000E+00 0.  1.
</event>
<event>
 7    1  0.2740409E-010  0.4778727E+02  0.7816164E-02  0.1312668E+00
        -11   -1    0    0    0    0  0.00000000000E+00  0.00000000000E+00  0.45593999997E+02  0.45594000000E+02  0.51100000000E-03 0.  1.
         11   -1    0    0    0    0 -0.00000000000E+00 -0.00000000000E+00 -0.45593999997E+02  0.45594000000E+02  0.51100000000E-03 0. -1.
    9900012    2    1    2    0    0 -0.30131206458E+02  0.20544571465E+02 -0.23529856982E+02  0.47787272024E+02  0.20000004465E+02 0.  0.
        -12    1    1    2    0    0  0.30131206458E+02 -0.20544571465E+02  0.23529856982E+02  0.43400727976E+02  0.00000000000E+00 0.  1.
         11    1    3    3    0    0 -0.15519495246E+02  0.60173514898E+01 -0.17444157509E+02  0.24111447138E+02  0.51100000000E-03 0. -1.
        -11    1    3    3    0    0 -0.12805681825E+02  0.10440435108E+02 -0.50928591099E+00  0.16530200986E+02  0.51100000000E-03 0.  1.
         12    1    3    3    0    0 -0.18060293869E+01  0.40867848673E+01 -0.55764135619E+01  0.71456238994E+01  0.00000000000E+00 0. -1.
</event>
<event>
 7    1  0.2740409E-010  0.4778727E+02  0.7816164E-02  0.1312668E+00
        -11   -1    0    0    0    0  0.00000000000E+00  0.00000000000E+00  0.45593999997E+02  0.45594000000E+02  0.51100000000E-03 0.  1.
         11   -1    0    0    0    0 -0.00000000000E+00 -0.00000000000E+00 -0.45593999997E+02  0.45594000000E+02  0.51100000000E-03 0. -1.
    9900012    2    1    2    0    0  0.14944693862E+02  0.35315638389E+02 -0.20324492023E+02  0.47787272294E+02  0.20000005696E+02 0.  0.
        -12    1    1    2    0    0 -0.14944693862E+02 -0.35315638389E+02  0.20324492023E+02  0.43400727706E+02  0.00000000000E+00 0.  1.
         11    1    3    3    0    0  0.62480457703E+01  0.20363857561E+02 -0.49054195186E+01  0.21858360222E+02  0.51100000000E-03 0. -1.
        -11    1    3    3    0    0 -0.59136748421E+00 -0.15156898386E+01 -0.26669898426E+01  0.31240784673E+01  0.51100000000E-03 0.  1.
         12    1    3    3    0    0  0.92880155758E+01  0.16467470667E+02 -0.12752082662E+02  0.22804833604E+02  0.00000000000E+00 0. -1.
</event>
<event>
 7    1  0.2740409E-010  0.4778727E+02  0.7816164E-02  0.1312668E+00
        -11   -1    0    0    0    0  0.00000000000E+00  0.00000000000E+00  0.45593999997E+02  0.45594000000E+02  0.51100000000E-03 0.  1.
         11   -1    0    0    0    0 -0.00000000000E+00 -0.00000000000E+00 -0.45593999997E+02  0.45594000000E+02  0.51100000000E-03 0. -1.
    9900012    2    1    2    0    0 -0.41398713962E+02  0.11799740400E+02 -0.55259325367E+01  0.47787270494E+02  0.19999997490E+02 0.  0.
        -12    1    1    2    0    0  0.41398713962E+02 -0.11799740400E+02  0.55259325367E+01  0.43400729506E+02  0.00000000000E+00 0.  1.
         11    1    3    3    0    0 -0.72962726995E+01  0.27924128405E+01 -0.54160473299E+01  0.95061418945E+01  0.51100000000E-03 0. -1.
        -11    1    3    3    0    0 -0.33808485617E+01  0.21559921019E+01  0.49824542563E+01  0.63955679668E+01  0.51100000000E-03 0.  1.
        -12    1    3    3    0    0 -0.30721592701E+02  0.68513354575E+01 -0.50923394631E+01  0.31885560633E+02  0.00000000000E+00 0.  1.
</event>
<event>
 7    1  0.2740409E-010  0.4778726E+02  0.7816164E-02  0.1312668E+00
        -11   -1    0    0    0    0  0.00000000000E+00  0.00000000000E+00  0.45593999997E+02  0.45594000000E+02  0.51100000000E-03 0.  1.
         11   -1    0    0    0    0 -0.00000000000E+00 -0.00000000000E+00 -0.45593999997E+02  0.45594000000E+02  0.51100000000E-03 0. -1.
    9900012    2    1    2    0    0 -0.33358734385E+02  0.27135012101E+02 -0.58745054756E+01  0.47787264337E+02  0.19999969419E+02 0.  0.
        -12    1    1    2    0    0  0.33358734385E+02 -0.27135012101E+02  0.58745054756E+01  0.43400735663E+02  0.00000000000E+00 0.  1.
         11    1    3    3    0    0 -0.13923421196E+02  0.12198140355E+02 -0.10112089023E+02  0.21092904746E+02  0.51100000000E-03 0. -1.
        -11    1    3    3    0    0 -0.15884305457E+02  0.65938550126E+01  0.17217036337E+01  0.17284511779E+02  0.51100000000E-03 0.  1.
         12    1    3    3    0    0 -0.35510077324E+01  0.83430167330E+01  0.25158799136E+01  0.94098478129E+01  0.00000000000E+00 0. -1.
</event>
<event>
 7    1  0.2740409E-010  0.4778727E+02  0.7816164E-02  0.1312668E+00
        -11   -1    0    0    0    0  0.00000000000E+00  0.00000000000E+00  0.45593999997E+02  0.45594000000E+02  0.51100000000E-03 0.  1.
         11   -1    0    0    0    0 -0.00000000000E+00 -0.00000000000E+00 -0.45593999997E+02  0.45594000000E+02  0.51100000000E-03 0. -1.
    9900012    2    1    2    0    0 -0.35028687693E+02  0.37444740667E+00 -0.25621754600E+02  0.47787268657E+02  0.19999989114E+02 0.  0.
        -12    1    1    2    0    0  0.35028687693E+02 -0.37444740667E+00  0.25621754600E+02  0.43400731343E+02  0.00000000000E+00 0.  1.
         11    1    3    3    0    0 -0.19355214847E+02 -0.90787483879E+01 -0.95188395482E+01  0.23402058043E+02  0.51100000000E-03 0.  1.
        -11    1    3    3    0    0 -0.10479189189E+02  0.62343277732E+01 -0.11062662696E+02  0.16463983571E+02  0.51100000000E-03 0. -1.
        -12    1    3    3    0    0 -0.51942836570E+01  0.32188680214E+01 -0.50402523554E+01  0.79212270422E+01  0.00000000000E+00 0.  1.
</event>
<event>
 7    1  0.2740409E-010  0.4778727E+02  0.7816164E-02  0.1312668E+00
        -11   -1    0    0    0    0  0.00000000000E+00  0.00000000000E+00  0.45593999997E+02  0.45594000000E+02  0.51100000000E-03 0.  1.
         11   -1    0    0    0    0 -0.00000000000E+00 -0.00000000000E+00 -0.45593999997E+02  0.45594000000E+02  0.51100000000E-03 0. -1.
    9900012    2    1    2    0    0  0.18406279135E+02  0.12115750471E+02 -0.37390381455E+02  0.47787272513E+02  0.20000006696E+02 0.  0.
        -12    1    1    2    0    0 -0.18406279135E+02 -0.12115750471E+02  0.37390381455E+02  0.43400727487E+02  0.00000000000E+00 0.  1.
         11    1    3    3    0    0 -0.75404160779E+00  0.16149316885E+00 -0.12912411088E+02  0.12935417240E+02  0.51100000000E-03 0.  1.
        -11    1    3    3    0    0  0.17847140079E+02  0.61795435660E+01 -0.18664786802E+02  0.26553369547E+02  0.51100000000E-03 0. -1.
        -12    1    3    3    0    0  0.13131806635E+01  0.57747137363E+01 -0.58131835644E+01  0.82984857260E+01  0.00000000000E+00 0.  1.
</event>
<event>
 7    1  0.2740409E-010  0.4778727E+02  0.7816164E-02  0.1312668E+00
        -11   -1    0    0    0    0  0.00000000000E+00  0.00000000000E+00  0.45593999997E+02  0.45594000000E+02  0.51100000000E-03 0.  1.
         11   -1    0    0    0    0 -0.00000000000E+00 -0.00000000000E+00 -0.45593999997E+02  0.45594000000E+02  0.51100000000E-03 0. -1.
    9900012    2    1    2    0    0 -0.86218009695E+01 -0.10592183762E+00 -0.42535592169E+02  0.47787271059E+02  0.20000000067E+02 0.  0.
        -12    1    1    2    0    0  0.86218009695E+01  0.10592183762E+00  0.42535592169E+02  0.43400728941E+02  0.00000000000E+00 0.  1.
         11    1    3    3    0    0  0.34924695733E+01 -0.96525729152E+00 -0.16042760434E+02  0.16446860732E+02  0.51100000000E-03 0. -1.
        -11    1    3    3    0    0 -0.55343111570E+01  0.11163120674E+01 -0.20186046026E+01  0.59957916422E+01  0.51100000000E-03 0.  1.
        -12    1    3    3    0    0 -0.65799593858E+01 -0.25697661349E+00 -0.24474227133E+02  0.25344618685E+02  0.00000000000E+00 0.  1.
</event>
<event>
 7    1  0.2740409E-010  0.4778727E+02  0.7816164E-02  0.1312668E+00
        -11   -1    0    0    0    0  0.00000000000E+00  0.00000000000E+00  0.45593999997E+02  0.45594000000E+02  0.51100000000E-03 0. -1.
         11   -1    0    0    0    0 -0.00000000000E+00 -0.00000000000E+00 -0.45593999997E+02  0.45594000000E+02  0.51100000000E-03 0.  1.
    9900012    2    1    2    0    0 -0.33493853815E+02 -0.23983044766E+02 -0.13660121713E+02  0.47787267232E+02  0.19999982616E+02 0.  0.
        -12    1    1    2    0    0  0.33493853815E+02  0.23983044766E+02  0.13660121713E+02  0.43400732768E+02  0.00000000000E+00 0.  1.
         11    1    3    3    0    0 -0.20672054729E+02 -0.23185081801E+02 -0.54448815428E+01  0.31536147515E+02  0.51100000000E-03 0. -1.
        -11    1    3    3    0    0  0.78542216699E-01 -0.10716352688E+01 -0.30802959668E+00  0.11177895700E+01  0.51100000000E-03 0.  1.
         12    1    3    3    0    0 -0.12900341303E+02  0.27367230420E+00 -0.79072105733E+01  0.15133330146E+02  0.00000000000E+00 0. -1.
</event>
<event>
 7    1  0.2740409E-010  0.4778729E+02  0.7816164E-02  0.1312668E+00
        -11   -1    0    0    0    0  0.00000000000E+00  0.00000000000E+00  0.45593999997E+02  0.45594000000E+02  0.51100000000E-03 0.  1.
         11   -1    0    0    0    0 -0.00000000000E+00 -0.00000000000E+00 -0.45593999997E+02  0.45594000000E+02  0.51100000000E-03 0. -1.
    9900012    2    1    2    0    0  0.32942529535E+02 -0.18327243200E+02  0.21506365513E+02  0.47787287413E+02  0.20000074631E+02 0.  0.
        -12    1    1    2    0    0 -0.32942529535E+02  0.18327243200E+02 -0.21506365513E+02  0.43400712587E+02  0.00000000000E+00 0.  1.
         11    1    3    3    0    0  0.15910569576E+02 -0.31417066895E+01  0.36094577090E+01  0.16614593897E+02  0.51100000000E-03 0.  1.
        -11    1    3    3    0    0  0.18260394366E+02 -0.15801686939E+02  0.16987818978E+02  0.29524926865E+02  0.51100000000E-03 0. -1.
        -12    1    3    3    0    0 -0.12284344062E+01  0.61615042926E+00  0.90908882600E+00  0.16477666508E+01  0.00000000000E+00 0.  1.
</event>
<event>
 7    1  0.2740409E-010  0.4778727E+02  0.7816164E-02  0.1312668E+00
        -11   -1    0    0    0    0  0.00000000000E+00  0.00000000000E+00  0.45593999997E+02  0.45594000000E+02  0.51100000000E-03 0.  1.
         11   -1    0    0    0    0 -0.00000000000E+00 -0.00000000000E+00 -0.45593999997E+02  0.45594000000E+02  0.51100000000E-03 0. -1.
    9900012    2    1    2    0    0 -0.65157891808E+01 -0.30116975521E+02 -0.30563631269E+02  0.47787270979E+02  0.19999999703E+02 0.  0.
        -12    1    1    2    0    0  0.65157891808E+01  0.30116975521E+02  0.30563631269E+02  0.43400729021E+02  0.00000000000E+00 0.  1.
         11    1    3    3    0    0  0.69928748593E+00 -0.19829740027E+01 -0.12696097311E+02  0.12869035553E+02  0.51100000000E-03 0. -1.
        -11    1    3    3    0    0  0.40434103782E+00 -0.10429150772E+02 -0.40178477816E+01  0.11183638878E+02  0.51100000000E-03 0.  1.
         12    1    3    3    0    0 -0.76194177045E+01 -0.17704850746E+02 -0.13849686177E+02  0.23734596548E+02  0.00000000000E+00 0. -1.
</event>
<event>
 7    1  0.2740409E-010  0.4778729E+02  0.7816164E-02  0.1312668E+00
        -11   -1    0    0    0    0  0.00000000000E+00  0.00000000000E+00  0.45593999997E+02  0.45594000000E+02  0.51100000000E-03 0.  1.
         11   -1    0    0    0    0 -0.00000000000E+00 -0.00000000000E+00 -0.45593999997E+02  0.45594000000E+02  0.51100000000E-03 0. -1.
    9900012    2    1    2    0    0 -0.15910798406E+02  0.86122697525E+01 -0.39449926802E+02  0.47787292392E+02  0.20000097331E+02 0.  0.
        -12    1    1    2    0    0  0.15910798406E+02 -0.86122697525E+01  0.39449926802E+02  0.43400707608E+02  0.00000000000E+00 0.  1.
         11    1    3    3    0    0 -0.19859757510E+01  0.46846071313E+00 -0.69568088291E+00  0.21558124397E+01  0.51100000000E-03 0. -1.
        -11    1    3    3    0    0 -0.61943571610E+01 -0.16389820345E+01 -0.18371958240E+01  0.66657041267E+01  0.51100000000E-03 0.  1.
         12    1    3    3    0    0 -0.77304654940E+01  0.97827910738E+01 -0.36917050095E+02  0.38965775825E+02  0.00000000000E+00 0. -1.
</event>
<event>
 7    1  0.2740409E-010  0.4778727E+02  0.7816164E-02  0.1312668E+00
        -11   -1    0    0    0    0  0.00000000000E+00  0.00000000000E+00  0.45593999997E+02  0.45594000000E+02  0.51100000000E-03 0.  1.
         11   -1    0    0    0    0 -0.00000000000E+00 -0.00000000000E+00 -0.45593999997E+02  0.45594000000E+02  0.51100000000E-03 0. -1.
    9900012    2    1    2    0    0  0.26393266119E+02  0.21570852295E+02 -0.26864802737E+02  0.47787265084E+02  0.19999972825E+02 0.  0.
        -12    1    1    2    0    0 -0.26393266119E+02 -0.21570852295E+02  0.26864802737E+02  0.43400734916E+02  0.00000000000E+00 0.  1.
         11    1    3    3    0    0  0.15560194967E+01  0.11175442206E+02 -0.29247971045E+01  0.11656163328E+02  0.51100000000E-03 0.  1.
        -11    1    3    3    0    0  0.16999219685E+02  0.76705044743E+01 -0.18058598870E+02  0.25960028932E+02  0.51100000000E-03 0. -1.
        -12    1    3    3    0    0  0.78380269371E+01  0.27249056151E+01 -0.58814067625E+01  0.10171072824E+02  0.00000000000E+00 0.  1.
</event>
<event>
 7    1  0.2740409E-010  0.4778726E+02  0.7816164E-02  0.1312668E+00
        -11   -1    0    0    0    0  0.00000000000E+00  0.00000000000E+00  0.45593999997E+02  0.45594000000E+02  0.51100000000E-03 0.  1.
         11   -1    0    0    0    0 -0.00000000000E+00 -0.00000000000E+00 -0.45593999997E+02  0.45594000000E+02  0.51100000000E-03 0. -1.
    9900012    2    1    2    0    0  0.61340795433E+01 -0.70538905398E+01 -0.42382067108E+02  0.47787263647E+02  0.19999966274E+02 0.  0.
        -12    1    1    2    0    0 -0.61340795433E+01  0.70538905398E+01  0.42382067108E+02  0.43400736353E+02  0.00000000000E+00 0.  1.
         11    1    3    3    0    0  0.89438106826E+01  0.32666472589E+01 -0.27116848261E+02  0.28739975534E+02  0.51100000000E-03 0. -1.
        -11    1    3    3    0    0 -0.32565005418E+01 -0.71956765587E+01 -0.12805875181E+02  0.15045696938E+02  0.51100000000E-03 0.  1.
         12    1    3    3    0    0  0.44676940248E+00 -0.31248612400E+01 -0.24593436657E+01  0.40015911753E+01  0.00000000000E+00 0. -1.
</event>
<event>
 7    1  0.2740409E-010  0.4778727E+02  0.7816164E-02  0.1312668E+00
        -11   -1    0    0    0    0  0.00000000000E+00  0.00000000000E+00  0.45593999997E+02  0.45594000000E+02  0.51100000000E-03 0.  1.
         11   -1    0    0    0    0 -0.00000000000E+00 -0.00000000000E+00 -0.45593999997E+02  0.45594000000E+02  0.51100000000E-03 0. -1.
    9900012    2    1    2    0    0  0.15337604184E+02  0.90176559241E+01 -0.39586147423E+02  0.47787270879E+02  0.19999999246E+02 0.  0.
        -12    1    1    2    0    0 -0.15337604184E+02 -0.90176559241E+01  0.39586147423E+02  0.43400729121E+02  0.00000000000E+00 0.  1.
         11    1    3    3    0    0  0.89149761427E+01  0.57112864419E+01 -0.65031526913E+01  0.12425239943E+02  0.51100000000E-03 0. -1.
        -11    1    3    3    0    0  0.36823533853E+01  0.31221288451E+01 -0.43511695043E+01  0.64992377473E+01  0.51100000000E-03 0.  1.
         12    1    3    3    0    0  0.27402746558E+01  0.18424063715E+00 -0.28731825227E+02  0.28862793189E+02  0.00000000000E+00 0. -1.
</event>
<event>
 7    1  0.2740409E-010  0.4778726E+02  0.7816164E-02  0.1312668E+00
        -11   -1    0    0    0    0  0.00000000000E+00  0.00000000000E+00  0.45593999997E+02  0.45594000000E+02  0.51100000000E-03 0.  1.
         11   -1    0    0    0    0 -0.00000000000E+00 -0.00000000000E+00 -0.45593999997E+02  0.45594000000E+02  0.51100000000E-03 0. -1.
    9900012    2    1    2    0    0 -0.32809724396E+02  0.28295001277E+02 -0.25572102949E+01  0.47787257648E+02  0.19999938922E+02 0.  0.
        -12    1    1    2    0    0  0.32809724396E+02 -0.28295001277E+02  0.25572102949E+01  0.43400742352E+02  0.00000000000E+00 0.  1.
         11    1    3    3    0    0 -0.32969480695E+02  0.24547343705E+02  0.20439872764E+01  0.41155031582E+02  0.51100000000E-03 0. -1.
        -11    1    3    3    0    0  0.13066022609E+01  0.10622093903E+01 -0.87349376646E+00  0.18969686023E+01  0.51100000000E-03 0.  1.
         12    1    3    3    0    0 -0.11468459619E+01  0.26854481820E+01 -0.37277038048E+01  0.47352574645E+01  0.00000000000E+00 0. -1.
</event>
<event>
 7    1  0.2740409E-010  0.4778727E+02  0.7816164E-02  0.1312668E+00
        -11   -1    0    0    0    0  0.00000000000E+00  0.00000000000E+00  0.45593999997E+02  0.45594000000E+02  0.51100000000E-03 0.  1.
         11   -1    0    0    0    0 -0.00000000000E+00 -0.00000000000E+00 -0.45593999997E+02  0.45594000000E+02  0.51100000000E-03 0. -1.
    9900012    2    1    2    0    0 -0.26878574168E+02 -0.28444805307E+02 -0.18763222681E+02  0.47787271623E+02  0.20000002640E+02 0.  0.
        -12    1    1    2    0    0  0.26878574168E+02  0.28444805307E+02  0.18763222681E+02  0.43400728377E+02  0.00000000000E+00 0.  1.
         11    1    3    3    0    0 -0.57870646901E+01 -0.22757914330E+01 -0.92333967494E+01  0.11132158828E+02  0.51100000000E-03 0. -1.
        -11    1    3    3    0    0 -0.17678082781E+02 -0.15582402544E+02 -0.29966938517E+01  0.23755126902E+02  0.51100000000E-03 0.  1.
         12    1    3    3    0    0 -0.34134266967E+01 -0.10586611330E+02 -0.65331320799E+01  0.12899985893E+02  0.00000000000E+00 0. -1.
</event>
<event>
 7    1  0.2740409E-010  0.4778727E+02  0.7816164E-02  0.1312668E+00
        -11   -1    0    0    0    0  0.00000000000E+00  0.00000000000E+00  0.45593999997E+02  0.45594000000E+02  0.51100000000E-03 0. -1.
         11   -1    0    0    0    0 -0.00000000000E+00 -0.00000000000E+00 -0.45593999997E+02  0.45594000000E+02  0.51100000000E-03 0.  1.
    9900012    2    1    2    0    0  0.39104768916E+02  0.13511076567E+02  0.13110712780E+02  0.47787274988E+02  0.20000017982E+02 0.  0.
        -12    1    1    2    0    0 -0.39104768916E+02 -0.13511076567E+02 -0.13110712780E+02  0.43400725012E+02  0.00000000000E+00 0.  1.
         11    1    3    3    0    0  0.10792482810E+02 -0.57824529433E+00  0.26852559540E+01  0.11136545812E+02  0.51100000000E-03 0. -1.
        -11    1    3    3    0    0 -0.15208303749E+01 -0.62317170645E+00  0.14640455311E+01  0.22010673736E+01  0.51100000000E-03 0.  1.
        -12    1    3    3    0    0  0.29833116481E+02  0.14712493567E+02  0.89614112950E+01  0.34449661803E+02  0.00000000000E+00 0.  1.
</event>
<event>
 7    1  0.2740409E-010  0.4778726E+02  0.7816164E-02  0.1312668E+00
        -11   -1    0    0    0    0  0.00000000000E+00  0.00000000000E+00  0.45593999997E+02  0.45594000000E+02  0.51100000000E-03 0.  1.
         11   -1    0    0    0    0 -0.00000000000E+00 -0.00000000000E+00 -0.45593999997E+02  0.45594000000E+02  0.51100000000E-03 0. -1.
    9900012    2    1    2    0    0 -0.30743718028E+02 -0.87641858827E+01 -0.29353650098E+02  0.47787263526E+02  0.19999965721E+02 0.  0.
        -12    1    1    2    0    0  0.30743718028E+02  0.87641858827E+01  0.29353650098E+02  0.43400736474E+02  0.00000000000E+00 0.  1.
         11    1    3    3    0    0 -0.10578570277E+02 -0.46229457949E+01 -0.69836853195E+01  0.13492577138E+02  0.51100000000E-03 0. -1.
        -11    1    3    3    0    0 -0.72707482511E+01  0.25420688478E+01 -0.94634950608E-01  0.77029117996E+01  0.51100000000E-03 0.  1.
        -12    1    3    3    0    0 -0.12894399500E+02 -0.66833089357E+01 -0.22275329828E+02  0.26591774588E+02  0.00000000000E+00 0.  1.
</event>
<event>
 7    1  0.2740409E-010  0.4778724E+02  0.7816164E-02  0.1312668E+00
        -11   -1    0    0    0    0  0.00000000000E+00  0.00000000000E+00  0.45593999997E+02  0.45594000000E+02  0.51100000000E-03 0.  1.
         11   -1    0    0    0    0 -0.00000000000E+00 -0.00000000000E+00 -0.45593999997E+02  0.45594000000E+02  0.51100000000E-03 0. -1.
    9900012    2    1    2    0    0  0.53008759379E+01 -0.38891663817E+02 -0.18519324959E+02  0.47787237367E+02  0.19999846452E+02 0.  0.
        -12    1    1    2    0    0 -0.53008759379E+01  0.38891663817E+02  0.18519324959E+02  0.43400762633E+02  0.00000000000E+00 0.  1.
         11    1    3    3    0    0  0.38529504635E+01 -0.11375548424E+02 -0.94131070184E+01  0.15259584307E+02  0.51100000000E-03 0. -1.
        -11    1    3    3    0    0  0.28010664224E+01  0.62595283950E+00 -0.19132160545E+01  0.34493747248E+01  0.51100000000E-03 0.  1.
         12    1    3    3    0    0 -0.13531409479E+01 -0.28142068233E+02 -0.71930018860E+01  0.29078278336E+02  0.00000000000E+00 0. -1.
</event>
<event>
 7    1  0.2740409E-010  0.4778729E+02  0.7816164E-02  0.1312668E+00
        -11   -1    0    0    0    0  0.00000000000E+00  0.00000000000E+00  0.45593999997E+02  0.45594000000E+02  0.51100000000E-03 0.  1.
         11   -1    0    0    0    0 -0.00000000000E+00 -0.00000000000E+00 -0.45593999997E+02  0.45594000000E+02  0.51100000000E-03 0. -1.
    9900012    2    1    2    0    0 -0.30624952479E+02 -0.30337510262E+02  0.50368206804E+01  0.47787287957E+02  0.20000077111E+02 0.  0.
        -12    1    1    2    0    0  0.30624952479E+02  0.30337510262E+02 -0.50368206804E+01  0.43400712043E+02  0.00000000000E+00 0.  1.
         11    1    3    3    0    0 -0.16706870367E+02 -0.11105662719E+02 -0.32497552482E+01  0.20322799298E+02  0.51100000000E-03 0. -1.
        -11    1    3    3    0    0 -0.11257664735E+02 -0.19997767161E+02  0.56337284321E+01  0.23630162992E+02  0.51100000000E-03 0.  1.
        -12    1    3    3    0    0 -0.26604173779E+01  0.76591961737E+00  0.26528474964E+01  0.38343256675E+01  0.00000000000E+00 0.  1.
</event>
<event>
 7    1  0.2740409E-010  0.4778727E+02  0.7816164E-02  0.1312668E+00
        -11   -1    0    0    0    0  0.00000000000E+00  0.00000000000E+00  0.45593999997E+02  0.45594000000E+02  0.51100000000E-03 0.  1.
         11   -1    0    0    0    0 -0.00000000000E+00 -0.00000000000E+00 -0.45593999997E+02  0.45594000000E+02  0.51100000000E-03 0. -1.
    9900012    2    1    2    0    0  0.26486865965E+02  0.22620014067E+02 -0.25892159933E+02  0.47787273612E+02  0.20000011706E+02 0.  0.
        -12    1    1    2    0    0 -0.26486865965E+02 -0.22620014067E+02  0.25892159933E+02  0.43400726388E+02  0.00000000000E+00 0.  1.
         11    1    3    3    0    0  0.16491083039E+02  0.93271163780E+01 -0.22638974356E+02  0.29520739826E+02  0.51100000000E-03 0. -1.
        -11    1    3    3    0    0  0.47768784272E+01  0.35629620341E+01 -0.40363089548E+01  0.71975729385E+01  0.51100000000E-03 0.  1.
         12    1    3    3    0    0  0.52189044990E+01  0.97299356550E+01  0.78312337788E+00  0.11068960848E+02  0.00000000000E+00 0. -1.
</event>
<event>
 7    1  0.2740409E-010  0.4778731E+02  0.7816164E-02  0.1312668E+00
        -11   -1    0    0    0    0  0.00000000000E+00  0.00000000000E+00  0.45593999997E+02  0.45594000000E+02  0.51100000000E-03 0. -1.
         11   -1    0    0    0    0 -0.00000000000E+00 -0.00000000000E+00 -0.45593999997E+02  0.45594000000E+02  0.51100000000E-03 0.  1.
    9900012    2    1    2    0    0  0.41826686669E+02  0.26845994391E+01  0.11266823451E+02  0.47787307580E+02  0.20000166580E+02 0.  0.
        -12    1    1    2    0    0 -0.41826686669E+02 -0.26845994391E+01 -0.11266823451E+02  0.43400692420E+02  0.00000000000E+00 0.  1.
         11    1    3    3    0    0  0.79221132703E+01  0.19455751065E+00 -0.58241480014E+00  0.79458755687E+01  0.51100000000E-03 0.  1.
        -11    1    3    3    0    0  0.26070711019E+02 -0.56989911413E+01  0.88995647544E+01  0.28131170010E+02  0.51100000000E-03 0. -1.
        -12    1    3    3    0    0  0.78338623801E+01  0.81890330698E+01  0.29496734964E+01  0.11710262002E+02  0.00000000000E+00 0.  1.
</event>
<event>
 7    1  0.2740409E-010  0.4778727E+02  0.7816164E-02  0.1312668E+00
        -11   -1    0    0    0    0  0.00000000000E+00  0.00000000000E+00  0.45593999997E+02  0.45594000000E+02  0.51100000000E-03 0.  1.
         11   -1    0    0    0    0 -0.00000000000E+00 -0.00000000000E+00 -0.45593999997E+02  0.45594000000E+02  0.51100000000E-03 0. -1.
    9900012    2    1    2    0    0  0.10283081955E+02  0.39522990900E+02 -0.14690623574E+02  0.47787274140E+02  0.20000014113E+02 0.  0.
        -12    1    1    2    0    0 -0.10283081955E+02 -0.39522990900E+02  0.14690623574E+02  0.43400725860E+02  0.00000000000E+00 0.  1.
         11    1    3    3    0    0 -0.32437068291E+01  0.19495735668E+02 -0.90682016150E+01  0.21744829823E+02  0.51100000000E-03 0. -1.
        -11    1    3    3    0    0  0.12955311968E+02  0.13864583871E+02 -0.58269912562E+01  0.19849952682E+02  0.51100000000E-03 0.  1.
        -12    1    3    3    0    0  0.57147681621E+00  0.61626713608E+01  0.20456929680E+00  0.61924916351E+01  0.00000000000E+00 0.  1.
</event>
<event>
 7    1  0.2740409E-010  0.4778726E+02  0.7816164E-02  0.1312668E+00
        -11   -1    0    0    0    0  0.00000000000E+00  0.00000000000E+00  0.45593999997E+02  0.45594000000E+02  0.51100000000E-03 0. -1.
         11   -1    0    0    0    0 -0.00000000000E+00 -0.00000000000E+00 -0.45593999997E+02  0.45594000000E+02  0.51100000000E-03 0.  1.
    9900012    2    1    2    0    0  0.43336714173E+02  0.25223118828E+00  0.23429856098E+01  0.47787262708E+02  0.19999961993E+02 0.  0.
        -12    1    1    2    0    0 -0.43336714173E+02 -0.25223118828E+00 -0.23429856098E+01  0.43400737292E+02  0.00000000000E+00 0.  1.
         11    1    3    3    0    0  0.25350575877E+02 -0.45308167447E+01 -0.43956867715E+01  0.26124740384E+02  0.51100000000E-03 0. -1.
        -11    1    3    3    0    0  0.18811677913E+02  0.45953077297E+01  0.72453610300E+01  0.20675863604E+02  0.51100000000E-03 0.  1.
        -12    1    3    3    0    0 -0.82553961765E+00  0.18774020331E+00 -0.50668864872E+00  0.98665872063E+00  0.00000000000E+00 0.  1.
</event>
<event>
 7    1  0.2740409E-010  0.4778727E+02  0.7816164E-02  0.1312668E+00
        -11   -1    0    0    0    0  0.00000000000E+00  0.00000000000E+00  0.45593999997E+02  0.45594000000E+02  0.51100000000E-03 0.  1.
         11   -1    0    0    0    0 -0.00000000000E+00 -0.00000000000E+00 -0.45593999997E+02  0.45594000000E+02  0.51100000000E-03 0. -1.
    9900012    2    1    2    0    0 -0.23152578237E+02  0.26097603213E+02 -0.25816592873E+02  0.47787271434E+02  0.20000001776E+02 0.  0.
        -12    1    1    2    0    0  0.23152578237E+02 -0.26097603213E+02  0.25816592873E+02  0.43400728566E+02  0.00000000000E+00 0.  1.
         11    1    3    3    0    0 -0.17992562702E+02  0.19054637215E+02 -0.26167695134E+02  0.37034575478E+02  0.51100000000E-03 0. -1.
        -11    1    3    3    0    0 -0.49254604756E+01  0.17847012114E+01  0.13157667118E+01  0.54015332649E+01  0.51100000000E-03 0.  1.
        -12    1    3    3    0    0 -0.23455506002E+00  0.52582647865E+01 -0.96466445084E+00  0.53511626908E+01  0.00000000000E+00 0.  1.
</event>
<event>
 7    1  0.2740409E-010  0.4778727E+02  0.7816164E-02  0.1312668E+00
        -11   -1    0    0    0    0  0.00000000000E+00  0.00000000000E+00  0.45593999997E+02  0.45594000000E+02  0.51100000000E-03 0.  1.
         11   -1    0    0    0    0 -0.00000000000E+00 -0.00000000000E+00 -0.45593999997E+02  0.45594000000E+02  0.51100000000E-03 0. -1.
    9900012    2    1    2    0    0  0.14694130306E+01  0.41207005508E+02  0.13544269991E+02  0.47787265822E+02  0.19999976189E+02 0.  0.
        -12    1    1    2    0    0 -0.14694130306E+01 -0.41207005508E+02 -0.13544269991E+02  0.43400734178E+02  0.00000000000E+00 0.  1.
         11    1    3    3    0    0 -0.59216025353E+01  0.26873871508E+02  0.84058039864E+01  0.28773736069E+02  0.51100000000E-03 0. -1.
        -11    1    3    3    0    0  0.21781721972E+01  0.88930382160E+01  0.66663822567E+01  0.11325688301E+02  0.51100000000E-03 0.  1.
         12    1    3    3    0    0  0.52128433687E+01  0.54400957841E+01 -0.15279162525E+01  0.76878414527E+01  0.00000000000E+00 0. -1.
</event>
<event>
 7    1  0.2740409E-010  0.4778728E+02  0.7816164E-02  0.1312668E+00
        -11   -1    0    0    0    0  0.00000000000E+00  0.00000000000E+00  0.45593999997E+02  0.45594000000E+02  0.51100000000E-03 0. -1.
         11   -1    0    0    0    0 -0.00000000000E+00 -0.00000000000E+00 -0.45593999997E+02  0.45594000000E+02  0.51100000000E-03 0.  1.
    9900012    2    1    2    0    0  0.30599909449E+02 -0.71623052057E+01  0.29932755493E+02  0.47787275058E+02  0.20000018298E+02 0.  0.
        -12    1    1    2    0    0 -0.30599909449E+02  0.71623052057E+01 -0.29932755493E+02  0.43400724942E+02  0.00000000000E+00 0.  1.
         11    1    3    3    0    0  0.17387624061E+02  0.35775128650E+01  0.11115951693E+02  0.20944986299E+02  0.51100000000E-03 0. -1.
        -11    1    3    3    0    0  0.39143631101E+01  0.88801461704E+00  0.23854691891E+01  0.46691832295E+01  0.51100000000E-03 0.  1.
         12    1    3    3    0    0  0.92979222776E+01 -0.11627832688E+02  0.16431334611E+02  0.22173105529E+02  0.00000000000E+00 0. -1.
</event>
<event>
 7    1  0.2740409E-010  0.4778726E+02  0.7816164E-02  0.1312668E+00
        -11   -1    0    0    0    0  0.00000000000E+00  0.00000000000E+00  0.45593999997E+02  0.45594000000E+02  0.51100000000E-03 0.  1.
         11   -1    0    0    0    0 -0.00000000000E+00 -0.00000000000E+00 -0.45593999997E+02  0.45594000000E+02  0.51100000000E-03 0. -1.
    9900012    2    1    2    0    0  0.23117599267E+02 -0.36179312815E+02 -0.63449299888E+01  0.47787260281E+02  0.19999950923E+02 0.  0.
        -12    1    1    2    0    0 -0.23117599267E+02  0.36179312815E+02  0.63449299888E+01  0.43400739719E+02  0.00000000000E+00 0.  1.
         11    1    3    3    0    0  0.51413927397E+01 -0.48733071971E+01 -0.18835790053E+01  0.73301372751E+01  0.51100000000E-03 0. -1.
        -11    1    3    3    0    0  0.70104031071E+01 -0.26592315891E+02 -0.67184127260E+01  0.28309611195E+02  0.51100000000E-03 0.  1.
        -12    1    3    3    0    0  0.10965803420E+02 -0.47136897269E+01  0.22570617425E+01  0.12147511811E+02  0.00000000000E+00 0.  1.
</event>
<event>
 7    1  0.2740409E-010  0.4778728E+02  0.7816164E-02  0.1312668E+00
        -11   -1    0    0    0    0  0.00000000000E+00  0.00000000000E+00  0.45593999997E+02  0.45594000000E+02  0.51100000000E-03 0.  1.
         11   -1    0    0    0    0 -0.00000000000E+00 -0.00000000000E+00 -0.45593999997E+02  0.45594000000E+02  0.51100000000E-03 0. -1.
    9900012    2    1    2    0    0  0.28963526521E+02 -0.67008267837E+01 -0.31620171192E+02  0.47787283712E+02  0.20000057755E+02 0.  0.
        -12    1    1    2    0    0 -0.28963526521E+02  0.67008267837E+01  0.31620171192E+02  0.43400716288E+02  0.00000000000E+00 0.  1.
         11    1    3    3    0    0  0.12842042944E+02 -0.42905515209E+01 -0.25535967504E+02  0.28903503870E+02  0.51100000000E-03 0. -1.
        -11    1    3    3    0    0  0.15578306144E+02 -0.99092683021E+00 -0.70021291917E+01  0.17108342169E+02  0.51100000000E-03 0.  1.
        -12    1    3    3    0    0  0.54317743269E+00 -0.14193484326E+01  0.91792550385E+00  0.17754376720E+01  0.00000000000E+00 0.  1.
</event>
<event>
 7    1  0.2740409E-010  0.4778727E+02  0.7816164E-02  0.1312668E+00
        -11   -1    0    0    0    0  0.00000000000E+00  0.00000000000E+00  0.45593999997E+02  0.45594000000E+02  0.51100000000E-03 0.  1.
         11   -1    0    0    0    0 -0.00000000000E+00 -0.00000000000E+00 -0.45593999997E+02  0.45594000000E+02  0.51100000000E-03 0. -1.
    9900012    2    1    2    0    0  0.36539206698E+02 -0.14946105066E+02 -0.18031183092E+02  0.47787271360E+02  0.20000001441E+02 0.  0.
        -12    1    1    2    0    0 -0.36539206698E+02  0.14946105066E+02  0.18031183092E+02  0.43400728640E+02  0.00000000000E+00 0.  1.
         11    1    3    3    0    0  0.18020017422E+02 -0.65627848382E+00 -0.12349244977E+02  0.21855333013E+02  0.51100000000E-03 0.  1.
        -11    1    3    3    0    0  0.28693758684E+01  0.72337974385E+00 -0.27650557513E+01  0.40499542833E+01  0.51100000000E-03 0. -1.
         12    1    3    3    0    0  0.15649813407E+02 -0.15013206326E+02 -0.29168823639E+01  0.21881984064E+02  0.00000000000E+00 0. -1.
</event>
<event>
 7    1  0.2740409E-010  0.4778726E+02  0.7816164E-02  0.1312668E+00
        -11   -1    0    0    0    0  0.00000000000E+00  0.00000000000E+00  0.45593999997E+02  0.45594000000E+02  0.51100000000E-03 0.  1.
         11   -1    0    0    0    0 -0.00000000000E+00 -0.00000000000E+00 -0.45593999997E+02  0.45594000000E+02  0.51100000000E-03 0. -1.
    9900012    2    1    2    0    0 -0.15041591593E+02  0.14446024884E+02 -0.38061620408E+02  0.47787261980E+02  0.19999958671E+02 0.  0.
        -12    1    1    2    0    0  0.15041591593E+02 -0.14446024884E+02  0.38061620408E+02  0.43400738020E+02  0.00000000000E+00 0.  1.
         11    1    3    3    0    0 -0.43872023384E+01 -0.30172004860E+01 -0.36571037631E+01  0.64595240789E+01  0.51100000000E-03 0.  1.
        -11    1    3    3    0    0 -0.87628145508E+00  0.11052315893E+02 -0.14651124653E+02  0.18373268889E+02  0.51100000000E-03 0. -1.
         12    1    3    3    0    0 -0.97781077991E+01  0.64109094769E+01 -0.19753391992E+02  0.22954469012E+02  0.00000000000E+00 0. -1.
</event>
<event>
 7    1  0.2740409E-010  0.4778727E+02  0.7816164E-02  0.1312668E+00
        -11   -1    0    0    0    0  0.00000000000E+00  0.00000000000E+00  0.45593999997E+02  0.45594000000E+02  0.51100000000E-03 0.  1.
         11   -1    0    0    0    0 -0.00000000000E+00 -0.00000000000E+00 -0.45593999997E+02  0.45594000000E+02  0.51100000000E-03 0. -1.
    9900012    2    1    2    0    0  0.18396320738E+01  0.17369818824E+02 -0.39730699104E+02  0.47787270704E+02  0.19999998447E+02 0.  0.
        -12    1    1    2    0    0 -0.18396320738E+01 -0.17369818824E+02  0.39730699104E+02  0.43400729296E+02  0.00000000000E+00 0.  1.
         11    1    3    3    0    0  0.51934236512E+00  0.88942458330E+00  0.19551244178E+01  0.22098199772E+01  0.51100000000E-03 0. -1.
        -11    1    3    3    0    0 -0.21595436616E+01  0.53173675610E+01 -0.74784391072E+01  0.94268275866E+01  0.51100000000E-03 0.  1.
         12    1    3    3    0    0  0.34798333702E+01  0.11163026679E+02 -0.34207384415E+02  0.36150623140E+02  0.00000000000E+00 0. -1.
</event>
<event>
 7    1  0.2740409E-010  0.4778727E+02  0.7816164E-02  0.1312668E+00
        -11   -1    0    0    0    0  0.00000000000E+00  0.00000000000E+00  0.45593999997E+02  0.45594000000E+02  0.51100000000E-03 0. -1.
         11   -1    0    0    0    0 -0.00000000000E+00 -0.00000000000E+00 -0.45593999997E+02  0.45594000000E+02  0.51100000000E-03 0.  1.
    9900012    2    1    2    0    0 -0.36559938518E+02 -0.20292380740E+01 -0.23299702063E+02  0.47787273879E+02  0.20000012923E+02 0.  0.
        -12    1    1    2    0    0  0.36559938518E+02  0.20292380740E+01  0.23299702063E+02  0.43400726121E+02  0.00000000000E+00 0.  1.
         11    1    3    3    0    0 -0.14662332802E+02 -0.17909797798E+01 -0.48916325031E+01  0.15560195390E+02  0.51100000000E-03 0. -1.
        -11    1    3    3    0    0 -0.12725529128E+01  0.31454717126E+01 -0.83884817116E+01  0.90487573124E+01  0.51100000000E-03 0.  1.
        -12    1    3    3    0    0 -0.20625052804E+02 -0.33837300068E+01 -0.10019587849E+02  0.23178321177E+02  0.00000000000E+00 0.  1.
</event>
<event>
 7    1  0.2740409E-010  0.4778727E+02  0.7816164E-02  0.1312668E+00
        -11   -1    0    0    0    0  0.00000000000E+00  0.00000000000E+00  0.45593999997E+02  0.45594000000E+02  0.51100000000E-03 0.  1.
         11   -1    0    0    0    0 -0.00000000000E+00 -0.00000000000E+00 -0.45593999997E+02  0.45594000000E+02  0.51100000000E-03 0. -1.
    9900012    2    1    2    0    0 -0.17822645336E+02 -0.17223046804E+02 -0.35627842117E+02  0.47787272334E+02  0.20000005882E+02 0.  0.
        -12    1    1    2    0    0  0.17822645336E+02  0.17223046804E+02  0.35627842117E+02  0.43400727666E+02  0.00000000000E+00 0.  1.
         11    1    3    3    0    0  0.91214180227E+00 -0.49938117077E+01 -0.12932478590E+02  0.13893133584E+02  0.51100000000E-03 0. -1.
        -11    1    3    3    0    0 -0.17889986672E+02 -0.13541944828E+02 -0.17458260025E+02  0.28429328804E+02  0.51100000000E-03 0.  1.
        -12    1    3    3    0    0 -0.84480046579E+00  0.13127097317E+01 -0.52371035015E+01  0.54648099465E+01  0.00000000000E+00 0.  1.
</event>
<event>
 7    1  0.2740409E-010  0.4778726E+02  0.7816164E-02  0.1312668E+00
        -11   -1    0    0    0    0  0.00000000000E+00  0.00000000000E+00  0.45593999997E+02  0.45594000000E+02  0.51100000000E-03 0.  1.
         11   -1    0    0    0    0 -0.00000000000E+00 -0.00000000000E+00 -0.45593999997E+02  0.45594000000E+02  0.51100000000E-03 0. -1.
    9900012    2    1    2    0    0 -0.12538643995E+02  0.19627641822E+02 -0.36621887035E+02  0.47787256611E+02  0.19999934192E+02 0.  0.
        -12    1    1    2    0    0  0.12538643995E+02 -0.19627641822E+02  0.36621887035E+02  0.43400743389E+02  0.00000000000E+00 0.  1.
         11    1    3    3    0    0 -0.48391965489E+01  0.19576249486E+02 -0.32699508891E+02  0.38417512272E+02  0.51100000000E-03 0. -1.
        -11    1    3    3    0    0 -0.29596846166E+01  0.12765268001E+01 -0.21794428958E+00  0.32305964891E+01  0.51100000000E-03 0.  1.
         12    1    3    3    0    0 -0.47397628299E+01 -0.12251344648E+01 -0.37044338543E+01  0.61391478498E+01  0.00000000000E+00 0. -1.
</event>
<event>
 7    1  0.2740409E-010  0.4778727E+02  0.7816164E-02  0.1312668E+00
        -11   -1    0    0    0    0  0.00000000000E+00  0.00000000000E+00  0.45593999997E+02  0.45594000000E+02  0.51100000000E-03 0.  1.
         11   -1    0    0    0    0 -0.00000000000E+00 -0.00000000000E+00 -0.45593999997E+02  0.45594000000E+02  0.51100000000E-03 0. -1.
    9900012    2    1    2    0    0 -0.15264444852E+02  0.21917431713E+02 -0.34208860269E+02  0.47787271775E+02  0.20000003333E+02 0.  0.
        -12    1    1    2    0    0  0.15264444852E+02 -0.21917431713E+02  0.34208860269E+02  0.43400728225E+02  0.00000000000E+00 0.  1.
         11    1    3    3    0    0 -0.65267767677E+01  0.38774049066E+01 -0.30692413855E+01  0.81886095724E+01  0.51100000000E-03 0. -1.
        -11    1    3    3    0    0  0.34938198093E+01  0.58295113455E+01 -0.12149574002E+02  0.13921283277E+02  0.51100000000E-03 0.  1.
        -12    1    3    3    0    0 -0.12231487894E+02  0.12210515461E+02 -0.18990044881E+02  0.25677378926E+02  0.00000000000E+00 0.  1.
</event>
<event>
 7    1  0.2740409E-010  0.4778727E+02  0.7816164E-02  0.1312668E+00
        -11   -1    0    0    0    0  0.00000000000E+00  0.00000000000E+00  0.45593999997E+02  0.45594000000E+02  0.51100000000E-03 0. -1.
         11   -1    0    0    0    0 -0.00000000000E+00 -0.00000000000E+00 -0.45593999997E+02  0.45594000000E+02  0.51100000000E-03 0.  1.
    9900012    2    1    2    0    0  0.89185739367E+01 -0.16086385085E+02  0.39310438408E+02  0.47787270582E+02  0.19999997891E+02 0.  0.
        -12    1    1    2    0    0 -0.89185739367E+01  0.16086385085E+02 -0.39310438408E+02  0.43400729418E+02  0.00000000000E+00 0.  1.
         11    1    3    3    0    0  0.40865208539E+00 -0.51310998101E+01  0.16687884823E+02  0.17463696113E+02  0.51100000000E-03 0. -1.
        -11    1    3    3    0    0  0.69733452117E+01 -0.14579589305E+02  0.16960851845E+02  0.23427813883E+02  0.51100000000E-03 0.  1.
        -12    1    3    3    0    0  0.15365766397E+01  0.36243040300E+01  0.56617017401E+01  0.68957605864E+01  0.00000000000E+00 0.  1.
</event>
<event>
 7    1  0.2740409E-010  0.4778727E+02  0.7816164E-02  0.1312668E+00
        -11   -1    0    0    0    0  0.00000000000E+00  0.00000000000E+00  0.45593999997E+02  0.45594000000E+02  0.51100000000E-03 0.  1.
         11   -1    0    0    0    0 -0.00000000000E+00 -0.00000000000E+00 -0.45593999997E+02  0.45594000000E+02  0.51100000000E-03 0. -1.
    9900012    2    1    2    0    0  0.73605133152E+01  0.17268849463E+02 -0.39130969115E+02  0.47787273486E+02  0.20000011134E+02 0.  0.
        -12    1    1    2    0    0 -0.73605133152E+01 -0.17268849463E+02  0.39130969115E+02  0.43400726514E+02  0.00000000000E+00 0.  1.
         11    1    3    3    0    0  0.95155934815E+01  0.71154609015E+01 -0.10923676196E+02  0.16140105484E+02  0.51100000000E-03 0. -1.
        -11    1    3    3    0    0  0.13815842106E+01  0.50685543010E+01 -0.38459983952E+01  0.65108157362E+01  0.51100000000E-03 0.  1.
         12    1    3    3    0    0 -0.35366643769E+01  0.50848342604E+01 -0.24361294524E+02  0.25136352266E+02  0.00000000000E+00 0. -1.
</event>
<event>
 7    1  0.2740409E-010  0.4778727E+02  0.7816164E-02  0.1312668E+00
        -11   -1    0    0    0    0  0.00000000000E+00  0.00000000000E+00  0.45593999997E+02  0.45594000000E+02  0.51100000000E-03 0. -1.
         11   -1    0    0    0    0 -0.00000000000E+00 -0.00000000000E+00 -0.45593999997E+02  0.45594000000E+02  0.51100000000E-03 0.  1.
    9900012    2    1    2    0    0 -0.38580453912E+02 -0.19802035533E+02  0.17467129790E+01  0.47787273721E+02  0.20000012204E+02 0.  0.
        -12    1    1    2    0    0  0.38580453912E+02  0.19802035533E+02 -0.17467129790E+01  0.43400726279E+02  0.00000000000E+00 0.  1.
         11    1    3    3    0    0 -0.29344689429E+02 -0.12701569338E+02  0.84253073690E+01  0.33066999650E+02  0.51100000000E-03 0. -1.
        -11    1    3    3    0    0 -0.26696839851E+01 -0.26549865400E+00 -0.40967223249E+01  0.48970231961E+01  0.51100000000E-03 0.  1.
         12    1    3    3    0    0 -0.65660804980E+01 -0.68349675415E+01 -0.25818720651E+01  0.98232508754E+01  0.00000000000E+00 0. -1.
</event>
<event>
 7    1  0.2740409E-010  0.4778727E+02  0.7816164E-02  0.1312668E+00
        -11   -1    0    0    0    0  0.00000000000E+00  0.00000000000E+00  0.45593999997E+02  0.45594000000E+02  0.51100000000E-03 0.  1.
         11   -1    0    0    0    0 -0.00000000000E+00 -0.00000000000E+00 -0.45593999997E+02  0.45594000000E+02  0.51100000000E-03 0. -1.
    9900012    2    1    2    0    0 -0.37997290201E+02  0.35385976111E+01 -0.20671423210E+02  0.47787268748E+02  0.19999989531E+02 0.  0.
        -12    1    1    2    0    0  0.37997290201E+02 -0.35385976111E+01  0.20671423210E+02  0.43400731252E+02  0.00000000000E+00 0.  1.
         11    1    3    3    0    0 -0.22155272387E+02  0.29448740973E+01 -0.13748994004E+02  0.26240488074E+02  0.51100000000E-03 0. -1.
        -11    1    3    3    0    0 -0.11822471671E+02 -0.22408286840E+01  0.11565140509E+01  0.12088410756E+02  0.51100000000E-03 0.  1.
        -12    1    3    3    0    0 -0.40195461432E+01  0.28345521977E+01 -0.80789432570E+01  0.94583699182E+01  0.00000000000E+00 0.  1.
</event>
<event>
 7    1  0.2740409E-010  0.4778727E+02  0.7816164E-02  0.1312668E+00
        -11   -1    0    0    0    0  0.00000000000E+00  0.00000000000E+00  0.45593999997E+02  0.45594000000E+02  0.51100000000E-03 0.  1.
         11   -1    0    0    0    0 -0.00000000000E+00 -0.00000000000E+00 -0.45593999997E+02  0.45594000000E+02  0.51100000000E-03 0. -1.
    9900012    2    1    2    0    0  0.15074205352E+02 -0.70909061484E+01 -0.40076311742E+02  0.47787269823E+02  0.19999994432E+02 0.  0.
        -12    1    1    2    0    0 -0.15074205352E+02  0.70909061484E+01  0.40076311742E+02  0.43400730177E+02  0.00000000000E+00 0.  1.
         11    1    3    3    0    0  0.38909434352E-01 -0.20988528224E+01 -0.68001927305E+01  0.71168334635E+01  0.51100000000E-03 0. -1.
        -11    1    3    3    0    0 -0.21025447396E+01 -0.34941423376E+01 -0.15112849944E+02  0.15653368926E+02  0.51100000000E-03 0.  1.
        -12    1    3    3    0    0  0.17137840658E+02 -0.14979109884E+01 -0.18163269068E+02  0.25017067434E+02  0.00000000000E+00 0.  1.
</event>
<event>
 7    1  0.2740409E-010  0.4778728E+02  0.7816164E-02  0.1312668E+00
        -11   -1    0    0    0    0  0.00000000000E+00  0.00000000000E+00  0.45593999997E+02  0.45594000000E+02  0.51100000000E-03 0.  1.
         11   -1    0    0    0    0 -0.00000000000E+00 -0.00000000000E+00 -0.45593999997E+02  0.45594000000E+02  0.51100000000E-03 0. -1.
    9900012    2    1    2    0    0 -0.34765085193E+02 -0.73685479571E+01 -0.24914177886E+02  0.47787275268E+02  0.20000019259E+02 0.  0.
        -12    1    1    2    0    0  0.34765085193E+02  0.73685479571E+01  0.24914177886E+02  0.43400724732E+02  0.00000000000E+00 0.  1.
         11    1    3    3    0    0 -0.14075629773E+02 -0.11797267179E+02 -0.13657824615E+02  0.22887442842E+02  0.51100000000E-03 0. -1.
        -11    1    3    3    0    0 -0.10469987260E+02  0.14191323531E+01 -0.19293220124E+01  0.10740430789E+02  0.51100000000E-03 0.  1.
         12    1    3    3    0    0 -0.10219468161E+02  0.30095868683E+01 -0.93270312586E+01  0.14159401637E+02  0.00000000000E+00 0. -1.
</event>
<event>
 7    1  0.2740409E-010  0.4778724E+02  0.7816164E-02  0.1312668E+00
        -11   -1    0    0    0    0  0.00000000000E+00  0.00000000000E+00  0.45593999997E+02  0.45594000000E+02  0.51100000000E-03 0.  1.
         11   -1    0    0    0    0 -0.00000000000E+00 -0.00000000000E+00 -0.45593999997E+02  0.45594000000E+02  0.51100000000E-03 0. -1.
    9900012    2    1    2    0    0 -0.27510313672E+02 -0.12641772718E+02 -0.31096534996E+02  0.47787236590E+02  0.19999842908E+02 0.  0.
        -12    1    1    2    0    0  0.27510313672E+02  0.12641772718E+02  0.31096534996E+02  0.43400763410E+02  0.00000000000E+00 0.  1.
         11    1    3    3    0    0 -0.24498592100E+01 -0.31858827845E+01 -0.47809946360E+01  0.62457641034E+01  0.51100000000E-03 0. -1.
        -11    1    3    3    0    0 -0.24075245628E+02 -0.13216029467E+02 -0.19456673822E+02  0.33657733783E+02  0.51100000000E-03 0.  1.
        -12    1    3    3    0    0 -0.98520883386E+00  0.37601395335E+01 -0.68588665381E+01  0.78837387035E+01  0.00000000000E+00 0.  1.
</event>
<event>
 7    1  0.2740409E-010  0.4778727E+02  0.7816164E-02  0.1312668E+00
        -11   -1    0    0    0    0  0.00000000000E+00  0.00000000000E+00  0.45593999997E+02  0.45594000000E+02  0.51100000000E-03 0.  1.
         11   -1    0    0    0    0 -0.00000000000E+00 -0.00000000000E+00 -0.45593999997E+02  0.45594000000E+02  0.51100000000E-03 0. -1.
    9900012    2    1    2    0    0  0.24747475021E+02 -0.13556515502E+02 -0.32975851340E+02  0.47787269544E+02  0.19999993159E+02 0.  0.
        -12    1    1    2    0    0 -0.24747475021E+02  0.13556515502E+02  0.32975851340E+02  0.43400730456E+02  0.00000000000E+00 0.  1.
         11    1    3    3    0    0  0.19231097726E+02 -0.83752982013E+01 -0.14855973373E+02  0.25703709554E+02  0.51100000000E-03 0.  1.
        -11    1    3    3    0    0 -0.63386784194E+00 -0.61755218200E+01 -0.10930085797E+02  0.12570029196E+02  0.51100000000E-03 0. -1.
         12    1    3    3    0    0  0.61502451367E+01  0.99430451890E+00 -0.71897921702E+01  0.95135307940E+01  0.00000000000E+00 0. -1.
</event>
<event>
 7    1  0.2740409E-010  0.4778727E+02  0.7816164E-02  0.1312668E+00
        -11   -1    0    0    0    0  0.00000000000E+00  0.00000000000E+00  0.45593999997E+02  0.45594000000E+02  0.51100000000E-03 0.  1.
         11   -1    0    0    0    0 -0.00000000000E+00 -0.00000000000E+00 -0.45593999997E+02  0.45594000000E+02  0.51100000000E-03 0. -1.
    9900012    2    1    2    0    0 -0.10061110140E+02 -0.38834736242E+02 -0.16560818558E+02  0.47787269735E+02  0.19999994029E+02 0.  0.
        -12    1    1    2    0    0  0.10061110140E+02  0.38834736242E+02  0.16560818558E+02  0.43400730265E+02  0.00000000000E+00 0.  1.
         11    1    3    3    0    0 -0.83052343892E+01 -0.26895472238E+02 -0.11097620235E+02  0.30257239139E+02  0.51100000000E-03 0. -1.
        -11    1    3    3    0    0  0.95553737162E+00 -0.12071363715E+02 -0.74036973962E+01  0.14193153596E+02  0.51100000000E-03 0.  1.
         12    1    3    3    0    0 -0.27114131225E+01  0.13209971173E+00  0.19404990734E+01  0.33368769993E+01  0.00000000000E+00 0. -1.
</event>
<event>
 7    1  0.2740409E-010  0.4778727E+02  0.7816164E-02  0.1312668E+00
        -11   -1    0    0    0    0  0.00000000000E+00  0.00000000000E+00  0.45593999997E+02  0.45594000000E+02  0.51100000000E-03 0. -1.
         11   -1    0    0    0    0 -0.00000000000E+00 -0.00000000000E+00 -0.45593999997E+02  0.45594000000E+02  0.51100000000E-03 0.  1.
    9900012    2    1    2    0    0 -0.11701297363E+02 -0.11104490957E+02  0.40291354770E+02  0.47787270184E+02  0.19999996075E+02 0.  0.
        -12    1    1    2    0    0  0.11701297363E+02  0.11104490957E+02 -0.40291354770E+02  0.43400729816E+02  0.00000000000E+00 0.  1.
         11    1    3    3    0    0 -0.20989673871E+01  0.12618253147E+01  0.10310334458E+02  0.10597210204E+02  0.51100000000E-03 0. -1.
        -11    1    3    3    0    0 -0.16758256788E+00 -0.11788219706E+02  0.21355733324E+02  0.24393801545E+02  0.51100000000E-03 0.  1.
        -12    1    3    3    0    0 -0.94347474084E+01 -0.57809656636E+00  0.86252869882E+01  0.12796258435E+02  0.00000000000E+00 0.  1.
</event>
<event>
 7    1  0.2740409E-010  0.4778727E+02  0.7816164E-02  0.1312668E+00
        -11   -1    0    0    0    0  0.00000000000E+00  0.00000000000E+00  0.45593999997E+02  0.45594000000E+02  0.51100000000E-03 0.  1.
         11   -1    0    0    0    0 -0.00000000000E+00 -0.00000000000E+00 -0.45593999997E+02  0.45594000000E+02  0.51100000000E-03 0. -1.
    9900012    2    1    2    0    0 -0.28710319289E+02  0.25599988588E+02 -0.20099289941E+02  0.47787270680E+02  0.19999998338E+02 0.  0.
        -12    1    1    2    0    0  0.28710319289E+02 -0.25599988588E+02  0.20099289941E+02  0.43400729320E+02  0.00000000000E+00 0.  1.
         11    1    3    3    0    0  0.24386066759E+00  0.85465410582E+01 -0.32567213986E+01  0.91492659057E+01  0.51100000000E-03 0.  1.
        -11    1    3    3    0    0 -0.20781008570E+02  0.14598018946E+02 -0.87059358217E+01  0.26846709167E+02  0.51100000000E-03 0. -1.
         12    1    3    3    0    0 -0.81731713873E+01  0.24554285836E+01 -0.81366327211E+01  0.11791295607E+02  0.00000000000E+00 0. -1.
</event>
<event>
 7    1  0.2740409E-010  0.4778727E+02  0.7816164E-02  0.1312668E+00
        -11   -1    0    0    0    0  0.00000000000E+00  0.00000000000E+00  0.45593999997E+02  0.45594000000E+02  0.51100000000E-03 0.  1.
         11   -1    0    0    0    0 -0.00000000000E+00 -0.00000000000E+00 -0.45593999997E+02  0.45594000000E+02  0.51100000000E-03 0. -1.
    9900012    2    1    2    0    0  0.28296471968E+02 -0.26444817540E+02 -0.19585831844E+02  0.47787268329E+02  0.19999987618E+02 0.  0.
        -12    1    1    2    0    0 -0.28296471968E+02  0.26444817540E+02  0.19585831844E+02  0.43400731671E+02  0.00000000000E+00 0.  1.
         11    1    3    3    0    0  0.18610953175E+02 -0.87823560991E+01 -0.30904964640E+01  0.20809818005E+02  0.51100000000E-03 0. -1.
        -11    1    3    3    0    0  0.83187926151E+00 -0.65993475980E+01 -0.81986087097E+01  0.10557490083E+02  0.51100000000E-03 0.  1.
         12    1    3    3    0    0  0.88536395319E+01 -0.11063113843E+02 -0.82967266708E+01  0.16419960241E+02  0.00000000000E+00 0. -1.
</event>
<event>
 7    1  0.2740409E-010  0.4778727E+02  0.7816164E-02  0.1312668E+00
        -11   -1    0    0    0    0  0.00000000000E+00  0.00000000000E+00  0.45593999997E+02  0.45594000000E+02  0.51100000000E-03 0. -1.
         11   -1    0    0    0    0 -0.00000000000E+00 -0.00000000000E+00 -0.45593999997E+02  0.45594000000E+02  0.51100000000E-03 0.  1.
    9900012    2    1    2    0    0 -0.24197682466E+02 -0.18957134875E+02  0.30638582899E+02  0.47787267731E+02  0.19999984892E+02 0.  0.
        -12    1    1    2    0    0  0.24197682466E+02  0.18957134875E+02 -0.30638582899E+02  0.43400732269E+02  0.00000000000E+00 0.  1.
         11    1    3    3    0    0 -0.13220703888E+02 -0.99283981123E+01  0.13929990518E+02  0.21619545241E+02  0.51100000000E-03 0. -1.
        -11    1    3    3    0    0 -0.68049724366E+01  0.12770763079E+01  0.11098690974E+01  0.70121596840E+01  0.51100000000E-03 0.  1.
        -12    1    3    3    0    0 -0.41720061422E+01 -0.10305813071E+02  0.15598723284E+02  0.19155562806E+02  0.00000000000E+00 0.  1.
</event>
<event>
 7    1  0.2740409E-010  0.4778726E+02  0.7816164E-02  0.1312668E+00
        -11   -1    0    0    0    0  0.00000000000E+00  0.00000000000E+00  0.45593999997E+02  0.45594000000E+02  0.51100000000E-03 0.  1.
         11   -1    0    0    0    0 -0.00000000000E+00 -0.00000000000E+00 -0.45593999997E+02  0.45594000000E+02  0.51100000000E-03 0. -1.
    9900012    2    1    2    0    0  0.29139953102E+02  0.20549892860E+02 -0.24742452529E+02  0.47787263595E+02  0.19999966035E+02 0.  0.
        -12    1    1    2    0    0 -0.29139953102E+02 -0.20549892860E+02  0.24742452529E+02  0.43400736405E+02  0.00000000000E+00 0.  1.
         11    1    3    3    0    0  0.14108064970E+02  0.12530281142E+02 -0.19961696740E+02  0.27468432421E+02  0.51100000000E-03 0. -1.
        -11    1    3    3    0    0  0.14808942134E+02  0.36656321378E+01 -0.27192661945E+01  0.15496323273E+02  0.51100000000E-03 0.  1.
        -12    1    3    3    0    0  0.22294599894E+00  0.43539795804E+01 -0.20614895942E+01  0.48225079006E+01  0.00000000000E+00 0.  1.
</event>
<event>
 7    1  0.2740409E-010  0.4778727E+02  0.7816164E-02  0.1312668E+00
        -11   -1    0    0    0    0  0.00000000000E+00  0.00000000000E+00  0.45593999997E+02  0.45594000000E+02  0.51100000000E-03 0.  1.
         11   -1    0    0    0    0 -0.00000000000E+00 -0.00000000000E+00 -0.45593999997E+02  0.45594000000E+02  0.51100000000E-03 0. -1.
    9900012    2    1    2    0    0  0.61252601187E+01  0.10752819365E+02 -0.41599055959E+02  0.47787269678E+02  0.19999993770E+02 0.  0.
        -12    1    1    2    0    0 -0.61252601187E+01 -0.10752819365E+02  0.41599055959E+02  0.43400730322E+02  0.00000000000E+00 0.  1.
         11    1    3    3    0    0  0.10539104159E+02  0.17133602501E+01 -0.18328863449E+02  0.21212155841E+02  0.51100000000E-03 0. -1.
        -11    1    3    3    0    0 -0.28263763065E+01  0.98353796190E+01 -0.15282023630E+02  0.18391936868E+02  0.51100000000E-03 0.  1.
         12    1    3    3    0    0 -0.15874677335E+01 -0.79592050440E+00 -0.79881688800E+01  0.81831769692E+01  0.00000000000E+00 0. -1.
</event>
<event>
 7    1  0.2740409E-010  0.4778727E+02  0.7816164E-02  0.1312668E+00
        -11   -1    0    0    0    0  0.00000000000E+00  0.00000000000E+00  0.45593999997E+02  0.45594000000E+02  0.51100000000E-03 0. -1.
         11   -1    0    0    0    0 -0.00000000000E+00 -0.00000000000E+00 -0.45593999997E+02  0.45594000000E+02  0.51100000000E-03 0.  1.
    9900012    2    1    2    0    0 -0.22862170876E+02  0.36098966304E+02  0.76032276245E+01  0.47787270794E+02  0.19999998857E+02 0.  0.
        -12    1    1    2    0    0  0.22862170876E+02 -0.36098966304E+02 -0.76032276245E+01  0.43400729206E+02  0.00000000000E+00 0.  1.
         11    1    3    3    0    0 -0.16312320033E+02  0.31322713606E+02  0.44472476221E+01  0.35594693202E+02  0.51100000000E-03 0. -1.
        -11    1    3    3    0    0 -0.35465323347E+01  0.66224303954E+01  0.40791510488E+01  0.85483302160E+01  0.51100000000E-03 0.  1.
         12    1    3    3    0    0 -0.30033185084E+01 -0.18461776976E+01 -0.92317104642E+00  0.36442473756E+01  0.00000000000E+00 0. -1.
</event>
<event>
 7    1  0.2740409E-010  0.4778727E+02  0.7816164E-02  0.1312668E+00
        -11   -1    0    0    0    0  0.00000000000E+00  0.00000000000E+00  0.45593999997E+02  0.45594000000E+02  0.51100000000E-03 0.  1.
         11   -1    0    0    0    0 -0.00000000000E+00 -0.00000000000E+00 -0.45593999997E+02  0.45594000000E+02  0.51100000000E-03 0. -1.
    9900012    2    1    2    0    0 -0.90863934814E+01  0.30004221236E+02 -0.30013457730E+02  0.47787268630E+02  0.19999988994E+02 0.  0.
        -12    1    1    2    0    0  0.90863934814E+01 -0.30004221236E+02  0.30013457730E+02  0.43400731370E+02  0.00000000000E+00 0.  1.
         11    1    3    3    0    0 -0.10170287661E+01  0.82484552620E+01 -0.19175332937E+02  0.20898917561E+02  0.51100000000E-03 0. -1.
        -11    1    3    3    0    0 -0.40116102731E+00  0.38488344310E+01  0.11231720130E+01  0.40293885738E+01  0.51100000000E-03 0.  1.
         12    1    3    3    0    0 -0.76682036880E+01  0.17906931543E+02 -0.11961296806E+02  0.22858962496E+02  0.00000000000E+00 0. -1.
</event>
<event>
 7    1  0.2740409E-010  0.4778727E+02  0.7816164E-02  0.1312668E+00
        -11   -1    0    0    0    0  0.00000000000E+00  0.00000000000E+00  0.45593999997E+02  0.45594000000E+02  0.51100000000E-03 0. -1.
         11   -1    0    0    0    0 -0.00000000000E+00 -0.00000000000E+00 -0.45593999997E+02  0.45594000000E+02  0.51100000000E-03 0.  1.
    9900012    2    1    2    0    0  0.13938676787E+02 -0.23634323885E+02  0.33626706196E+02  0.47787270218E+02  0.19999996230E+02 0.  0.
        -12    1    1    2    0    0 -0.13938676787E+02  0.23634323885E+02 -0.33626706196E+02  0.43400729782E+02  0.00000000000E+00 0.  1.
         11    1    3    3    0    0  0.94004874809E+01 -0.67101413218E+01  0.14352845347E+02  0.18422793796E+02  0.51100000000E-03 0. -1.
        -11    1    3    3    0    0 -0.72981952950E+00 -0.15832305458E+02  0.17700292860E+02  0.23759101419E+02  0.51100000000E-03 0.  1.
        -12    1    3    3    0    0  0.52680088355E+01 -0.10918771054E+01  0.15735679896E+01  0.56053750028E+01  0.00000000000E+00 0.  1.
</event>
<event>
 7    1  0.2740409E-010  0.4778727E+02  0.7816164E-02  0.1312668E+00
        -11   -1    0    0    0    0  0.00000000000E+00  0.00000000000E+00  0.45593999997E+02  0.45594000000E+02  0.51100000000E-03 0.  1.
         11   -1    0    0    0    0 -0.00000000000E+00 -0.00000000000E+00 -0.45593999997E+02  0.45594000000E+02  0.51100000000E-03 0. -1.
    9900012    2    1    2    0    0  0.32435919285E+02  0.25802622704E+02  0.12874742164E+02  0.47787272079E+02  0.20000004718E+02 0.  0.
        -12    1    1    2    0    0 -0.32435919285E+02 -0.25802622704E+02 -0.12874742164E+02  0.43400727921E+02  0.00000000000E+00 0.  1.
         11    1    3    3    0    0  0.44933780045E+01  0.13475170421E+02  0.58030651392E+01  0.15344257200E+02  0.51100000000E-03 0. -1.
        -11    1    3    3    0    0  0.66663886469E+01  0.50371793888E+01  0.52740942080E+01  0.98807886205E+01  0.51100000000E-03 0.  1.
         12    1    3    3    0    0  0.21276152633E+02  0.72902728945E+01  0.17975828171E+01  0.22562226258E+02  0.00000000000E+00 0. -1.
</event>
<event>
 7    1  0.2740409E-010  0.4778727E+02  0.7816164E-02  0.1312668E+00
        -11   -1    0    0    0    0  0.00000000000E+00  0.00000000000E+00  0.45593999997E+02  0.45594000000E+02  0.51100000000E-03 0. -1.
         11   -1    0    0    0    0 -0.00000000000E+00 -0.00000000000E+00 -0.45593999997E+02  0.45594000000E+02  0.51100000000E-03 0.  1.
    9900012    2    1    2    0    0 -0.41521604101E+02 -0.97004997370E+01 -0.80919497418E+01  0.47787274743E+02  0.20000016861E+02 0.  0.
        -12    1    1    2    0    0  0.41521604101E+02  0.97004997370E+01  0.80919497418E+01  0.43400725257E+02  0.00000000000E+00 0.  1.
         11    1    3    3    0    0 -0.12885451150E+02 -0.70269229986E+01  0.51541048058E+01  0.15555619395E+02  0.51100000000E-03 0. -1.
        -11    1    3    3    0    0 -0.27418056498E+02 -0.17303510317E+01 -0.11193941352E+02  0.29665607361E+02  0.51100000000E-03 0.  1.
         12    1    3    3    0    0 -0.12180964530E+01 -0.94322570675E+00 -0.20521131953E+01  0.25660479865E+01  0.00000000000E+00 0. -1.
</event>
<event>
 7    1  0.2740409E-010  0.4778728E+02  0.7816164E-02  0.1312668E+00
        -11   -1    0    0    0    0  0.00000000000E+00  0.00000000000E+00  0.45593999997E+02  0.45594000000E+02  0.51100000000E-03 0.  1.
         11   -1    0    0    0    0 -0.00000000000E+00 -0.00000000000E+00 -0.45593999997E+02  0.45594000000E+02  0.51100000000E-03 0. -1.
    9900012    2    1    2    0    0 -0.27961338739E+02  0.32518836198E+02  0.66566644490E+01  0.47787281649E+02  0.20000048351E+02 0.  0.
        -12    1    1    2    0    0  0.27961338739E+02 -0.32518836198E+02 -0.66566644490E+01  0.43400718351E+02  0.00000000000E+00 0.  1.
         11    1    3    3    0    0 -0.27114470768E+02  0.19058903279E+02  0.17264194433E+01  0.33187600750E+02  0.51100000000E-03 0. -1.
        -11    1    3    3    0    0 -0.18896725894E+00  0.56697689689E+01  0.34597672358E+01  0.66446955064E+01  0.51100000000E-03 0.  1.
         12    1    3    3    0    0 -0.65790071281E+00  0.77901639503E+01  0.14704777699E+01  0.79549853923E+01  0.00000000000E+00 0. -1.
</event>
<event>
 7    1  0.2740409E-010  0.4778727E+02  0.7816164E-02  0.1312668E+00
        -11   -1    0    0    0    0  0.00000000000E+00  0.00000000000E+00  0.45593999997E+02  0.45594000000E+02  0.51100000000E-03 0. -1.
         11   -1    0    0    0    0 -0.00000000000E+00 -0.00000000000E+00 -0.45593999997E+02  0.45594000000E+02  0.51100000000E-03 0.  1.
    9900012    2    1    2    0    0 -0.16318673540E+02 -0.13410508910E+01  0.40193606325E+02  0.47787268289E+02  0.19999987439E+02 0.  0.
        -12    1    1    2    0    0  0.16318673540E+02  0.13410508910E+01 -0.40193606325E+02  0.43400731711E+02  0.00000000000E+00 0.  1.
         11    1    3    3    0    0 -0.28182827100E+00  0.22365178452E+01  0.25067839255E+02  0.25168988943E+02  0.51100000000E-03 0. -1.
        -11    1    3    3    0    0 -0.12327566962E+02 -0.42596242136E+01  0.11573206472E+02  0.17437098782E+02  0.51100000000E-03 0.  1.
         12    1    3    3    0    0 -0.37092783068E+01  0.68205547745E+00  0.35525605987E+01  0.51811805643E+01  0.00000000000E+00 0. -1.
</event>
<event>
 7    1  0.2740409E-010  0.4778727E+02  0.7816164E-02  0.1312668E+00
        -11   -1    0    0    0    0  0.00000000000E+00  0.00000000000E+00  0.45593999997E+02  0.45594000000E+02  0.51100000000E-03 0. -1.
         11   -1    0    0    0    0 -0.00000000000E+00 -0.00000000000E+00 -0.45593999997E+02  0.45594000000E+02  0.51100000000E-03 0.  1.
    9900012    2    1    2    0    0  0.30292986881E+02  0.30952825299E+02  0.28072323391E+01  0.47787274182E+02  0.20000014304E+02 0.  0.
        -12    1    1    2    0    0 -0.30292986881E+02 -0.30952825299E+02 -0.28072323391E+01  0.43400725818E+02  0.00000000000E+00 0.  1.
         11    1    3    3    0    0 -0.95839783577E+00  0.68185796325E+01 -0.24797593480E+00  0.68900687182E+01  0.51100000000E-03 0.  1.
        -11    1    3    3    0    0  0.24752825334E+02  0.13248761762E+02  0.28266701408E+01  0.28217408007E+02  0.51100000000E-03 0. -1.
         12    1    3    3    0    0  0.64985593829E+01  0.10885483904E+02  0.22853813312E+00  0.12679797457E+02  0.00000000000E+00 0. -1.
</event>
<event>
 7    1  0.2740409E-010  0.4778727E+02  0.7816164E-02  0.1312668E+00
        -11   -1    0    0    0    0  0.00000000000E+00  0.00000000000E+00  0.45593999997E+02  0.45594000000E+02  0.51100000000E-03 0. -1.
         11   -1    0    0    0    0 -0.00000000000E+00 -0.00000000000E+00 -0.45593999997E+02  0.45594000000E+02  0.51100000000E-03 0.  1.
    9900012    2    1    2    0    0  0.40867924803E+01  0.17847486878E+02  0.39349569703E+02  0.47787270785E+02  0.19999998815E+02 0.  0.
        -12    1    1    2    0    0 -0.40867924803E+01 -0.17847486878E+02 -0.39349569703E+02  0.43400729215E+02  0.00000000000E+00 0.  1.
         11    1    3    3    0    0  0.71136864416E+01  0.12537553011E+02  0.29301479794E+02  0.32655343952E+02  0.51100000000E-03 0. -1.
        -11    1    3    3    0    0 -0.39251250457E+01 -0.19811189664E+00  0.35380041029E+00  0.39460144373E+01  0.51100000000E-03 0.  1.
        -12    1    3    3    0    0  0.89823108443E+00  0.55080457639E+01  0.96942894988E+01  0.11185912395E+02  0.00000000000E+00 0.  1.
</event>
<event>
 7    1  0.2740409E-010  0.4778727E+02  0.7816164E-02  0.1312668E+00
        -11   -1    0    0    0    0  0.00000000000E+00  0.00000000000E+00  0.45593999997E+02  0.45594000000E+02  0.51100000000E-03 0. -1.
         11   -1    0    0    0    0 -0.00000000000E+00 -0.00000000000E+00 -0.45593999997E+02  0.45594000000E+02  0.51100000000E-03 0.  1.
    9900012    2    1    2    0    0 -0.12429972984E+02 -0.38807435684E+02 -0.14936608732E+02  0.47787267596E+02  0.19999984277E+02 0.  0.
        -12    1    1    2    0    0  0.12429972984E+02  0.38807435684E+02  0.14936608732E+02  0.43400732404E+02  0.00000000000E+00 0.  1.
         11    1    3    3    0    0 -0.12459676426E+02 -0.21853324984E+02 -0.13827775194E+02  0.28705726199E+02  0.51100000000E-03 0.  1.
        -11    1    3    3    0    0  0.32492948927E+01 -0.33121211939E+01  0.13904579080E+01  0.48437008121E+01  0.51100000000E-03 0. -1.
         12    1    3    3    0    0 -0.32195914501E+01 -0.13641989506E+02 -0.24992914463E+01  0.14237840585E+02  0.00000000000E+00 0. -1.
</event>
<event>
 7    1  0.2740409E-010  0.4778727E+02  0.7816164E-02  0.1312668E+00
        -11   -1    0    0    0    0  0.00000000000E+00  0.00000000000E+00  0.45593999997E+02  0.45594000000E+02  0.51100000000E-03 0. -1.
         11   -1    0    0    0    0 -0.00000000000E+00 -0.00000000000E+00 -0.45593999997E+02  0.45594000000E+02  0.51100000000E-03 0.  1.
    9900012    2    1    2    0    0  0.15677592130E+02 -0.32773503389E+02  0.23743081640E+02  0.47787270223E+02  0.19999996256E+02 0.  0.
        -12    1    1    2    0    0 -0.15677592130E+02  0.32773503389E+02 -0.23743081640E+02  0.43400729777E+02  0.00000000000E+00 0.  1.
         11    1    3    3    0    0 -0.48654864891E+00 -0.18083408247E+00  0.12956353933E+01  0.13957442053E+01  0.51100000000E-03 0. -1.
        -11    1    3    3    0    0 -0.14565464318E+01 -0.67270520497E+01  0.11177958130E+02  0.13127128590E+02  0.51100000000E-03 0.  1.
        -12    1    3    3    0    0  0.17620687210E+02 -0.25865617257E+02  0.11269488116E+02  0.33264397428E+02  0.00000000000E+00 0.  1.
</event>
<event>
 7    1  0.2740409E-010  0.4778727E+02  0.7816164E-02  0.1312668E+00
        -11   -1    0    0    0    0  0.00000000000E+00  0.00000000000E+00  0.45593999997E+02  0.45594000000E+02  0.51100000000E-03 0.  1.
         11   -1    0    0    0    0 -0.00000000000E+00 -0.00000000000E+00 -0.45593999997E+02  0.45594000000E+02  0.51100000000E-03 0. -1.
    9900012    2    1    2    0    0 -0.67640126677E+01 -0.28085260104E+02 -0.32389653596E+02  0.47787270023E+02  0.19999995342E+02 0.  0.
        -12    1    1    2    0    0  0.67640126677E+01  0.28085260104E+02  0.32389653596E+02  0.43400729977E+02  0.00000000000E+00 0.  1.
         11    1    3    3    0    0  0.42991590617E+01 -0.19649211916E+02 -0.22318106777E+02  0.30044503456E+02  0.51100000000E-03 0. -1.
        -11    1    3    3    0    0 -0.60634373089E+01 -0.36853754809E+01 -0.25550388954E+01  0.75415839485E+01  0.51100000000E-03 0.  1.
        -12    1    3    3    0    0 -0.49997344205E+01 -0.47506727073E+01 -0.75165079236E+01  0.10201182618E+02  0.00000000000E+00 0.  1.
</event>
<event>
 7    1  0.2740409E-010  0.4778727E+02  0.7816164E-02  0.1312668E+00
        -11   -1    0    0    0    0  0.00000000000E+00  0.00000000000E+00  0.45593999997E+02  0.45594000000E+02  0.51100000000E-03 0.  1.
         11   -1    0    0    0    0 -0.00000000000E+00 -0.00000000000E+00 -0.45593999997E+02  0.45594000000E+02  0.51100000000E-03 0. -1.
    9900012    2    1    2    0    0  0.10027128008E+02 -0.11880637160E+02 -0.40520740773E+02  0.47787271110E+02  0.20000000298E+02 0.  0.
        -12    1    1    2    0    0 -0.10027128008E+02  0.11880637160E+02  0.40520740773E+02  0.43400728890E+02  0.00000000000E+00 0.  1.
         11    1    3    3    0    0  0.11114480330E+02 -0.84747540626E+01 -0.20236658017E+02  0.24594215934E+02  0.51100000000E-03 0. -1.
        -11    1    3    3    0    0  0.10399314766E+01 -0.34218439970E+01 -0.89373322367E+00  0.36863577081E+01  0.51100000000E-03 0.  1.
         12    1    3    3    0    0 -0.21272837994E+01  0.15960899983E-01 -0.19390349532E+02  0.19506697467E+02  0.00000000000E+00 0. -1.
</event>
<event>
 7    1  0.2740409E-010  0.4778727E+02  0.7816164E-02  0.1312668E+00
        -11   -1    0    0    0    0  0.00000000000E+00  0.00000000000E+00  0.45593999997E+02  0.45594000000E+02  0.51100000000E-03 0.  1.
         11   -1    0    0    0    0 -0.00000000000E+00 -0.00000000000E+00 -0.45593999997E+02  0.45594000000E+02  0.51100000000E-03 0. -1.
    9900012    2    1    2    0    0 -0.27519980875E+02 -0.10497439670E+02 -0.31875972664E+02  0.47787271662E+02  0.20000002815E+02 0.  0.
        -12    1    1    2    0    0  0.27519980875E+02  0.10497439670E+02  0.31875972664E+02  0.43400728338E+02  0.00000000000E+00 0.  1.
         11    1    3    3    0    0 -0.20969306062E+02 -0.33690545763E+00 -0.21486203198E+02  0.30024693672E+02  0.51100000000E-03 0. -1.
        -11    1    3    3    0    0 -0.30684305683E+01  0.48532065734E+00 -0.31585072983E+01  0.44302337305E+01  0.51100000000E-03 0.  1.
         12    1    3    3    0    0 -0.34822442451E+01 -0.10645854870E+02 -0.72312621683E+01  0.13332344259E+02  0.00000000000E+00 0. -1.
</event>
<event>
 7    1  0.2740409E-010  0.4778727E+02  0.7816164E-02  0.1312668E+00
        -11   -1    0    0    0    0  0.00000000000E+00  0.00000000000E+00  0.45593999997E+02  0.45594000000E+02  0.51100000000E-03 0.  1.
         11   -1    0    0    0    0 -0.00000000000E+00 -0.00000000000E+00 -0.45593999997E+02  0.45594000000E+02  0.51100000000E-03 0. -1.
    9900012    2    1    2    0    0 -0.37096867892E+02  0.87776759126E+01 -0.20746035460E+02  0.47787272021E+02  0.20000004453E+02 0.  0.
        -12    1    1    2    0    0  0.37096867892E+02 -0.87776759126E+01  0.20746035460E+02  0.43400727979E+02  0.00000000000E+00 0.  1.
         11    1    3    3    0    0 -0.25798927592E+02  0.11074616844E+02 -0.15951653067E+02  0.32290664888E+02  0.51100000000E-03 0. -1.
        -11    1    3    3    0    0 -0.44805575797E+01  0.31177281237E+01  0.19534374799E+00  0.54620311533E+01  0.51100000000E-03 0.  1.
         12    1    3    3    0    0 -0.68173827204E+01 -0.54146690548E+01 -0.49897261405E+01  0.10034575979E+02  0.00000000000E+00 0. -1.
</event>
<event>
 7    1  0.2740409E-010  0.4778727E+02  0.7816164E-02  0.1312668E+00
        -11   -1    0    0    0    0  0.00000000000E+00  0.00000000000E+00  0.45593999997E+02  0.45594000000E+02  0.51100000000E-03 0.  1.
         11   -1    0    0    0    0 -0.00000000000E+00 -0.00000000000E+00 -0.45593999997E+02  0.45594000000E+02  0.51100000000E-03 0. -1.
    9900012    2    1    2    0    0 -0.73250702918E+01 -0.42777606149E+02 -0.20773995049E+00  0.47787269609E+02  0.19999993455E+02 0.  0.
        -12    1    1    2    0    0  0.73250702918E+01  0.42777606149E+02  0.20773995049E+00  0.43400730391E+02  0.00000000000E+00 0.  1.
         11    1    3    3    0    0 -0.83213197888E+01 -0.27415287948E+02  0.28272913744E+01  0.28789511164E+02  0.51100000000E-03 0. -1.
        -11    1    3    3    0    0  0.12504286203E+01 -0.62982059257E+01 -0.66426149979E+01  0.92387934217E+01  0.51100000000E-03 0.  1.
        -12    1    3    3    0    0 -0.25417912335E+00 -0.90641122749E+01  0.36075836730E+01  0.97589650229E+01  0.00000000000E+00 0.  1.
</event>
<event>
 7    1  0.2740409E-010  0.4778728E+02  0.7816164E-02  0.1312668E+00
        -11   -1    0    0    0    0  0.00000000000E+00  0.00000000000E+00  0.45593999997E+02  0.45594000000E+02  0.51100000000E-03 0.  1.
         11   -1    0    0    0    0 -0.00000000000E+00 -0.00000000000E+00 -0.45593999997E+02  0.45594000000E+02  0.51100000000E-03 0. -1.
    9900012    2    1    2    0    0 -0.10738250329E+02  0.40589752975E+02  0.10990206085E+02  0.47787277696E+02  0.20000030326E+02 0.  0.
        -12    1    1    2    0    0  0.10738250329E+02 -0.40589752975E+02 -0.10990206085E+02  0.43400722304E+02  0.00000000000E+00 0.  1.
         11    1    3    3    0    0 -0.90694883740E+01  0.18842849270E+02  0.14599159588E+02  0.25503804597E+02  0.51100000000E-03 0. -1.
        -11    1    3    3    0    0 -0.14534138745E+01  0.17162378361E+02 -0.16818641535E+01  0.17305730559E+02  0.51100000000E-03 0.  1.
         12    1    3    3    0    0 -0.21534808071E+00  0.45845253450E+01 -0.19270893493E+01  0.49777425400E+01  0.00000000000E+00 0. -1.
</event>
<event>
 7    1  0.2740409E-010  0.4778727E+02  0.7816164E-02  0.1312668E+00
        -11   -1    0    0    0    0  0.00000000000E+00  0.00000000000E+00  0.45593999997E+02  0.45594000000E+02  0.51100000000E-03 0.  1.
         11   -1    0    0    0    0 -0.00000000000E+00 -0.00000000000E+00 -0.45593999997E+02  0.45594000000E+02  0.51100000000E-03 0. -1.
    9900012    2    1    2    0    0  0.32882843071E+02  0.27926585525E+02 -0.47379234631E+01  0.47787268828E+02  0.19999989893E+02 0.  0.
        -12    1    1    2    0    0 -0.32882843071E+02 -0.27926585525E+02  0.47379234631E+01  0.43400731172E+02  0.00000000000E+00 0.  1.
         11    1    3    3    0    0  0.22220783823E+02  0.24496059205E+02 -0.10161609554E+02  0.34598821645E+02  0.51100000000E-03 0. -1.
        -11    1    3    3    0    0  0.40007185527E+01  0.26340079066E-01  0.38326249879E+01  0.55403481205E+01  0.51100000000E-03 0.  1.
         12    1    3    3    0    0  0.66613406953E+01  0.34041862418E+01  0.15910611026E+01  0.76480990619E+01  0.00000000000E+00 0. -1.
</event>
<event>
 7    1  0.2740409E-010  0.4778725E+02  0.7816164E-02  0.1312668E+00
        -11   -1    0    0    0    0  0.00000000000E+00  0.00000000000E+00  0.45593999997E+02  0.45594000000E+02  0.51100000000E-03 0.  1.
         11   -1    0    0    0    0 -0.00000000000E+00 -0.00000000000E+00 -0.45593999997E+02  0.45594000000E+02  0.51100000000E-03 0. -1.
    9900012    2    1    2    0    0  0.12463733312E+00 -0.13049568218E+02 -0.41392251346E+02  0.47787248432E+02  0.19999896902E+02 0.  0.
        -12    1    1    2    0    0 -0.12463733312E+00  0.13049568218E+02  0.41392251346E+02  0.43400751568E+02  0.00000000000E+00 0.  1.
         11    1    3    3    0    0  0.53202219496E+01 -0.73793954841E+01 -0.74483855184E+01  0.11757494903E+02  0.51100000000E-03 0. -1.
        -11    1    3    3    0    0  0.97272813518E+00  0.16093482115E+01 -0.22581883363E+01  0.29386419507E+01  0.51100000000E-03 0.  1.
         12    1    3    3    0    0 -0.61683127517E+01 -0.72795209454E+01 -0.31685677492E+02  0.33091111578E+02  0.00000000000E+00 0. -1.
</event>
<event>
 7    1  0.2740409E-010  0.4778727E+02  0.7816164E-02  0.1312668E+00
        -11   -1    0    0    0    0  0.00000000000E+00  0.00000000000E+00  0.45593999997E+02  0.45594000000E+02  0.51100000000E-03 0. -1.
         11   -1    0    0    0    0 -0.00000000000E+00 -0.00000000000E+00 -0.45593999997E+02  0.45594000000E+02  0.51100000000E-03 0.  1.
    9900012    2    1    2    0    0  0.31450434029E+02 -0.13567167392E+02  0.26653802894E+02  0.47787273735E+02  0.20000012267E+02 0.  0.
        -12    1    1    2    0    0 -0.31450434029E+02  0.13567167392E+02 -0.26653802894E+02  0.43400726265E+02  0.00000000000E+00 0.  1.
         11    1    3    3    0    0  0.37804876626E+01 -0.73550644532E+01  0.18087112321E+01  0.84652523093E+01  0.51100000000E-03 0.  1.
        -11    1    3    3    0    0  0.19289830301E+02  0.93120519566E+00  0.17692658985E+02  0.26191503935E+02  0.51100000000E-03 0. -1.
        -12    1    3    3    0    0  0.83801160650E+01 -0.71433081348E+01  0.71524326769E+01  0.13130517491E+02  0.00000000000E+00 0.  1.
</event>
<event>
 7    1  0.2740409E-010  0.4778727E+02  0.7816164E-02  0.1312668E+00
        -11   -1    0    0    0    0  0.00000000000E+00  0.00000000000E+00  0.45593999997E+02  0.45594000000E+02  0.51100000000E-03 0.  1.
         11   -1    0    0    0    0 -0.00000000000E+00 -0.00000000000E+00 -0.45593999997E+02  0.45594000000E+02  0.51100000000E-03 0. -1.
    9900012    2    1    2    0    0  0.16968778411E+02 -0.34104021448E+02 -0.20799028040E+02  0.47787270892E+02  0.19999999305E+02 0.  0.
        -12    1    1    2    0    0 -0.16968778411E+02  0.34104021448E+02  0.20799028040E+02  0.43400729108E+02  0.00000000000E+00 0.  1.
         11    1    3    3    0    0  0.15021907204E+01 -0.11702394595E+01  0.10840662632E+01  0.21911725805E+01  0.51100000000E-03 0. -1.
        -11    1    3    3    0    0 -0.21946917506E+01 -0.35233025898E+01  0.11107888227E+01  0.42969972178E+01  0.51100000000E-03 0.  1.
         12    1    3    3    0    0  0.17661279441E+02 -0.29410479399E+02 -0.22993883126E+02  0.41299101094E+02  0.00000000000E+00 0. -1.
</event>
<event>
 7    1  0.2740409E-010  0.4778727E+02  0.7816164E-02  0.1312668E+00
        -11   -1    0    0    0    0  0.00000000000E+00  0.00000000000E+00  0.45593999997E+02  0.45594000000E+02  0.51100000000E-03 0.  1.
         11   -1    0    0    0    0 -0.00000000000E+00 -0.00000000000E+00 -0.45593999997E+02  0.45594000000E+02  0.51100000000E-03 0. -1.
    9900012    2    1    2    0    0  0.28839763741E+02  0.42124768753E+01 -0.32158145208E+02  0.47787271466E+02  0.20000001924E+02 0.  0.
        -12    1    1    2    0    0 -0.28839763741E+02 -0.42124768753E+01  0.32158145208E+02  0.43400728534E+02  0.00000000000E+00 0.  1.
         11    1    3    3    0    0 -0.70162486224E-01  0.40615090173E+00 -0.13739839566E+01  0.14344732496E+01  0.51100000000E-03 0. -1.
        -11    1    3    3    0    0  0.82588579320E+01 -0.31903005567E+01 -0.28115206789E+00  0.88580922737E+01  0.51100000000E-03 0.  1.
        -12    1    3    3    0    0  0.20651068295E+02  0.69966265303E+01 -0.30503009183E+02  0.37494705943E+02  0.00000000000E+00 0.  1.
</event>
<event>
 7    1  0.2740409E-010  0.4778725E+02  0.7816164E-02  0.1312668E+00
        -11   -1    0    0    0    0  0.00000000000E+00  0.00000000000E+00  0.45593999997E+02  0.45594000000E+02  0.51100000000E-03 0.  1.
         11   -1    0    0    0    0 -0.00000000000E+00 -0.00000000000E+00 -0.45593999997E+02  0.45594000000E+02  0.51100000000E-03 0. -1.
    9900012    2    1    2    0    0  0.21237733786E+02  0.27458685581E+02 -0.26050029968E+02  0.47787253330E+02  0.19999919232E+02 0.  0.
        -12    1    1    2    0    0 -0.21237733786E+02 -0.27458685581E+02  0.26050029968E+02  0.43400746670E+02  0.00000000000E+00 0.  1.
         11    1    3    3    0    0  0.43651521856E+01  0.13928817467E+02 -0.15214789396E+02  0.21084504411E+02  0.51100000000E-03 0. -1.
        -11    1    3    3    0    0  0.20802427455E+01  0.53206685432E+01 -0.75522023447E+01  0.94695662067E+01  0.51100000000E-03 0.  1.
         12    1    3    3    0    0  0.14792338855E+02  0.82091995711E+01 -0.32830382273E+01  0.17233182712E+02  0.00000000000E+00 0. -1.
</event>
<event>
 7    1  0.2740409E-010  0.4778727E+02  0.7816164E-02  0.1312668E+00
        -11   -1    0    0    0    0  0.00000000000E+00  0.00000000000E+00  0.45593999997E+02  0.45594000000E+02  0.51100000000E-03 0.  1.
         11   -1    0    0    0    0 -0.00000000000E+00 -0.00000000000E+00 -0.45593999997E+02  0.45594000000E+02  0.51100000000E-03 0. -1.
    9900012    2    1    2    0    0  0.39069151048E+01 -0.27088943991E+02 -0.33683059151E+02  0.47787270214E+02  0.19999996214E+02 0.  0.
        -12    1    1    2    0    0 -0.39069151048E+01  0.27088943991E+02  0.33683059151E+02  0.43400729786E+02  0.00000000000E+00 0.  1.
         11    1    3    3    0    0 -0.42984358129E+01 -0.16882303038E+02 -0.21978391501E+02  0.28045291931E+02  0.51100000000E-03 0. -1.
        -11    1    3    3    0    0  0.32021332872E+01 -0.59405985236E+01 -0.52103705585E+00  0.67687405240E+01  0.51100000000E-03 0.  1.
        -12    1    3    3    0    0  0.50032176306E+01 -0.42660424300E+01 -0.11183630594E+02  0.12973237759E+02  0.00000000000E+00 0.  1.
</event>
<event>
 7    1  0.2740409E-010  0.4778725E+02  0.7816164E-02  0.1312668E+00
        -11   -1    0    0    0    0  0.00000000000E+00  0.00000000000E+00  0.45593999997E+02  0.45594000000E+02  0.51100000000E-03 0. -1.
         11   -1    0    0    0    0 -0.00000000000E+00 -0.00000000000E+00 -0.45593999997E+02  0.45594000000E+02  0.51100000000E-03 0.  1.
    9900012    2    1    2    0    0 -0.92529023361E+01  0.37655166297E+02 -0.19496078709E+02  0.47787253054E+02  0.19999917972E+02 0.  0.
        -12    1    1    2    0    0  0.92529023361E+01 -0.37655166297E+02  0.19496078709E+02  0.43400746946E+02  0.00000000000E+00 0.  1.
         11    1    3    3    0    0 -0.16124013866E+01  0.94778072514E-01 -0.57287306831E+01  0.59520733039E+01  0.51100000000E-03 0. -1.
        -11    1    3    3    0    0 -0.17076555731E+01  0.12805777599E+01  0.81789793553E+00  0.22858093205E+01  0.51100000000E-03 0.  1.
         12    1    3    3    0    0 -0.59328453763E+01  0.36279810464E+02 -0.14585245962E+02  0.39549370429E+02  0.00000000000E+00 0. -1.
</event>
<event>
 7    1  0.2740409E-010  0.4778727E+02  0.7816164E-02  0.1312668E+00
        -11   -1    0    0    0    0  0.00000000000E+00  0.00000000000E+00  0.45593999997E+02  0.45594000000E+02  0.51100000000E-03 0. -1.
         11   -1    0    0    0    0 -0.00000000000E+00 -0.00000000000E+00 -0.45593999997E+02  0.45594000000E+02  0.51100000000E-03 0.  1.
    9900012    2    1    2    0    0  0.35504364743E+01  0.42612193729E+02  0.74309301042E+01  0.47787269871E+02  0.19999994649E+02 0.  0.
        -12    1    1    2    0    0 -0.35504364743E+01 -0.42612193729E+02 -0.74309301042E+01  0.43400730129E+02  0.00000000000E+00 0.  1.
         11    1    3    3    0    0  0.40981434512E+01  0.38667779257E+02  0.12660120121E+02  0.40893405021E+02  0.51100000000E-03 0. -1.
        -11    1    3    3    0    0  0.77853006889E+00  0.17263090462E+01 -0.24847446354E+01  0.31241331847E+01  0.51100000000E-03 0.  1.
         12    1    3    3    0    0 -0.13262370458E+01  0.22181054250E+01 -0.27444453813E+01  0.37697316654E+01  0.00000000000E+00 0. -1.
</event>
<event>
 7    1  0.2740409E-010  0.4778728E+02  0.7816164E-02  0.1312668E+00
        -11   -1    0    0    0    0  0.00000000000E+00  0.00000000000E+00  0.45593999997E+02  0.45594000000E+02  0.51100000000E-03 0.  1.
         11   -1    0    0    0    0 -0.00000000000E+00 -0.00000000000E+00 -0.45593999997E+02  0.45594000000E+02  0.51100000000E-03 0. -1.
    9900012    2    1    2    0    0 -0.19947727239E+02  0.28378854254E+02 -0.26083549047E+02  0.47787277406E+02  0.20000029007E+02 0.  0.
        -12    1    1    2    0    0  0.19947727239E+02 -0.28378854254E+02  0.26083549047E+02  0.43400722594E+02  0.00000000000E+00 0.  1.
         11    1    3    3    0    0 -0.12705226506E+02  0.25405363308E+02 -0.11749731484E+02  0.30739412089E+02  0.51100000000E-03 0. -1.
        -11    1    3    3    0    0 -0.26975384373E+01  0.12232313479E+01 -0.10320185161E+02  0.10736816594E+02  0.51100000000E-03 0.  1.
         12    1    3    3    0    0 -0.45449622957E+01  0.17502595974E+01 -0.40136324022E+01  0.63110487233E+01  0.00000000000E+00 0. -1.
</event>
<event>
 7    1  0.2740409E-010  0.4778727E+02  0.7816164E-02  0.1312668E+00
        -11   -1    0    0    0    0  0.00000000000E+00  0.00000000000E+00  0.45593999997E+02  0.45594000000E+02  0.51100000000E-03 0.  1.
         11   -1    0    0    0    0 -0.00000000000E+00 -0.00000000000E+00 -0.45593999997E+02  0.45594000000E+02  0.51100000000E-03 0. -1.
    9900012    2    1    2    0    0 -0.10295574268E+02 -0.38293888723E+02 -0.17640924377E+02  0.47787274477E+02  0.20000015650E+02 0.  0.
        -12    1    1    2    0    0  0.10295574268E+02  0.38293888723E+02  0.17640924377E+02  0.43400725523E+02  0.00000000000E+00 0.  1.
         11    1    3    3    0    0 -0.33281922694E+01 -0.21946543886E+02 -0.30539298545E+01  0.22406564667E+02  0.51100000000E-03 0. -1.
        -11    1    3    3    0    0 -0.64788408735E+01 -0.48259748546E+01 -0.10271685369E+02  0.13068011820E+02  0.51100000000E-03 0.  1.
        -12    1    3    3    0    0 -0.48854112495E+00 -0.11521369982E+02 -0.43153091536E+01  0.12312697990E+02  0.00000000000E+00 0.  1.
</event>
<event>
 7    1  0.2740409E-010  0.4778727E+02  0.7816164E-02  0.1312668E+00
        -11   -1    0    0    0    0  0.00000000000E+00  0.00000000000E+00  0.45593999997E+02  0.45594000000E+02  0.51100000000E-03 0.  1.
         11   -1    0    0    0    0 -0.00000000000E+00 -0.00000000000E+00 -0.45593999997E+02  0.45594000000E+02  0.51100000000E-03 0. -1.
    9900012    2    1    2    0    0  0.26113491450E+02  0.18453671470E+02 -0.29345711095E+02  0.47787272056E+02  0.20000004611E+02 0.  0.
        -12    1    1    2    0    0 -0.26113491450E+02 -0.18453671470E+02  0.29345711095E+02  0.43400727944E+02  0.00000000000E+00 0.  1.
         11    1    3    3    0    0  0.16376286504E+01  0.10085663871E+02 -0.86265395838E+01  0.13372345672E+02  0.51100000000E-03 0. -1.
        -11    1    3    3    0    0  0.14824627986E+02  0.40644743675E+00 -0.95154771847E+01  0.17620417156E+02  0.51100000000E-03 0.  1.
        -12    1    3    3    0    0  0.96512348138E+01  0.79615601617E+01 -0.11203694326E+02  0.16794509228E+02  0.00000000000E+00 0.  1.
</event>
<event>
 7    1  0.2740409E-010  0.4778727E+02  0.7816164E-02  0.1312668E+00
        -11   -1    0    0    0    0  0.00000000000E+00  0.00000000000E+00  0.45593999997E+02  0.45594000000E+02  0.51100000000E-03 0.  1.
         11   -1    0    0    0    0 -0.00000000000E+00 -0.00000000000E+00 -0.45593999997E+02  0.45594000000E+02  0.51100000000E-03 0. -1.
    9900012    2    1    2    0    0  0.24688283071E+02  0.11646106446E+02 -0.33741371712E+02  0.47787270958E+02  0.19999999607E+02 0.  0.
        -12    1    1    2    0    0 -0.24688283071E+02 -0.11646106446E+02  0.33741371712E+02  0.43400729042E+02  0.00000000000E+00 0.  1.
         11    1    3    3    0    0  0.20401066714E+02  0.67108386577E+00 -0.25155445829E+02  0.32395220817E+02  0.51100000000E-03 0. -1.
        -11    1    3    3    0    0  0.34578627492E-01  0.20613485965E+01  0.32857569817E+00  0.20876580104E+01  0.51100000000E-03 0.  1.
         12    1    3    3    0    0  0.42526377292E+01  0.89136739835E+01 -0.89145015813E+01  0.13304392131E+02  0.00000000000E+00 0. -1.
</event>
<event>
 7    1  0.2740409E-010  0.4778727E+02  0.7816164E-02  0.1312668E+00
        -11   -1    0    0    0    0  0.00000000000E+00  0.00000000000E+00  0.45593999997E+02  0.45594000000E+02  0.51100000000E-03 0. -1.
         11   -1    0    0    0    0 -0.00000000000E+00 -0.00000000000E+00 -0.45593999997E+02  0.45594000000E+02  0.51100000000E-03 0.  1.
    9900012    2    1    2    0    0 -0.21886795398E+01 -0.20266524950E+02  0.38315804555E+02  0.47787271546E+02  0.20000002286E+02 0.  0.
        -12    1    1    2    0    0  0.21886795398E+01  0.20266524950E+02 -0.38315804555E+02  0.43400728454E+02  0.00000000000E+00 0.  1.
         11    1    3    3    0    0  0.25501534468E+01 -0.57195825036E+01  0.17180058801E+02  0.18285823123E+02  0.51100000000E-03 0. -1.
        -11    1    3    3    0    0 -0.76965824979E+01 -0.11729189079E+02  0.89293849602E+01  0.16629647460E+02  0.51100000000E-03 0.  1.
        -12    1    3    3    0    0  0.29577495113E+01 -0.28177533671E+01  0.12206360794E+02  0.12871800964E+02  0.00000000000E+00 0.  1.
</event>
<event>
 7    1  0.2740409E-010  0.4778727E+02  0.7816164E-02  0.1312668E+00
        -11   -1    0    0    0    0  0.00000000000E+00  0.00000000000E+00  0.45593999997E+02  0.45594000000E+02  0.51100000000E-03 0. -1.
         11   -1    0    0    0    0 -0.00000000000E+00 -0.00000000000E+00 -0.45593999997E+02  0.45594000000E+02  0.51100000000E-03 0.  1.
    9900012    2    1    2    0    0  0.53105212704E+01 -0.40554614391E+02  0.14517057530E+02  0.47787270238E+02  0.19999996321E+02 0.  0.
        -12    1    1    2    0    0 -0.53105212704E+01  0.40554614391E+02 -0.14517057530E+02  0.43400729762E+02  0.00000000000E+00 0.  1.
         11    1    3    3    0    0  0.32514309260E+01 -0.17172514299E+02  0.13614345924E+02  0.22154400593E+02  0.51100000000E-03 0.  1.
        -11    1    3    3    0    0 -0.79911123744E+00 -0.14310856194E+02 -0.40708924109E+01  0.14900045270E+02  0.51100000000E-03 0. -1.
        -12    1    3    3    0    0  0.28582015819E+01 -0.90712438977E+01  0.49736040161E+01  0.10732824374E+02  0.00000000000E+00 0.  1.
</event>
<event>
 7    1  0.2740409E-010  0.4778727E+02  0.7816164E-02  0.1312668E+00
        -11   -1    0    0    0    0  0.00000000000E+00  0.00000000000E+00  0.45593999997E+02  0.45594000000E+02  0.51100000000E-03 0.  1.
         11   -1    0    0    0    0 -0.00000000000E+00 -0.00000000000E+00 -0.45593999997E+02  0.45594000000E+02  0.51100000000E-03 0. -1.
    9900012    2    1    2    0    0  0.12411365770E+02  0.24068416767E+02  0.33915958819E+02  0.47787274792E+02  0.20000017086E+02 0.  0.
        -12    1    1    2    0    0 -0.12411365770E+02 -0.24068416767E+02 -0.33915958819E+02  0.43400725208E+02  0.00000000000E+00 0.  1.
         11    1    3    3    0    0  0.80447907625E+01  0.16269124336E+02  0.29556734371E+02  0.34684342462E+02  0.51100000000E-03 0.  1.
        -11    1    3    3    0    0  0.56823265199E+01  0.21783654640E+01  0.39175957309E+00  0.60981625591E+01  0.51100000000E-03 0. -1.
        -12    1    3    3    0    0 -0.13157515119E+01  0.56209269668E+01  0.39674648752E+01  0.70047697709E+01  0.00000000000E+00 0.  1.
</event>
<event>
 7    1  0.2740409E-010  0.4778728E+02  0.7816164E-02  0.1312668E+00
        -11   -1    0    0    0    0  0.00000000000E+00  0.00000000000E+00  0.45593999997E+02  0.45594000000E+02  0.51100000000E-03 0.  1.
         11   -1    0    0    0    0 -0.00000000000E+00 -0.00000000000E+00 -0.45593999997E+02  0.45594000000E+02  0.51100000000E-03 0. -1.
    9900012    2    1    2    0    0 -0.15628371055E+02 -0.37032834951E+02 -0.16369053740E+02  0.47787276887E+02  0.20000026640E+02 0.  0.
        -12    1    1    2    0    0  0.15628371055E+02  0.37032834951E+02  0.16369053740E+02  0.43400723113E+02  0.00000000000E+00 0.  1.
         11    1    3    3    0    0 -0.48208738495E+00 -0.10840041696E+02  0.31673862982E+01  0.11303594492E+02  0.51100000000E-03 0. -1.
        -11    1    3    3    0    0 -0.19461598568E+00 -0.81691162768E+00 -0.20870121984E+01  0.22496311179E+01  0.51100000000E-03 0.  1.
         12    1    3    3    0    0 -0.14951667685E+02 -0.25375881628E+02 -0.17449427840E+02  0.34234051278E+02  0.00000000000E+00 0. -1.
</event>
<event>
 7    1  0.2740409E-010  0.4778726E+02  0.7816164E-02  0.1312668E+00
        -11   -1    0    0    0    0  0.00000000000E+00  0.00000000000E+00  0.45593999997E+02  0.45594000000E+02  0.51100000000E-03 0.  1.
         11   -1    0    0    0    0 -0.00000000000E+00 -0.00000000000E+00 -0.45593999997E+02  0.45594000000E+02  0.51100000000E-03 0. -1.
    9900012    2    1    2    0    0 -0.27006300378E+02  0.27405772779E+01 -0.33864043006E+02  0.47787257695E+02  0.19999939135E+02 0.  0.
        -12    1    1    2    0    0  0.27006300378E+02 -0.27405772779E+01  0.33864043006E+02  0.43400742305E+02  0.00000000000E+00 0.  1.
         11    1    3    3    0    0 -0.20417141795E+02 -0.13812696185E+01 -0.15730066008E+02  0.25810900056E+02  0.51100000000E-03 0. -1.
        -11    1    3    3    0    0 -0.29010973671E+01 -0.28716394440E+01 -0.90850693820E+01  0.99599781609E+01  0.51100000000E-03 0.  1.
         12    1    3    3    0    0 -0.36880612158E+01  0.69934863404E+01 -0.90489076156E+01  0.12016379478E+02  0.00000000000E+00 0. -1.
</event>
<event>
 7    1  0.2740409E-010  0.4778727E+02  0.7816164E-02  0.1312668E+00
        -11   -1    0    0    0    0  0.00000000000E+00  0.00000000000E+00  0.45593999997E+02  0.45594000000E+02  0.51100000000E-03 0.  1.
         11   -1    0    0    0    0 -0.00000000000E+00 -0.00000000000E+00 -0.45593999997E+02  0.45594000000E+02  0.51100000000E-03 0. -1.
    9900012    2    1    2    0    0  0.13994900832E+02 -0.13001169826E+02 -0.38970956268E+02  0.47787273064E+02  0.20000009209E+02 0.  0.
        -12    1    1    2    0    0 -0.13994900832E+02  0.13001169826E+02  0.38970956268E+02  0.43400726936E+02  0.00000000000E+00 0.  1.
         11    1    3    3    0    0  0.12817112240E+02 -0.11294809146E+02 -0.39374939516E+02  0.42921287748E+02  0.51100000000E-03 0. -1.
        -11    1    3    3    0    0 -0.51141476991E+00  0.93114513998E+00  0.12315457629E+01  0.16264321584E+01  0.51100000000E-03 0.  1.
         12    1    3    3    0    0  0.16892033613E+01 -0.26375058197E+01 -0.82756251478E+00  0.32395531575E+01  0.00000000000E+00 0. -1.
</event>
<event>
 7    1  0.3938765E-010  0.4778726E+02  0.7816164E-02  0.1312668E+00
        -11   -1    0    0    0    0  0.00000000000E+00  0.00000000000E+00  0.45593999997E+02  0.45594000000E+02  0.51100000000E-03 0. -1.
         11   -1    0    0    0    0 -0.00000000000E+00 -0.00000000000E+00 -0.45593999997E+02  0.45594000000E+02  0.51100000000E-03 0.  1.
    9900012    2    1    2    0    0  0.38311389920E+02  0.98092529935E+01  0.17878495298E+02  0.47787255352E+02  0.19999928453E+02 0.  0.
        -12    1    1    2    0    0 -0.38311389920E+02 -0.98092529935E+01 -0.17878495298E+02  0.43400744648E+02  0.00000000000E+00 0.  1.
         11    1    3    3    0    0  0.93462511354E+01  0.10090182330E+02  0.78724090363E+01  0.15847366154E+02  0.51100000000E-03 0. -1.
        -11    1    3    3    0    0  0.18673199587E+02  0.40526991555E+01  0.53655589538E+01  0.19846963909E+02  0.51100000000E-03 0.  1.
         12    1    3    3    0    0  0.10291939197E+02 -0.43336284918E+01  0.46405273078E+01  0.12092925288E+02  0.00000000000E+00 0. -1.
</event>
<event>
 7    1  0.2740409E-010  0.4778729E+02  0.7816164E-02  0.1312668E+00
        -11   -1    0    0    0    0  0.00000000000E+00  0.00000000000E+00  0.45593999997E+02  0.45594000000E+02  0.51100000000E-03 0.  1.
         11   -1    0    0    0    0 -0.00000000000E+00 -0.00000000000E+00 -0.45593999997E+02  0.45594000000E+02  0.51100000000E-03 0. -1.
    9900012    2    1    2    0    0  0.26479408247E+02 -0.50736083655E+01 -0.34010600600E+02  0.47787291294E+02  0.20000092326E+02 0.  0.
        -12    1    1    2    0    0 -0.26479408247E+02  0.50736083655E+01  0.34010600600E+02  0.43400708706E+02  0.00000000000E+00 0.  1.
         11    1    3    3    0    0  0.62035031526E+01  0.37302988361E+01 -0.76647055457E+01  0.10542594184E+02  0.51100000000E-03 0. -1.
        -11    1    3    3    0    0  0.20711022742E+02 -0.11139008823E+02 -0.21569583292E+02  0.31910357319E+02  0.51100000000E-03 0.  1.
        -12    1    3    3    0    0 -0.43511764729E+00  0.23351016213E+01 -0.47763117630E+01  0.53343397911E+01  0.00000000000E+00 0.  1.
</event>
<event>
 7    1  0.2740409E-010  0.4778727E+02  0.7816164E-02  0.1312668E+00
        -11   -1    0    0    0    0  0.00000000000E+00  0.00000000000E+00  0.45593999997E+02  0.45594000000E+02  0.51100000000E-03 0.  1.
         11   -1    0    0    0    0 -0.00000000000E+00 -0.00000000000E+00 -0.45593999997E+02  0.45594000000E+02  0.51100000000E-03 0. -1.
    9900012    2    1    2    0    0 -0.26554786829E+02 -0.28248562043E+02 -0.19506033061E+02  0.47787270895E+02  0.19999999320E+02 0.  0.
        -12    1    1    2    0    0  0.26554786829E+02  0.28248562043E+02  0.19506033061E+02  0.43400729105E+02  0.00000000000E+00 0.  1.
         11    1    3    3    0    0 -0.14943678919E+02 -0.21282041886E+02 -0.61186769410E+01  0.26714734778E+02  0.51100000000E-03 0. -1.
        -11    1    3    3    0    0  0.12628372026E+01 -0.16979061036E+00  0.30024154623E-01  0.12745541819E+01  0.51100000000E-03 0.  1.
         12    1    3    3    0    0 -0.12873945113E+02 -0.67967295467E+01 -0.13417380275E+02  0.19797981936E+02  0.00000000000E+00 0. -1.
</event>
<event>
 7    1  0.2740409E-010  0.4778727E+02  0.7816164E-02  0.1312668E+00
        -11   -1    0    0    0    0  0.00000000000E+00  0.00000000000E+00  0.45593999997E+02  0.45594000000E+02  0.51100000000E-03 0.  1.
         11   -1    0    0    0    0 -0.00000000000E+00 -0.00000000000E+00 -0.45593999997E+02  0.45594000000E+02  0.51100000000E-03 0. -1.
    9900012    2    1    2    0    0  0.87439674026E+01 -0.32759364411E+02 -0.27092257567E+02  0.47787270252E+02  0.19999996389E+02 0.  0.
        -12    1    1    2    0    0 -0.87439674026E+01  0.32759364411E+02  0.27092257567E+02  0.43400729748E+02  0.00000000000E+00 0.  1.
         11    1    3    3    0    0  0.28856009365E+01 -0.16352119051E+02 -0.21093372661E+02  0.26844903813E+02  0.51100000000E-03 0. -1.
        -11    1    3    3    0    0  0.21978304994E+01  0.80509458148E+00  0.30408889864E-01  0.23408462467E+01  0.51100000000E-03 0.  1.
         12    1    3    3    0    0  0.36605359667E+01 -0.17212339941E+02 -0.60292937957E+01  0.18601520193E+02  0.00000000000E+00 0. -1.
</event>
<event>
 7    1  0.2740409E-010  0.4778727E+02  0.7816164E-02  0.1312668E+00
        -11   -1    0    0    0    0  0.00000000000E+00  0.00000000000E+00  0.45593999997E+02  0.45594000000E+02  0.51100000000E-03 0. -1.
         11   -1    0    0    0    0 -0.00000000000E+00 -0.00000000000E+00 -0.45593999997E+02  0.45594000000E+02  0.51100000000E-03 0.  1.
    9900012    2    1    2    0    0 -0.27103359049E+02 -0.15001688428E+02  0.30397047771E+02  0.47787271428E+02  0.20000001747E+02 0.  0.
        -12    1    1    2    0    0  0.27103359049E+02  0.15001688428E+02 -0.30397047771E+02  0.43400728572E+02  0.00000000000E+00 0.  1.
         11    1    3    3    0    0 -0.25598070260E+01 -0.31846680914E+01  0.12687949550E+01  0.42783833116E+01  0.51100000000E-03 0. -1.
        -11    1    3    3    0    0 -0.87075720951E+01 -0.12387233473E+02  0.80800424633E+01  0.17162530448E+02  0.51100000000E-03 0.  1.
        -12    1    3    3    0    0 -0.15835979928E+02  0.57021313677E+00  0.21048210353E+02  0.26346357668E+02  0.00000000000E+00 0.  1.
</event>
<event>
 7    1  0.2740409E-010  0.4778727E+02  0.7816164E-02  0.1312668E+00
        -11   -1    0    0    0    0  0.00000000000E+00  0.00000000000E+00  0.45593999997E+02  0.45594000000E+02  0.51100000000E-03 0.  1.
         11   -1    0    0    0    0 -0.00000000000E+00 -0.00000000000E+00 -0.45593999997E+02  0.45594000000E+02  0.51100000000E-03 0. -1.
    9900012    2    1    2    0    0 -0.40347634565E+02 -0.15625751703E+02 -0.33952302486E+01  0.47787270516E+02  0.19999997591E+02 0.  0.
        -12    1    1    2    0    0  0.40347634565E+02  0.15625751703E+02  0.33952302486E+01  0.43400729484E+02  0.00000000000E+00 0.  1.
         11    1    3    3    0    0 -0.15056028224E+02 -0.32265293303E+01 -0.93202244350E+01  0.17998918334E+02  0.51100000000E-03 0. -1.
        -11    1    3    3    0    0 -0.83509796924E+01 -0.67726083209E+01  0.51477703321E+01  0.11920848332E+02  0.51100000000E-03 0.  1.
         12    1    3    3    0    0 -0.16940626649E+02 -0.56266140520E+01  0.77722385432E+00  0.17867503851E+02  0.00000000000E+00 0. -1.
</event>
<event>
 7    1  0.2740409E-010  0.4778727E+02  0.7816164E-02  0.1312668E+00
        -11   -1    0    0    0    0  0.00000000000E+00  0.00000000000E+00  0.45593999997E+02  0.45594000000E+02  0.51100000000E-03 0.  1.
         11   -1    0    0    0    0 -0.00000000000E+00 -0.00000000000E+00 -0.45593999997E+02  0.45594000000E+02  0.51100000000E-03 0. -1.
    9900012    2    1    2    0    0 -0.32471961382E+02 -0.19604693120E+02  0.21091492361E+02  0.47787270532E+02  0.19999997666E+02 0.  0.
        -12    1    1    2    0    0  0.32471961382E+02  0.19604693120E+02 -0.21091492361E+02  0.43400729468E+02  0.00000000000E+00 0.  1.
         11    1    3    3    0    0 -0.23035399502E+02 -0.11127993752E+02  0.73627531824E+01  0.26620894235E+02  0.51100000000E-03 0. -1.
        -11    1    3    3    0    0 -0.96012336894E+01 -0.10019416533E+02  0.13855307846E+02  0.19609741247E+02  0.51100000000E-03 0.  1.
         12    1    3    3    0    0  0.16467181022E+00  0.15427171641E+01 -0.12656866735E+00  0.15566350507E+01  0.00000000000E+00 0. -1.
</event>
<event>
 7    1  0.2740409E-010  0.4778727E+02  0.7816164E-02  0.1312668E+00
        -11   -1    0    0    0    0  0.00000000000E+00  0.00000000000E+00  0.45593999997E+02  0.45594000000E+02  0.51100000000E-03 0. -1.
         11   -1    0    0    0    0 -0.00000000000E+00 -0.00000000000E+00 -0.45593999997E+02  0.45594000000E+02  0.51100000000E-03 0.  1.
    9900012    2    1    2    0    0 -0.31059368282E+02  0.14082874906E+02  0.26844213561E+02  0.47787268147E+02  0.19999986787E+02 0.  0.
        -12    1    1    2    0    0  0.31059368282E+02 -0.14082874906E+02 -0.26844213561E+02  0.43400731853E+02  0.00000000000E+00 0.  1.
         11    1    3    3    0    0 -0.13230488769E+02  0.78951661750E+01  0.20920969002E+02  0.25982040455E+02  0.51100000000E-03 0. -1.
        -11    1    3    3    0    0 -0.72595774752E+01  0.26909857898E+01 -0.21711117506E+01  0.80409325413E+01  0.51100000000E-03 0.  1.
        -12    1    3    3    0    0 -0.10569302038E+02  0.34967229416E+01  0.80943563094E+01  0.13764295150E+02  0.00000000000E+00 0.  1.
</event>
<event>
 7    1  0.2740409E-010  0.4778727E+02  0.7816164E-02  0.1312668E+00
        -11   -1    0    0    0    0  0.00000000000E+00  0.00000000000E+00  0.45593999997E+02  0.45594000000E+02  0.51100000000E-03 0.  1.
         11   -1    0    0    0    0 -0.00000000000E+00 -0.00000000000E+00 -0.45593999997E+02  0.45594000000E+02  0.51100000000E-03 0. -1.
    9900012    2    1    2    0    0  0.32288508615E+02  0.12967779047E+02 -0.25940551067E+02  0.47787271070E+02  0.20000000116E+02 0.  0.
        -12    1    1    2    0    0 -0.32288508615E+02 -0.12967779047E+02  0.25940551067E+02  0.43400728930E+02  0.00000000000E+00 0.  1.
         11    1    3    3    0    0  0.20962070626E+02  0.71391603381E+01 -0.11986317901E+02  0.25180306439E+02  0.51100000000E-03 0. -1.
        -11    1    3    3    0    0  0.16200262090E+01  0.11149320989E-01 -0.10714237878E+02  0.10836027999E+02  0.51100000000E-03 0.  1.
         12    1    3    3    0    0  0.97064117802E+01  0.58174693882E+01 -0.32399952878E+01  0.11770936632E+02  0.00000000000E+00 0. -1.
</event>
<event>
 7    1  0.2740409E-010  0.4778728E+02  0.7816164E-02  0.1312668E+00
        -11   -1    0    0    0    0  0.00000000000E+00  0.00000000000E+00  0.45593999997E+02  0.45594000000E+02  0.51100000000E-03 0.  1.
         11   -1    0    0    0    0 -0.00000000000E+00 -0.00000000000E+00 -0.45593999997E+02  0.45594000000E+02  0.51100000000E-03 0. -1.
    9900012    2    1    2    0    0  0.26572143857E+02 -0.10002134862E+02 -0.32825314929E+02  0.47787276145E+02  0.20000023256E+02 0.  0.
        -12    1    1    2    0    0 -0.26572143857E+02  0.10002134862E+02  0.32825314929E+02  0.43400723855E+02  0.00000000000E+00 0.  1.
         11    1    3    3    0    0  0.25311940090E+02 -0.75600868849E+01 -0.22601325581E+02  0.34765919276E+02  0.51100000000E-03 0. -1.
        -11    1    3    3    0    0 -0.24952932578E+01 -0.26086348484E+01 -0.23821978305E+01  0.43250816154E+01  0.51100000000E-03 0.  1.
        -12    1    3    3    0    0  0.37554970248E+01  0.16658687153E+00 -0.78417915173E+01  0.86962752538E+01  0.00000000000E+00 0.  1.
</event>
<event>
 7    1  0.2740409E-010  0.4778727E+02  0.7816164E-02  0.1312668E+00
        -11   -1    0    0    0    0  0.00000000000E+00  0.00000000000E+00  0.45593999997E+02  0.45594000000E+02  0.51100000000E-03 0.  1.
         11   -1    0    0    0    0 -0.00000000000E+00 -0.00000000000E+00 -0.45593999997E+02  0.45594000000E+02  0.51100000000E-03 0. -1.
    9900012    2    1    2    0    0 -0.92898401786E+01  0.31460631684E+02 -0.28417436709E+02  0.47787272061E+02  0.20000004634E+02 0.  0.
        -12    1    1    2    0    0  0.92898401786E+01 -0.31460631684E+02  0.28417436709E+02  0.43400727939E+02  0.00000000000E+00 0.  1.
         11    1    3    3    0    0  0.56574893038E+00  0.24778428511E+02 -0.20517487553E+02  0.32175423651E+02  0.51100000000E-03 0. -1.
        -11    1    3    3    0    0 -0.44908014399E+01 -0.35554629405E+00 -0.36342571908E+01  0.57880511686E+01  0.51100000000E-03 0.  1.
        -12    1    3    3    0    0 -0.53647876690E+01  0.70377494670E+01 -0.42656919653E+01  0.98237972412E+01  0.00000000000E+00 0.  1.
</event>
<event>
 7    1  0.2740409E-010  0.4778727E+02  0.7816164E-02  0.1312668E+00
        -11   -1    0    0    0    0  0.00000000000E+00  0.00000000000E+00  0.45593999997E+02  0.45594000000E+02  0.51100000000E-03 0. -1.
         11   -1    0    0    0    0 -0.00000000000E+00 -0.00000000000E+00 -0.45593999997E+02  0.45594000000E+02  0.51100000000E-03 0.  1.
    9900012    2    1    2    0    0  0.22672608156E+02  0.10685090437E+02  0.35431693917E+02  0.47787271296E+02  0.20000001147E+02 0.  0.
        -12    1    1    2    0    0 -0.22672608156E+02 -0.10685090437E+02 -0.35431693917E+02  0.43400728704E+02  0.00000000000E+00 0.  1.
         11    1    3    3    0    0  0.88274907301E+01  0.38647619799E+01  0.14824930198E+02  0.17681615689E+02  0.51100000000E-03 0. -1.
        -11    1    3    3    0    0  0.74126474159E+00  0.26112984000E+01 -0.21823167171E+01  0.34829383092E+01  0.51100000000E-03 0.  1.
        -12    1    3    3    0    0  0.13103852684E+02  0.42090300570E+01  0.22789080436E+02  0.26622717297E+02  0.00000000000E+00 0.  1.
</event>
<event>
 7    1  0.2740409E-010  0.4778727E+02  0.7816164E-02  0.1312668E+00
        -11   -1    0    0    0    0  0.00000000000E+00  0.00000000000E+00  0.45593999997E+02  0.45594000000E+02  0.51100000000E-03 0.  1.
         11   -1    0    0    0    0 -0.00000000000E+00 -0.00000000000E+00 -0.45593999997E+02  0.45594000000E+02  0.51100000000E-03 0. -1.
    9900012    2    1    2    0    0 -0.10166841559E+02 -0.30125149204E+02 -0.29542067068E+02  0.47787274102E+02  0.20000013940E+02 0.  0.
        -12    1    1    2    0    0  0.10166841559E+02  0.30125149204E+02  0.29542067068E+02  0.43400725898E+02  0.00000000000E+00 0.  1.
         11    1    3    3    0    0 -0.12781836121E+02 -0.14859416776E+02 -0.86617086721E+01  0.21429017685E+02  0.51100000000E-03 0.  1.
        -11    1    3    3    0    0  0.24518328615E+01 -0.64611636088E+01 -0.12027146056E+02  0.13871206223E+02  0.51100000000E-03 0. -1.
        -12    1    3    3    0    0  0.16316170053E+00 -0.88045688184E+01 -0.88532123401E+01  0.12487050194E+02  0.00000000000E+00 0.  1.
</event>
<event>
 7    1  0.2740409E-010  0.4778727E+02  0.7816164E-02  0.1312668E+00
        -11   -1    0    0    0    0  0.00000000000E+00  0.00000000000E+00  0.45593999997E+02  0.45594000000E+02  0.51100000000E-03 0. -1.
         11   -1    0    0    0    0 -0.00000000000E+00 -0.00000000000E+00 -0.45593999997E+02  0.45594000000E+02  0.51100000000E-03 0.  1.
    9900012    2    1    2    0    0 -0.39026943823E+02 -0.85280272585E+01  0.16964479490E+02  0.47787272385E+02  0.20000006113E+02 0.  0.
        -12    1    1    2    0    0  0.39026943823E+02  0.85280272585E+01 -0.16964479490E+02  0.43400727615E+02  0.00000000000E+00 0.  1.
         11    1    3    3    0    0 -0.91343151517E+01 -0.23144543896E+01 -0.28330459354E+01  0.98396423687E+01  0.51100000000E-03 0. -1.
        -11    1    3    3    0    0 -0.18339269937E+02 -0.58630684171E+01  0.17793222154E+02  0.26216467115E+02  0.51100000000E-03 0.  1.
        -12    1    3    3    0    0 -0.11553358735E+02 -0.35050445181E+00  0.20043032714E+01  0.11731162902E+02  0.00000000000E+00 0.  1.
</event>
<event>
 7    1  0.2740409E-010  0.4778727E+02  0.7816164E-02  0.1312668E+00
        -11   -1    0    0    0    0  0.00000000000E+00  0.00000000000E+00  0.45593999997E+02  0.45594000000E+02  0.51100000000E-03 0.  1.
         11   -1    0    0    0    0 -0.00000000000E+00 -0.00000000000E+00 -0.45593999997E+02  0.45594000000E+02  0.51100000000E-03 0. -1.
    9900012    2    1    2    0    0 -0.37909769428E+02 -0.17692179473E+02 -0.11552451797E+02  0.47787274486E+02  0.20000015691E+02 0.  0.
        -12    1    1    2    0    0  0.37909769428E+02  0.17692179473E+02  0.11552451797E+02  0.43400725514E+02  0.00000000000E+00 0.  1.
         11    1    3    3    0    0 -0.71020286829E+01 -0.11387270965E+02  0.16954223243E+01  0.13527128615E+02  0.51100000000E-03 0. -1.
        -11    1    3    3    0    0 -0.18490715576E+02 -0.22492616527E+01 -0.77110184964E+01  0.20159998686E+02  0.51100000000E-03 0.  1.
         12    1    3    3    0    0 -0.12317025169E+02 -0.40556468559E+01 -0.55368556253E+01  0.14100147185E+02  0.00000000000E+00 0. -1.
</event>
<event>
 7    1  0.2740409E-010  0.4778727E+02  0.7816164E-02  0.1312668E+00
        -11   -1    0    0    0    0  0.00000000000E+00  0.00000000000E+00  0.45593999997E+02  0.45594000000E+02  0.51100000000E-03 0.  1.
         11   -1    0    0    0    0 -0.00000000000E+00 -0.00000000000E+00 -0.45593999997E+02  0.45594000000E+02  0.51100000000E-03 0. -1.
    9900012    2    1    2    0    0  0.10849028260E+02  0.28478742455E+02 -0.30901180595E+02  0.47787272492E+02  0.20000006602E+02 0.  0.
        -12    1    1    2    0    0 -0.10849028260E+02 -0.28478742455E+02  0.30901180595E+02  0.43400727508E+02  0.00000000000E+00 0.  1.
         11    1    3    3    0    0  0.38781689484E+01  0.79514346015E+01  0.90432357909E+00  0.88928796243E+01  0.51100000000E-03 0. -1.
        -11    1    3    3    0    0  0.65926738811E+01  0.10967060732E+02 -0.17315427713E+02  0.21530531975E+02  0.51100000000E-03 0.  1.
         12    1    3    3    0    0  0.37818543087E+00  0.95602471219E+01 -0.14490076462E+02  0.17363860893E+02  0.00000000000E+00 0. -1.
</event>
<event>
 7    1  0.2740409E-010  0.4778727E+02  0.7816164E-02  0.1312668E+00
        -11   -1    0    0    0    0  0.00000000000E+00  0.00000000000E+00  0.45593999997E+02  0.45594000000E+02  0.51100000000E-03 0.  1.
         11   -1    0    0    0    0 -0.00000000000E+00 -0.00000000000E+00 -0.45593999997E+02  0.45594000000E+02  0.51100000000E-03 0. -1.
    9900012    2    1    2    0    0 -0.17901574312E+02 -0.29391154343E+02 -0.26444604569E+02  0.47787269277E+02  0.19999991941E+02 0.  0.
        -12    1    1    2    0    0  0.17901574312E+02  0.29391154343E+02  0.26444604569E+02  0.43400730723E+02  0.00000000000E+00 0.  1.
         11    1    3    3    0    0 -0.11028749781E+02 -0.60583704962E+01 -0.13718928332E+02  0.18615750580E+02  0.51100000000E-03 0. -1.
        -11    1    3    3    0    0 -0.55167679596E+01 -0.20820605063E+02 -0.14355145712E+02  0.25884407132E+02  0.51100000000E-03 0.  1.
        -12    1    3    3    0    0 -0.13560565716E+01 -0.25121787844E+01  0.16294694755E+01  0.32871115651E+01  0.00000000000E+00 0.  1.
</event>
<event>
 7    1  0.2740409E-010  0.4778727E+02  0.7816164E-02  0.1312668E+00
        -11   -1    0    0    0    0  0.00000000000E+00  0.00000000000E+00  0.45593999997E+02  0.45594000000E+02  0.51100000000E-03 0.  1.
         11   -1    0    0    0    0 -0.00000000000E+00 -0.00000000000E+00 -0.45593999997E+02  0.45594000000E+02  0.51100000000E-03 0. -1.
    9900012    2    1    2    0    0  0.14954972391E+02  0.32510510386E+01 -0.40612839049E+02  0.47787271577E+02  0.20000002426E+02 0.  0.
        -12    1    1    2    0    0 -0.14954972391E+02 -0.32510510386E+01  0.40612839049E+02  0.43400728423E+02  0.00000000000E+00 0.  1.
         11    1    3    3    0    0  0.11492684341E+02  0.11679486057E+01 -0.35957944738E+02  0.37767971714E+02  0.51100000000E-03 0. -1.
        -11    1    3    3    0    0  0.48084328967E+01  0.37164693209E+01 -0.15677152883E+01  0.62762172223E+01  0.51100000000E-03 0.  1.
         12    1    3    3    0    0 -0.13461448462E+01 -0.16333668881E+01 -0.30871790224E+01  0.37430826406E+01  0.00000000000E+00 0. -1.
</event>
<event>
 7    1  0.2740409E-010  0.4778727E+02  0.7816164E-02  0.1312668E+00
        -11   -1    0    0    0    0  0.00000000000E+00  0.00000000000E+00  0.45593999997E+02  0.45594000000E+02  0.51100000000E-03 0.  1.
         11   -1    0    0    0    0 -0.00000000000E+00 -0.00000000000E+00 -0.45593999997E+02  0.45594000000E+02  0.51100000000E-03 0. -1.
    9900012    2    1    2    0    0 -0.13179311037E+01  0.17105101876E+02 -0.39866052703E+02  0.47787267164E+02  0.19999982308E+02 0.  0.
        -12    1    1    2    0    0  0.13179311037E+01 -0.17105101876E+02  0.39866052703E+02  0.43400732836E+02  0.00000000000E+00 0.  1.
         11    1    3    3    0    0  0.59458556687E-01  0.81939729405E+00 -0.82623284276E+01  0.83030728380E+01  0.51100000000E-03 0. -1.
        -11    1    3    3    0    0  0.72904188632E+01  0.72039603692E+01 -0.19583040781E+02  0.22103002934E+02  0.51100000000E-03 0.  1.
        -12    1    3    3    0    0 -0.86678085236E+01  0.90817442130E+01 -0.12020683494E+02  0.17381191392E+02  0.00000000000E+00 0.  1.
</event>
<event>
 7    1  0.2740409E-010  0.4778726E+02  0.7816164E-02  0.1312668E+00
        -11   -1    0    0    0    0  0.00000000000E+00  0.00000000000E+00  0.45593999997E+02  0.45594000000E+02  0.51100000000E-03 0.  1.
         11   -1    0    0    0    0 -0.00000000000E+00 -0.00000000000E+00 -0.45593999997E+02  0.45594000000E+02  0.51100000000E-03 0. -1.
    9900012    2    1    2    0    0  0.14911922241E+02 -0.14042884687E+02 -0.38262990136E+02  0.47787257502E+02  0.19999938254E+02 0.  0.
        -12    1    1    2    0    0 -0.14911922241E+02  0.14042884687E+02  0.38262990136E+02  0.43400742498E+02  0.00000000000E+00 0.  1.
         11    1    3    3    0    0  0.11724992982E+02 -0.44833273632E+01 -0.34987274652E+02  0.37171024636E+02  0.51100000000E-03 0. -1.
        -11    1    3    3    0    0  0.23946195871E+01 -0.62142575402E+01 -0.22198786250E+01  0.70199046371E+01  0.51100000000E-03 0.  1.
         12    1    3    3    0    0  0.79230967107E+00 -0.33452997835E+01 -0.10558368593E+01  0.35963282289E+01  0.00000000000E+00 0. -1.
</event>
<event>
 7    1  0.2740409E-010  0.4778727E+02  0.7816164E-02  0.1312668E+00
        -11   -1    0    0    0    0  0.00000000000E+00  0.00000000000E+00  0.45593999997E+02  0.45594000000E+02  0.51100000000E-03 0. -1.
         11   -1    0    0    0    0 -0.00000000000E+00 -0.00000000000E+00 -0.45593999997E+02  0.45594000000E+02  0.51100000000E-03 0.  1.
    9900012    2    1    2    0    0 -0.35141079041E+02 -0.20572219879E+02 -0.15017040814E+02  0.47787272106E+02  0.20000004842E+02 0.  0.
        -12    1    1    2    0    0  0.35141079041E+02  0.20572219879E+02  0.15017040814E+02  0.43400727894E+02  0.00000000000E+00 0.  1.
         11    1    3    3    0    0 -0.17165300317E+02 -0.10371166181E+01 -0.70453814230E+00  0.17211029025E+02  0.51100000000E-03 0. -1.
        -11    1    3    3    0    0 -0.17659919109E+02 -0.17857064948E+02 -0.14231886874E+02  0.28866834183E+02  0.51100000000E-03 0.  1.
         12    1    3    3    0    0 -0.31585961514E+00 -0.16780383125E+01 -0.80615797260E-01  0.17094088982E+01  0.00000000000E+00 0. -1.
</event>
<event>
 7    1  0.2740409E-010  0.4778727E+02  0.7816164E-02  0.1312668E+00
        -11   -1    0    0    0    0  0.00000000000E+00  0.00000000000E+00  0.45593999997E+02  0.45594000000E+02  0.51100000000E-03 0. -1.
         11   -1    0    0    0    0 -0.00000000000E+00 -0.00000000000E+00 -0.45593999997E+02  0.45594000000E+02  0.51100000000E-03 0.  1.
    9900012    2    1    2    0    0  0.20533668240E+02  0.13950974915E+02  0.35600028017E+02  0.47787271582E+02  0.20000002449E+02 0.  0.
        -12    1    1    2    0    0 -0.20533668240E+02 -0.13950974915E+02 -0.35600028017E+02  0.43400728418E+02  0.00000000000E+00 0.  1.
         11    1    3    3    0    0  0.10794864063E+02  0.70110719461E+01  0.13997312962E+02  0.19016019309E+02  0.51100000000E-03 0. -1.
        -11    1    3    3    0    0  0.24729876342E+01  0.44135920614E+01 -0.76593624049E+00  0.51168468132E+01  0.51100000000E-03 0.  1.
        -12    1    3    3    0    0  0.72658165427E+01  0.25263109071E+01  0.22368651296E+02  0.23654405459E+02  0.00000000000E+00 0.  1.
</event>
<event>
 7    1  0.2740409E-010  0.4778726E+02  0.7816164E-02  0.1312668E+00
        -11   -1    0    0    0    0  0.00000000000E+00  0.00000000000E+00  0.45593999997E+02  0.45594000000E+02  0.51100000000E-03 0.  1.
         11   -1    0    0    0    0 -0.00000000000E+00 -0.00000000000E+00 -0.45593999997E+02  0.45594000000E+02  0.51100000000E-03 0. -1.
    9900012    2    1    2    0    0 -0.13899404682E+02 -0.14358888601E+02 -0.38526004698E+02  0.47787260716E+02  0.19999952909E+02 0.  0.
        -12    1    1    2    0    0  0.13899404682E+02  0.14358888601E+02  0.38526004698E+02  0.43400739284E+02  0.00000000000E+00 0.  1.
         11    1    3    3    0    0  0.27988386887E+01 -0.68727225830E+00 -0.74052597574E-01  0.28829369071E+01  0.51100000000E-03 0. -1.
        -11    1    3    3    0    0  0.33398278404E-01 -0.36916804354E+01 -0.67882113554E+01  0.77271879458E+01  0.51100000000E-03 0.  1.
         12    1    3    3    0    0 -0.16731641649E+02 -0.99799359071E+01 -0.31663740746E+02  0.37177135863E+02  0.00000000000E+00 0. -1.
</event>
<event>
 7    1  0.2740409E-010  0.4778727E+02  0.7816164E-02  0.1312668E+00
        -11   -1    0    0    0    0  0.00000000000E+00  0.00000000000E+00  0.45593999997E+02  0.45594000000E+02  0.51100000000E-03 0. -1.
         11   -1    0    0    0    0 -0.00000000000E+00 -0.00000000000E+00 -0.45593999997E+02  0.45594000000E+02  0.51100000000E-03 0.  1.
    9900012    2    1    2    0    0 -0.19113482318E+02 -0.36568975638E+02  0.13453922033E+02  0.47787271853E+02  0.20000003689E+02 0.  0.
        -12    1    1    2    0    0  0.19113482318E+02  0.36568975638E+02 -0.13453922033E+02  0.43400728147E+02  0.00000000000E+00 0.  1.
         11    1    3    3    0    0 -0.83290968379E+01 -0.25042587782E+02  0.15221960440E+02  0.30466590503E+02  0.51100000000E-03 0. -1.
        -11    1    3    3    0    0 -0.88797274066E+01 -0.66137863737E+01  0.14193104893E+01  0.11162713449E+02  0.51100000000E-03 0.  1.
         12    1    3    3    0    0 -0.19046580736E+01 -0.49126014825E+01 -0.31873488954E+01  0.61579679022E+01  0.00000000000E+00 0. -1.
</event>
<event>
 7    1  0.2740409E-010  0.4778727E+02  0.7816164E-02  0.1312668E+00
        -11   -1    0    0    0    0  0.00000000000E+00  0.00000000000E+00  0.45593999997E+02  0.45594000000E+02  0.51100000000E-03 0. -1.
         11   -1    0    0    0    0 -0.00000000000E+00 -0.00000000000E+00 -0.45593999997E+02  0.45594000000E+02  0.51100000000E-03 0.  1.
    9900012    2    1    2    0    0  0.33419127831E+02  0.83182681821E+01  0.26411962194E+02  0.47787269159E+02  0.19999991404E+02 0.  0.
        -12    1    1    2    0    0 -0.33419127831E+02 -0.83182681821E+01 -0.26411962194E+02  0.43400730841E+02  0.00000000000E+00 0.  1.
         11    1    3    3    0    0  0.14703699599E+02 -0.22659856256E+01  0.19354879744E+02  0.24411981544E+02  0.51100000000E-03 0. -1.
        -11    1    3    3    0    0  0.82005260264E+01  0.53885237116E+01  0.25246447559E+00  0.98157299002E+01  0.51100000000E-03 0.  1.
        -12    1    3    3    0    0  0.10514902206E+02  0.51957300961E+01  0.68046179751E+01  0.13559557715E+02  0.00000000000E+00 0.  1.
</event>
<event>
 7    1  0.2740409E-010  0.4778727E+02  0.7816164E-02  0.1312668E+00
        -11   -1    0    0    0    0  0.00000000000E+00  0.00000000000E+00  0.45593999997E+02  0.45594000000E+02  0.51100000000E-03 0.  1.
         11   -1    0    0    0    0 -0.00000000000E+00 -0.00000000000E+00 -0.45593999997E+02  0.45594000000E+02  0.51100000000E-03 0. -1.
    9900012    2    1    2    0    0 -0.29021046359E+02  0.24043420210E+02 -0.21524781003E+02  0.47787269772E+02  0.19999994196E+02 0.  0.
        -12    1    1    2    0    0  0.29021046359E+02 -0.24043420210E+02  0.21524781003E+02  0.43400730228E+02  0.00000000000E+00 0.  1.
         11    1    3    3    0    0 -0.24356071196E+02  0.26532648583E+02 -0.17361281729E+02  0.39982668101E+02  0.51100000000E-03 0. -1.
        -11    1    3    3    0    0 -0.24531747753E+01 -0.27460638139E+01 -0.41896022043E+01  0.55777862849E+01  0.51100000000E-03 0.  1.
         12    1    3    3    0    0 -0.22118003878E+01  0.25683544039E+00  0.26102930576E-01  0.22268153856E+01  0.00000000000E+00 0. -1.
</event>
<event>
 7    1  0.2740409E-010  0.4778727E+02  0.7816164E-02  0.1312668E+00
        -11   -1    0    0    0    0  0.00000000000E+00  0.00000000000E+00  0.45593999997E+02  0.45594000000E+02  0.51100000000E-03 0.  1.
         11   -1    0    0    0    0 -0.00000000000E+00 -0.00000000000E+00 -0.45593999997E+02  0.45594000000E+02  0.51100000000E-03 0. -1.
    9900012    2    1    2    0    0  0.33301000527E+01  0.87754080915E+01 -0.42373645632E+02  0.47787271922E+02  0.20000004000E+02 0.  0.
        -12    1    1    2    0    0 -0.33301000527E+01 -0.87754080915E+01  0.42373645632E+02  0.43400728078E+02  0.00000000000E+00 0.  1.
         11    1    3    3    0    0  0.52037723529E+01  0.48616133835E+01 -0.31357089321E+02  0.32155584000E+02  0.51100000000E-03 0. -1.
        -11    1    3    3    0    0 -0.29395166687E+00  0.58436178486E+00  0.19996150307E+01  0.21038884976E+01  0.51100000000E-03 0.  1.
        -12    1    3    3    0    0 -0.15797206334E+01  0.33294329231E+01 -0.13016171342E+02  0.13527799424E+02  0.00000000000E+00 0.  1.
</event>
<event>
 7    1  0.2740409E-010  0.4778729E+02  0.7816164E-02  0.1312668E+00
        -11   -1    0    0    0    0  0.00000000000E+00  0.00000000000E+00  0.45593999997E+02  0.45594000000E+02  0.51100000000E-03 0.  1.
         11   -1    0    0    0    0 -0.00000000000E+00 -0.00000000000E+00 -0.45593999997E+02  0.45594000000E+02  0.51100000000E-03 0. -1.
    9900012    2    1    2    0    0 -0.13946533308E+02 -0.10952100347E+02 -0.39612711671E+02  0.47787294715E+02  0.20000107924E+02 0.  0.
        -12    1    1    2    0    0  0.13946533308E+02  0.10952100347E+02  0.39612711671E+02  0.43400705285E+02  0.00000000000E+00 0.  1.
         11    1    3    3    0    0  0.12315500383E+01  0.39439765035E+01 -0.75903717550E+01  0.86420720778E+01  0.51100000000E-03 0. -1.
        -11    1    3    3    0    0 -0.10051070145E+02 -0.46875375244E+01 -0.15613514644E+02  0.19151471456E+02  0.51100000000E-03 0.  1.
         12    1    3    3    0    0 -0.51270132018E+01 -0.10208539326E+02 -0.16408825271E+02  0.19993751182E+02  0.00000000000E+00 0. -1.
</event>
<event>
 7    1  0.2740409E-010  0.4778727E+02  0.7816164E-02  0.1312668E+00
        -11   -1    0    0    0    0  0.00000000000E+00  0.00000000000E+00  0.45593999997E+02  0.45594000000E+02  0.51100000000E-03 0.  1.
         11   -1    0    0    0    0 -0.00000000000E+00 -0.00000000000E+00 -0.45593999997E+02  0.45594000000E+02  0.51100000000E-03 0. -1.
    9900012    2    1    2    0    0 -0.14076316236E+01  0.36361345022E+02 -0.23653634343E+02  0.47787271248E+02  0.20000000929E+02 0.  0.
        -12    1    1    2    0    0  0.14076316236E+01 -0.36361345022E+02  0.23653634343E+02  0.43400728752E+02  0.00000000000E+00 0.  1.
         11    1    3    3    0    0  0.60310876647E+01  0.10014382793E+02 -0.27519196016E+01  0.12009785298E+02  0.51100000000E-03 0. -1.
        -11    1    3    3    0    0 -0.55914441118E+01  0.26559094938E+02 -0.19978532273E+02  0.33701506246E+02  0.51100000000E-03 0.  1.
        -12    1    3    3    0    0 -0.18472751764E+01 -0.21213270965E+00 -0.92318246805E+00  0.20759797044E+01  0.00000000000E+00 0.  1.
</event>
<event>
 7    1  0.2740409E-010  0.4778727E+02  0.7816164E-02  0.1312668E+00
        -11   -1    0    0    0    0  0.00000000000E+00  0.00000000000E+00  0.45593999997E+02  0.45594000000E+02  0.51100000000E-03 0.  1.
         11   -1    0    0    0    0 -0.00000000000E+00 -0.00000000000E+00 -0.45593999997E+02  0.45594000000E+02  0.51100000000E-03 0. -1.
    9900012    2    1    2    0    0  0.21790311350E+02  0.48173534187E+01 -0.37223630544E+02  0.47787271509E+02  0.20000002118E+02 0.  0.
        -12    1    1    2    0    0 -0.21790311350E+02 -0.48173534187E+01  0.37223630544E+02  0.43400728491E+02  0.00000000000E+00 0.  1.
         11    1    3    3    0    0  0.35442544935E+01  0.24624583128E+01 -0.55674891175E+01  0.70443151684E+01  0.51100000000E-03 0. -1.
        -11    1    3    3    0    0  0.18668139464E+01  0.71355547052E+01 -0.44054768509E+01  0.85912375015E+01  0.51100000000E-03 0.  1.
        -12    1    3    3    0    0  0.16379242910E+02 -0.47806595993E+01 -0.27250664576E+02  0.32151718839E+02  0.00000000000E+00 0.  1.
</event>
<event>
 7    1  0.2740409E-010  0.4778727E+02  0.7816164E-02  0.1312668E+00
        -11   -1    0    0    0    0  0.00000000000E+00  0.00000000000E+00  0.45593999997E+02  0.45594000000E+02  0.51100000000E-03 0.  1.
         11   -1    0    0    0    0 -0.00000000000E+00 -0.00000000000E+00 -0.45593999997E+02  0.45594000000E+02  0.51100000000E-03 0. -1.
    9900012    2    1    2    0    0 -0.32132362621E+02 -0.29157445448E+02 -0.98898246274E+00  0.47787269142E+02  0.19999991328E+02 0.  0.
        -12    1    1    2    0    0  0.32132362621E+02  0.29157445448E+02  0.98898246274E+00  0.43400730858E+02  0.00000000000E+00 0.  1.
         11    1    3    3    0    0 -0.26085605956E+02 -0.25477749846E+02  0.13108989608E+00  0.36463567572E+02  0.51100000000E-03 0. -1.
        -11    1    3    3    0    0 -0.50963000539E+01 -0.24423314470E+01  0.33634303208E+01  0.65764672067E+01  0.51100000000E-03 0.  1.
         12    1    3    3    0    0 -0.95045661171E+00 -0.12373641551E+01 -0.44835026796E+01  0.47472343634E+01  0.00000000000E+00 0. -1.
</event>
<event>
 7    1  0.2740409E-010  0.4778727E+02  0.7816164E-02  0.1312668E+00
        -11   -1    0    0    0    0  0.00000000000E+00  0.00000000000E+00  0.45593999997E+02  0.45594000000E+02  0.51100000000E-03 0. -1.
         11   -1    0    0    0    0 -0.00000000000E+00 -0.00000000000E+00 -0.45593999997E+02  0.45594000000E+02  0.51100000000E-03 0.  1.
    9900012    2    1    2    0    0  0.26141998215E+02 -0.30119989457E+02 -0.17117398556E+02  0.47787272254E+02  0.20000005514E+02 0.  0.
        -12    1    1    2    0    0 -0.26141998215E+02  0.30119989457E+02  0.17117398556E+02  0.43400727746E+02  0.00000000000E+00 0.  1.
         11    1    3    3    0    0  0.41496722829E+01  0.19778355577E+01 -0.30141380802E+01  0.54969666341E+01  0.51100000000E-03 0. -1.
        -11    1    3    3    0    0  0.30423659476E+01 -0.11449492066E+01  0.25419103316E+00  0.32606000349E+01  0.51100000000E-03 0.  1.
         12    1    3    3    0    0  0.18949959985E+02 -0.30952875808E+02 -0.14357451509E+02  0.39029705585E+02  0.00000000000E+00 0. -1.
</event>
<event>
 7    1  0.2740409E-010  0.4778726E+02  0.7816164E-02  0.1312668E+00
        -11   -1    0    0    0    0  0.00000000000E+00  0.00000000000E+00  0.45593999997E+02  0.45594000000E+02  0.51100000000E-03 0.  1.
         11   -1    0    0    0    0 -0.00000000000E+00 -0.00000000000E+00 -0.45593999997E+02  0.45594000000E+02  0.51100000000E-03 0. -1.
    9900012    2    1    2    0    0 -0.39486781064E+02 -0.16257372876E+02 -0.77534722252E+01  0.47787258265E+02  0.19999941733E+02 0.  0.
        -12    1    1    2    0    0  0.39486781064E+02  0.16257372876E+02  0.77534722252E+01  0.43400741735E+02  0.00000000000E+00 0.  1.
         11    1    3    3    0    0 -0.21294087890E+02 -0.10974040132E+02 -0.21721291820E+01  0.24053812200E+02  0.51100000000E-03 0. -1.
        -11    1    3    3    0    0 -0.75256140643E+01  0.33783559163E+01  0.13245576276E+01  0.83547955638E+01  0.51100000000E-03 0.  1.
        -12    1    3    3    0    0 -0.10667079110E+02 -0.86616886598E+01 -0.69059006708E+01  0.15378650501E+02  0.00000000000E+00 0.  1.
</event>
<event>
 7    1  0.2740409E-010  0.4778727E+02  0.7816164E-02  0.1312668E+00
        -11   -1    0    0    0    0  0.00000000000E+00  0.00000000000E+00  0.45593999997E+02  0.45594000000E+02  0.51100000000E-03 0.  1.
         11   -1    0    0    0    0 -0.00000000000E+00 -0.00000000000E+00 -0.45593999997E+02  0.45594000000E+02  0.51100000000E-03 0. -1.
    9900012    2    1    2    0    0 -0.26317443341E+02  0.34108892129E+02  0.52534472109E+01  0.47787273579E+02  0.20000011554E+02 0.  0.
        -12    1    1    2    0    0  0.26317443341E+02 -0.34108892129E+02 -0.52534472109E+01  0.43400726421E+02  0.00000000000E+00 0.  1.
         11    1    3    3    0    0 -0.35344128456E+01  0.39193646153E+00  0.27528678380E+01  0.44971068419E+01  0.51100000000E-03 0. -1.
        -11    1    3    3    0    0  0.17038232993E+00 -0.11281511220E+01 -0.86075697875E+00  0.14292158445E+01  0.51100000000E-03 0.  1.
         12    1    3    3    0    0 -0.22953412825E+02  0.34845106790E+02  0.33613363517E+01  0.41860950892E+02  0.00000000000E+00 0. -1.
</event>
<event>
 7    1  0.2740409E-010  0.4778724E+02  0.7816164E-02  0.1312668E+00
        -11   -1    0    0    0    0  0.00000000000E+00  0.00000000000E+00  0.45593999997E+02  0.45594000000E+02  0.51100000000E-03 0.  1.
         11   -1    0    0    0    0 -0.00000000000E+00 -0.00000000000E+00 -0.45593999997E+02  0.45594000000E+02  0.51100000000E-03 0. -1.
    9900012    2    1    2    0    0  0.19953277479E+02 -0.34452962353E+02  0.17276755284E+02  0.47787237677E+02  0.19999847866E+02 0.  0.
        -12    1    1    2    0    0 -0.19953277479E+02  0.34452962353E+02 -0.17276755284E+02  0.43400762323E+02  0.00000000000E+00 0.  1.
         11    1    3    3    0    0  0.12406947754E+02 -0.15102361056E+02  0.54320828214E+01  0.20285984967E+02  0.51100000000E-03 0. -1.
        -11    1    3    3    0    0 -0.49781917479E+00  0.11068057985E+01  0.39697733888E+01  0.41511376785E+01  0.51100000000E-03 0.  1.
        -12    1    3    3    0    0  0.80441489000E+01 -0.20457407095E+02  0.78748990742E+01  0.23350115032E+02  0.00000000000E+00 0.  1.
</event>
<event>
 7    1  0.2740409E-010  0.4778726E+02  0.7816164E-02  0.1312668E+00
        -11   -1    0    0    0    0  0.00000000000E+00  0.00000000000E+00  0.45593999997E+02  0.45594000000E+02  0.51100000000E-03 0.  1.
         11   -1    0    0    0    0 -0.00000000000E+00 -0.00000000000E+00 -0.45593999997E+02  0.45594000000E+02  0.51100000000E-03 0. -1.
    9900012    2    1    2    0    0  0.28247485934E+02 -0.21116013331E+02 -0.25294622021E+02  0.47787258258E+02  0.19999941699E+02 0.  0.
        -12    1    1    2    0    0 -0.28247485934E+02  0.21116013331E+02  0.25294622021E+02  0.43400741742E+02  0.00000000000E+00 0.  1.
         11    1    3    3    0    0  0.56069322244E+01 -0.88374778744E+01 -0.65060560475E+01  0.12323452021E+02  0.51100000000E-03 0. -1.
        -11    1    3    3    0    0 -0.19535860599E+01 -0.27034090174E+01 -0.54456090774E+00  0.33795658970E+01  0.51100000000E-03 0.  1.
        -12    1    3    3    0    0  0.24594139770E+02 -0.95751264389E+01 -0.18244005066E+02  0.32084240340E+02  0.00000000000E+00 0.  1.
</event>
<event>
 7    1  0.2740409E-010  0.4778727E+02  0.7816164E-02  0.1312668E+00
        -11   -1    0    0    0    0  0.00000000000E+00  0.00000000000E+00  0.45593999997E+02  0.45594000000E+02  0.51100000000E-03 0. -1.
         11   -1    0    0    0    0 -0.00000000000E+00 -0.00000000000E+00 -0.45593999997E+02  0.45594000000E+02  0.51100000000E-03 0.  1.
    9900012    2    1    2    0    0 -0.50563254712E+01 -0.43009897399E+02 -0.28645551830E+01  0.47787269845E+02  0.19999994533E+02 0.  0.
        -12    1    1    2    0    0  0.50563254712E+01  0.43009897399E+02  0.28645551830E+01  0.43400730155E+02  0.00000000000E+00 0.  1.
         11    1    3    3    0    0  0.26813493020E+00 -0.36351682804E+02 -0.54899722678E+01  0.36764881814E+02  0.51100000000E-03 0. -1.
        -11    1    3    3    0    0 -0.27056806513E+01 -0.52639274213E+01  0.45678171864E+01  0.74762687079E+01  0.51100000000E-03 0.  1.
        -12    1    3    3    0    0 -0.26187797502E+01 -0.13942871742E+01 -0.19424001016E+01  0.35461193238E+01  0.00000000000E+00 0.  1.
</event>
<event>
 7    1  0.2740409E-010  0.4778727E+02  0.7816164E-02  0.1312668E+00
        -11   -1    0    0    0    0  0.00000000000E+00  0.00000000000E+00  0.45593999997E+02  0.45594000000E+02  0.51100000000E-03 0.  1.
         11   -1    0    0    0    0 -0.00000000000E+00 -0.00000000000E+00 -0.45593999997E+02  0.45594000000E+02  0.51100000000E-03 0. -1.
    9900012    2    1    2    0    0 -0.38026601566E+02  0.16121763738E+02 -0.13330045001E+02  0.47787265071E+02  0.19999972764E+02 0.  0.
        -12    1    1    2    0    0  0.38026601566E+02 -0.16121763738E+02  0.13330045001E+02  0.43400734929E+02  0.00000000000E+00 0.  1.
         11    1    3    3    0    0 -0.83799689240E+01  0.59227176807E+01  0.40343622571E+01  0.11026266049E+02  0.51100000000E-03 0.  1.
        -11    1    3    3    0    0 -0.28182602857E+02  0.11473964677E+02 -0.15923825385E+02  0.34343546473E+02  0.51100000000E-03 0. -1.
        -12    1    3    3    0    0 -0.14640297848E+01 -0.12749186191E+01 -0.14405818723E+01  0.24174525491E+01  0.00000000000E+00 0.  1.
</event>
<event>
 7    1  0.2740409E-010  0.4778726E+02  0.7816164E-02  0.1312668E+00
        -11   -1    0    0    0    0  0.00000000000E+00  0.00000000000E+00  0.45593999997E+02  0.45594000000E+02  0.51100000000E-03 0. -1.
         11   -1    0    0    0    0 -0.00000000000E+00 -0.00000000000E+00 -0.45593999997E+02  0.45594000000E+02  0.51100000000E-03 0.  1.
    9900012    2    1    2    0    0 -0.30035468075E+02 -0.64556624866E+01 -0.30656468083E+02  0.47787263186E+02  0.19999964171E+02 0.  0.
        -12    1    1    2    0    0  0.30035468075E+02  0.64556624866E+01  0.30656468083E+02  0.43400736814E+02  0.00000000000E+00 0.  1.
         11    1    3    3    0    0 -0.26570273577E+01  0.13712738074E+01 -0.57566128454E+00  0.30449256821E+01  0.51100000000E-03 0. -1.
        -11    1    3    3    0    0  0.77277726584E-01  0.60054469409E+00 -0.92342009051E+01  0.92540311429E+01  0.51100000000E-03 0.  1.
        -12    1    3    3    0    0 -0.27455718444E+02 -0.84274809880E+01 -0.20846605894E+02  0.35488306361E+02  0.00000000000E+00 0.  1.
</event>
<event>
 7    1  0.2740409E-010  0.4778726E+02  0.7816164E-02  0.1312668E+00
        -11   -1    0    0    0    0  0.00000000000E+00  0.00000000000E+00  0.45593999997E+02  0.45594000000E+02  0.51100000000E-03 0.  1.
         11   -1    0    0    0    0 -0.00000000000E+00 -0.00000000000E+00 -0.45593999997E+02  0.45594000000E+02  0.51100000000E-03 0. -1.
    9900012    2    1    2    0    0 -0.20834483951E+02  0.30410189862E+02 -0.22907830928E+02  0.47787261679E+02  0.19999957299E+02 0.  0.
        -12    1    1    2    0    0  0.20834483951E+02 -0.30410189862E+02  0.22907830928E+02  0.43400738321E+02  0.00000000000E+00 0.  1.
         11    1    3    3    0    0  0.67977696252E+00  0.15691341311E+02 -0.84029896379E+01  0.17812650672E+02  0.51100000000E-03 0. -1.
        -11    1    3    3    0    0 -0.17970890946E+02  0.13145378016E+02 -0.13198233602E+02  0.25883339334E+02  0.51100000000E-03 0.  1.
        -12    1    3    3    0    0 -0.35433699678E+01  0.15734705350E+01 -0.13066076884E+01  0.40912716733E+01  0.00000000000E+00 0.  1.
</event>
<event>
 7    1  0.2740409E-010  0.4778727E+02  0.7816164E-02  0.1312668E+00
        -11   -1    0    0    0    0  0.00000000000E+00  0.00000000000E+00  0.45593999997E+02  0.45594000000E+02  0.51100000000E-03 0.  1.
         11   -1    0    0    0    0 -0.00000000000E+00 -0.00000000000E+00 -0.45593999997E+02  0.45594000000E+02  0.51100000000E-03 0. -1.
    9900012    2    1    2    0    0 -0.34946624521E+02 -0.25160401260E+02  0.54139828142E+01  0.47787267669E+02  0.19999984612E+02 0.  0.
        -12    1    1    2    0    0  0.34946624521E+02  0.25160401260E+02 -0.54139828142E+01  0.43400732331E+02  0.00000000000E+00 0.  1.
         11    1    3    3    0    0 -0.23351689380E+02 -0.15814944534E+02 -0.58835250384E+00  0.28209218820E+02  0.51100000000E-03 0. -1.
        -11    1    3    3    0    0 -0.44191120488E+01 -0.56588115027E+01  0.85058769346E+01  0.11131066508E+02  0.51100000000E-03 0.  1.
        -12    1    3    3    0    0 -0.71758230913E+01 -0.36866452229E+01 -0.25035416166E+01  0.84469823407E+01  0.00000000000E+00 0.  1.
</event>
<event>
 7    1  0.2740409E-010  0.4778728E+02  0.7816164E-02  0.1312668E+00
        -11   -1    0    0    0    0  0.00000000000E+00  0.00000000000E+00  0.45593999997E+02  0.45594000000E+02  0.51100000000E-03 0. -1.
         11   -1    0    0    0    0 -0.00000000000E+00 -0.00000000000E+00 -0.45593999997E+02  0.45594000000E+02  0.51100000000E-03 0.  1.
    9900012    2    1    2    0    0 -0.41537482647E+02 -0.16068405756E+01 -0.12477104579E+02  0.47787279500E+02  0.20000038552E+02 0.  0.
        -12    1    1    2    0    0  0.41537482647E+02  0.16068405756E+01  0.12477104579E+02  0.43400720500E+02  0.00000000000E+00 0.  1.
         11    1    3    3    0    0 -0.21276464660E+02  0.33484112180E+01  0.58203220587E+00  0.21546196135E+02  0.51100000000E-03 0. -1.
        -11    1    3    3    0    0 -0.32354736392E+01 -0.46649850172E+01 -0.40755496900E+01  0.69885964555E+01  0.51100000000E-03 0.  1.
         12    1    3    3    0    0 -0.17025544347E+02 -0.29026677640E+00 -0.89835870945E+01  0.19252486910E+02  0.00000000000E+00 0. -1.
</event>
<event>
 7    1  0.2740409E-010  0.4778727E+02  0.7816164E-02  0.1312668E+00
        -11   -1    0    0    0    0  0.00000000000E+00  0.00000000000E+00  0.45593999997E+02  0.45594000000E+02  0.51100000000E-03 0. -1.
         11   -1    0    0    0    0 -0.00000000000E+00 -0.00000000000E+00 -0.45593999997E+02  0.45594000000E+02  0.51100000000E-03 0.  1.
    9900012    2    1    2    0    0  0.97602994373E+01 -0.38602651138E+02  0.17268319388E+02  0.47787274494E+02  0.20000015728E+02 0.  0.
        -12    1    1    2    0    0 -0.97602994373E+01  0.38602651138E+02 -0.17268319388E+02  0.43400725506E+02  0.00000000000E+00 0.  1.
         11    1    3    3    0    0 -0.13204483816E+01 -0.25714954091E+02  0.11439268258E+02  0.28175508982E+02  0.51100000000E-03 0. -1.
        -11    1    3    3    0    0  0.22068399160E+01 -0.10201133285E+01 -0.17230399007E+01  0.29798725440E+01  0.51100000000E-03 0.  1.
         12    1    3    3    0    0  0.88739079029E+01 -0.11867583718E+02  0.75520910311E+01  0.16631892968E+02  0.00000000000E+00 0. -1.
</event>
<event>
 7    1  0.2740409E-010  0.4778728E+02  0.7816164E-02  0.1312668E+00
        -11   -1    0    0    0    0  0.00000000000E+00  0.00000000000E+00  0.45593999997E+02  0.45594000000E+02  0.51100000000E-03 0.  1.
         11   -1    0    0    0    0 -0.00000000000E+00 -0.00000000000E+00 -0.45593999997E+02  0.45594000000E+02  0.51100000000E-03 0. -1.
    9900012    2    1    2    0    0  0.18588887373E+02  0.11218197749E+02 -0.37579622918E+02  0.47787277043E+02  0.20000027351E+02 0.  0.
        -12    1    1    2    0    0 -0.18588887373E+02 -0.11218197749E+02  0.37579622918E+02  0.43400722957E+02  0.00000000000E+00 0.  1.
         11    1    3    3    0    0  0.18442686370E+02  0.72778761026E+01 -0.17725882759E+02  0.26595245458E+02  0.51100000000E-03 0. -1.
        -11    1    3    3    0    0  0.78077750878E+00  0.62961974825E+00  0.50570934457E-01  0.10042869242E+01  0.51100000000E-03 0.  1.
         12    1    3    3    0    0 -0.63457650590E+00  0.33107018978E+01 -0.19904311094E+02  0.20187744662E+02  0.00000000000E+00 0. -1.
</event>
<event>
 7    1  0.2740409E-010  0.4778727E+02  0.7816164E-02  0.1312668E+00
        -11   -1    0    0    0    0  0.00000000000E+00  0.00000000000E+00  0.45593999997E+02  0.45594000000E+02  0.51100000000E-03 0.  1.
         11   -1    0    0    0    0 -0.00000000000E+00 -0.00000000000E+00 -0.45593999997E+02  0.45594000000E+02  0.51100000000E-03 0. -1.
    9900012    2    1    2    0    0 -0.24383937933E+01  0.36291576409E+02 -0.23676972348E+02  0.47787270719E+02  0.19999998515E+02 0.  0.
        -12    1    1    2    0    0  0.24383937933E+01 -0.36291576409E+02  0.23676972348E+02  0.43400729281E+02  0.00000000000E+00 0.  1.
         11    1    3    3    0    0 -0.77929115648E+01  0.76492139049E+01 -0.81308874766E+01  0.13614377527E+02  0.51100000000E-03 0. -1.
        -11    1    3    3    0    0  0.31293949721E+01  0.17286093103E+02 -0.44086966797E+01  0.18111839618E+02  0.51100000000E-03 0.  1.
         12    1    3    3    0    0  0.22251227994E+01  0.11356269401E+02 -0.11137388192E+02  0.16061053574E+02  0.00000000000E+00 0. -1.
</event>
<event>
 7    1  0.2740409E-010  0.4778727E+02  0.7816164E-02  0.1312668E+00
        -11   -1    0    0    0    0  0.00000000000E+00  0.00000000000E+00  0.45593999997E+02  0.45594000000E+02  0.51100000000E-03 0.  1.
         11   -1    0    0    0    0 -0.00000000000E+00 -0.00000000000E+00 -0.45593999997E+02  0.45594000000E+02  0.51100000000E-03 0. -1.
    9900012    2    1    2    0    0  0.19240229464E+02  0.22856228175E+02 -0.31480625592E+02  0.47787269777E+02  0.19999994221E+02 0.  0.
        -12    1    1    2    0    0 -0.19240229464E+02 -0.22856228175E+02  0.31480625592E+02  0.43400730223E+02  0.00000000000E+00 0.  1.
         11    1    3    3    0    0 -0.26171737539E+00  0.75330747890E+01 -0.18618484614E+01  0.77641607219E+01  0.51100000000E-03 0. -1.
        -11    1    3    3    0    0 -0.90726384809E+00  0.22105252228E+01 -0.12500744179E+01  0.26967083197E+01  0.51100000000E-03 0.  1.
         12    1    3    3    0    0  0.20409210688E+02  0.13112628164E+02 -0.28368702713E+02  0.37326400735E+02  0.00000000000E+00 0. -1.
</event>
<event>
 7    1  0.2740409E-010  0.4778727E+02  0.7816164E-02  0.1312668E+00
        -11   -1    0    0    0    0  0.00000000000E+00  0.00000000000E+00  0.45593999997E+02  0.45594000000E+02  0.51100000000E-03 0.  1.
         11   -1    0    0    0    0 -0.00000000000E+00 -0.00000000000E+00 -0.45593999997E+02  0.45594000000E+02  0.51100000000E-03 0. -1.
    9900012    2    1    2    0    0 -0.52115673302E+01 -0.42244127741E+02  0.84791668887E+01  0.47787273810E+02  0.20000012611E+02 0.  0.
        -12    1    1    2    0    0  0.52115673302E+01  0.42244127741E+02 -0.84791668887E+01  0.43400726190E+02  0.00000000000E+00 0.  1.
         11    1    3    3    0    0 -0.36204979871E+00 -0.30542939765E+02  0.13483909581E+02  0.33388891378E+02  0.51100000000E-03 0. -1.
        -11    1    3    3    0    0  0.23655347894E+00 -0.96920295427E+00 -0.18635738945E+01  0.21138164150E+01  0.51100000000E-03 0.  1.
         12    1    3    3    0    0 -0.50860710104E+01 -0.10731985022E+02 -0.31411687977E+01  0.12284566018E+02  0.00000000000E+00 0. -1.
</event>
<event>
 7    1  0.2740409E-010  0.4778727E+02  0.7816164E-02  0.1312668E+00
        -11   -1    0    0    0    0  0.00000000000E+00  0.00000000000E+00  0.45593999997E+02  0.45594000000E+02  0.51100000000E-03 0. -1.
         11   -1    0    0    0    0 -0.00000000000E+00 -0.00000000000E+00 -0.45593999997E+02  0.45594000000E+02  0.51100000000E-03 0.  1.
    9900012    2    1    2    0    0  0.27007533817E+02  0.33900540211E+02  0.22293253248E+01  0.47787269581E+02  0.19999993329E+02 0.  0.
        -12    1    1    2    0    0 -0.27007533817E+02 -0.33900540211E+02 -0.22293253248E+01  0.43400730419E+02  0.00000000000E+00 0.  1.
         11    1    3    3    0    0 -0.78006216770E+00  0.61310389637E+01  0.40711140062E+01  0.74008178786E+01  0.51100000000E-03 0. -1.
        -11    1    3    3    0    0  0.31878019078E+01  0.80913167751E+01 -0.18167168649E+01  0.88843654014E+01  0.51100000000E-03 0.  1.
         12    1    3    3    0    0  0.24599794077E+02  0.19678184472E+02 -0.25071816564E-01  0.31502086301E+02  0.00000000000E+00 0. -1.
</event>
<event>
 7    1  0.2740409E-010  0.4778726E+02  0.7816164E-02  0.1312668E+00
        -11   -1    0    0    0    0  0.00000000000E+00  0.00000000000E+00  0.45593999997E+02  0.45594000000E+02  0.51100000000E-03 0.  1.
         11   -1    0    0    0    0 -0.00000000000E+00 -0.00000000000E+00 -0.45593999997E+02  0.45594000000E+02  0.51100000000E-03 0. -1.
    9900012    2    1    2    0    0 -0.21889453753E+02 -0.19125458424E+02 -0.32228759605E+02  0.47787259325E+02  0.19999946564E+02 0.  0.
        -12    1    1    2    0    0  0.21889453753E+02  0.19125458424E+02  0.32228759605E+02  0.43400740675E+02  0.00000000000E+00 0.  1.
         11    1    3    3    0    0 -0.14790456418E+02 -0.13840592507E+02 -0.27740386789E+02  0.34348925186E+02  0.51100000000E-03 0. -1.
        -11    1    3    3    0    0  0.32971895448E+00  0.20674084970E+01 -0.80721880695E-01  0.20950915888E+01  0.51100000000E-03 0.  1.
        -12    1    3    3    0    0 -0.74287162901E+01 -0.73522744134E+01 -0.44076509348E+01  0.11343242549E+02  0.00000000000E+00 0.  1.
</event>
<event>
 7    1  0.2740409E-010  0.4778727E+02  0.7816164E-02  0.1312668E+00
        -11   -1    0    0    0    0  0.00000000000E+00  0.00000000000E+00  0.45593999997E+02  0.45594000000E+02  0.51100000000E-03 0.  1.
         11   -1    0    0    0    0 -0.00000000000E+00 -0.00000000000E+00 -0.45593999997E+02  0.45594000000E+02  0.51100000000E-03 0. -1.
    9900012    2    1    2    0    0 -0.37997150955E+02  0.47455850296E+01 -0.20428390907E+02  0.47787271745E+02  0.20000003196E+02 0.  0.
        -12    1    1    2    0    0  0.37997150955E+02 -0.47455850296E+01  0.20428390907E+02  0.43400728255E+02  0.00000000000E+00 0.  1.
         11    1    3    3    0    0 -0.14909635598E+02 -0.19308678060E+01 -0.70167381276E+01  0.16590964359E+02  0.51100000000E-03 0.  1.
        -11    1    3    3    0    0 -0.54146790077E+01 -0.25850337453E+01 -0.89104829480E+01  0.10742339356E+02  0.51100000000E-03 0. -1.
        -12    1    3    3    0    0 -0.17672836350E+02  0.92614865809E+01 -0.45011698314E+01  0.20453968030E+02  0.00000000000E+00 0.  1.
</event>
<event>
 7    1  0.2740409E-010  0.4778727E+02  0.7816164E-02  0.1312668E+00
        -11   -1    0    0    0    0  0.00000000000E+00  0.00000000000E+00  0.45593999997E+02  0.45594000000E+02  0.51100000000E-03 0.  1.
         11   -1    0    0    0    0 -0.00000000000E+00 -0.00000000000E+00 -0.45593999997E+02  0.45594000000E+02  0.51100000000E-03 0. -1.
    9900012    2    1    2    0    0 -0.14040975083E+01 -0.12318517298E+02 -0.41592136992E+02  0.47787271690E+02  0.20000002944E+02 0.  0.
        -12    1    1    2    0    0  0.14040975083E+01  0.12318517298E+02  0.41592136992E+02  0.43400728310E+02  0.00000000000E+00 0.  1.
         11    1    3    3    0    0 -0.32139643951E+01  0.34820392357E+01 -0.12470228704E+02  0.13340193723E+02  0.51100000000E-03 0. -1.
        -11    1    3    3    0    0 -0.90608947833E+00  0.78973597513E+00 -0.60949225890E+00  0.13476505956E+01  0.51100000000E-03 0.  1.
         12    1    3    3    0    0  0.27159563651E+01 -0.16590292509E+02 -0.28512416029E+02  0.33099427372E+02  0.00000000000E+00 0. -1.
</event>
<event>
 7    1  0.2740409E-010  0.4778733E+02  0.7816164E-02  0.1312667E+00
        -11   -1    0    0    0    0  0.00000000000E+00  0.00000000000E+00  0.45593999997E+02  0.45594000000E+02  0.51100000000E-03 0. -1.
         11   -1    0    0    0    0 -0.00000000000E+00 -0.00000000000E+00 -0.45593999997E+02  0.45594000000E+02  0.51100000000E-03 0.  1.
    9900012    2    1    2    0    0 -0.15963025195E+02  0.25729947624E+02  0.31092918195E+02  0.47787332493E+02  0.20000280167E+02 0.  0.
        -12    1    1    2    0    0  0.15963025195E+02 -0.25729947624E+02 -0.31092918195E+02  0.43400667507E+02  0.00000000000E+00 0.  1.
         11    1    3    3    0    0 -0.10583135544E+02  0.17980437837E+02  0.10689941739E+02  0.23442989514E+02  0.51100000000E-03 0. -1.
        -11    1    3    3    0    0 -0.48183757850E+01  0.62205651075E+01  0.21139779146E+02  0.22556649531E+02  0.51100000000E-03 0.  1.
        -12    1    3    3    0    0 -0.56151386647E+00  0.15289446804E+01 -0.73680269000E+00  0.17876934474E+01  0.00000000000E+00 0.  1.
</event>
<event>
 7    1  0.2740409E-010  0.4778727E+02  0.7816164E-02  0.1312668E+00
        -11   -1    0    0    0    0  0.00000000000E+00  0.00000000000E+00  0.45593999997E+02  0.45594000000E+02  0.51100000000E-03 0.  1.
         11   -1    0    0    0    0 -0.00000000000E+00 -0.00000000000E+00 -0.45593999997E+02  0.45594000000E+02  0.51100000000E-03 0. -1.
    9900012    2    1    2    0    0  0.10315406291E+02 -0.28010135111E+02 -0.31506317401E+02  0.47787270604E+02  0.19999997993E+02 0.  0.
        -12    1    1    2    0    0 -0.10315406291E+02  0.28010135111E+02  0.31506317401E+02  0.43400729396E+02  0.00000000000E+00 0.  1.
         11    1    3    3    0    0  0.17867588714E+01 -0.19421310375E+01 -0.54008092663E+01  0.60110831989E+01  0.51100000000E-03 0. -1.
        -11    1    3    3    0    0  0.95455872178E+01 -0.19632589543E+02 -0.27502021209E+02  0.35112931782E+02  0.51100000000E-03 0.  1.
        -12    1    3    3    0    0 -0.10169397982E+01 -0.64354145304E+01  0.13965130741E+01  0.66632556230E+01  0.00000000000E+00 0.  1.
</event>
<event>
 7    1  0.2740409E-010  0.4778727E+02  0.7816164E-02  0.1312668E+00
        -11   -1    0    0    0    0  0.00000000000E+00  0.00000000000E+00  0.45593999997E+02  0.45594000000E+02  0.51100000000E-03 0.  1.
         11   -1    0    0    0    0 -0.00000000000E+00 -0.00000000000E+00 -0.45593999997E+02  0.45594000000E+02  0.51100000000E-03 0. -1.
    9900012    2    1    2    0    0  0.17368544991E+02  0.25369106454E+01 -0.39692836151E+02  0.47787268296E+02  0.19999987471E+02 0.  0.
        -12    1    1    2    0    0 -0.17368544991E+02 -0.25369106454E+01  0.39692836151E+02  0.43400731704E+02  0.00000000000E+00 0.  1.
         11    1    3    3    0    0  0.52557349660E+01  0.52315545472E+01 -0.25751381397E+02  0.26797864787E+02  0.51100000000E-03 0. -1.
        -11    1    3    3    0    0  0.23799764741E+01  0.16707920601E+01  0.58595709503E+00  0.29663411981E+01  0.51100000000E-03 0.  1.
         12    1    3    3    0    0  0.97328335506E+01 -0.43654359618E+01 -0.14527411848E+02  0.18023062311E+02  0.00000000000E+00 0. -1.
</event>
<event>
 7    1  0.2740409E-010  0.4778727E+02  0.7816164E-02  0.1312668E+00
        -11   -1    0    0    0    0  0.00000000000E+00  0.00000000000E+00  0.45593999997E+02  0.45594000000E+02  0.51100000000E-03 0.  1.
         11   -1    0    0    0    0 -0.00000000000E+00 -0.00000000000E+00 -0.45593999997E+02  0.45594000000E+02  0.51100000000E-03 0. -1.
    9900012    2    1    2    0    0 -0.40818500192E+02 -0.84105013316E+00 -0.14722970062E+02  0.47787272233E+02  0.20000005420E+02 0.  0.
        -12    1    1    2    0    0  0.40818500192E+02  0.84105013316E+00  0.14722970062E+02  0.43400727767E+02  0.00000000000E+00 0.  1.
         11    1    3    3    0    0 -0.15146736567E+02 -0.53806743112E+01 -0.12322053431E+02  0.20253599327E+02  0.51100000000E-03 0. -1.
        -11    1    3    3    0    0  0.17167044791E+00 -0.94333614121E+00  0.22484377642E+00  0.98483948079E+00  0.51100000000E-03 0.  1.
         12    1    3    3    0    0 -0.25843434073E+02  0.54829603192E+01 -0.26257604070E+01  0.26548833426E+02  0.00000000000E+00 0. -1.
</event>
<event>
 7    1  0.2740409E-010  0.4778727E+02  0.7816164E-02  0.1312668E+00
        -11   -1    0    0    0    0  0.00000000000E+00  0.00000000000E+00  0.45593999997E+02  0.45594000000E+02  0.51100000000E-03 0. -1.
         11   -1    0    0    0    0 -0.00000000000E+00 -0.00000000000E+00 -0.45593999997E+02  0.45594000000E+02  0.51100000000E-03 0.  1.
    9900012    2    1    2    0    0 -0.27753473412E+02 -0.29741728502E+02 -0.15126056766E+02  0.47787270812E+02  0.19999998940E+02 0.  0.
        -12    1    1    2    0    0  0.27753473412E+02  0.29741728502E+02  0.15126056766E+02  0.43400729188E+02  0.00000000000E+00 0.  1.
         11    1    3    3    0    0  0.15612327715E+00 -0.17316401268E+01 -0.48338962368E+00  0.18046101506E+01  0.51100000000E-03 0.  1.
        -11    1    3    3    0    0 -0.10246183172E+02 -0.22673418729E+02 -0.10855184026E+02  0.27145961153E+02  0.51100000000E-03 0. -1.
        -12    1    3    3    0    0 -0.17663413517E+02 -0.53366696471E+01 -0.37874831169E+01  0.18836699508E+02  0.00000000000E+00 0.  1.
</event>
<event>
 7    1  0.2740409E-010  0.4778727E+02  0.7816164E-02  0.1312668E+00
        -11   -1    0    0    0    0  0.00000000000E+00  0.00000000000E+00  0.45593999997E+02  0.45594000000E+02  0.51100000000E-03 0. -1.
         11   -1    0    0    0    0 -0.00000000000E+00 -0.00000000000E+00 -0.45593999997E+02  0.45594000000E+02  0.51100000000E-03 0.  1.
    9900012    2    1    2    0    0 -0.25076395936E+02 -0.19900179313E+02  0.29304956622E+02  0.47787271291E+02  0.20000001125E+02 0.  0.
        -12    1    1    2    0    0  0.25076395936E+02  0.19900179313E+02 -0.29304956622E+02  0.43400728709E+02  0.00000000000E+00 0.  1.
         11    1    3    3    0    0 -0.41864711653E+01 -0.15435452843E+02  0.14956265455E+02  0.21896794786E+02  0.51100000000E-03 0. -1.
        -11    1    3    3    0    0 -0.74783755685E+01 -0.11082490790E+01  0.35727866943E+01  0.83617654947E+01  0.51100000000E-03 0.  1.
         12    1    3    3    0    0 -0.13411549202E+02 -0.33564773917E+01  0.10775904472E+02  0.17528711010E+02  0.00000000000E+00 0. -1.
</event>
<event>
 7    1  0.2740409E-010  0.4778727E+02  0.7816164E-02  0.1312668E+00
        -11   -1    0    0    0    0  0.00000000000E+00  0.00000000000E+00  0.45593999997E+02  0.45594000000E+02  0.51100000000E-03 0. -1.
         11   -1    0    0    0    0 -0.00000000000E+00 -0.00000000000E+00 -0.45593999997E+02  0.45594000000E+02  0.51100000000E-03 0.  1.
    9900012    2    1    2    0    0 -0.34744500196E+02  0.10094645430E+02  0.23969589272E+02  0.47787269936E+02  0.19999994947E+02 0.  0.
        -12    1    1    2    0    0  0.34744500196E+02 -0.10094645430E+02 -0.23969589272E+02  0.43400730064E+02  0.00000000000E+00 0.  1.
         11    1    3    3    0    0 -0.12204460544E+02  0.36141963390E+01  0.23478957341E+00  0.12730530183E+02  0.51100000000E-03 0. -1.
        -11    1    3    3    0    0  0.83640663421E+00  0.11651441664E+01  0.17550577805E+00  0.14449704237E+01  0.51100000000E-03 0.  1.
         12    1    3    3    0    0 -0.23376446286E+02  0.53153049247E+01  0.23559293920E+02  0.33611769329E+02  0.00000000000E+00 0. -1.
</event>
<event>
 7    1  0.2740409E-010  0.4778726E+02  0.7816164E-02  0.1312668E+00
        -11   -1    0    0    0    0  0.00000000000E+00  0.00000000000E+00  0.45593999997E+02  0.45594000000E+02  0.51100000000E-03 0.  1.
         11   -1    0    0    0    0 -0.00000000000E+00 -0.00000000000E+00 -0.45593999997E+02  0.45594000000E+02  0.51100000000E-03 0. -1.
    9900012    2    1    2    0    0 -0.20525704918E+02  0.22210305644E+02 -0.31129112412E+02  0.47787264076E+02  0.19999968229E+02 0.  0.
        -12    1    1    2    0    0  0.20525704918E+02 -0.22210305644E+02  0.31129112412E+02  0.43400735924E+02  0.00000000000E+00 0.  1.
         11    1    3    3    0    0 -0.31496779815E+01  0.93351446529E+01 -0.45052549624E+01  0.10833407572E+02  0.51100000000E-03 0. -1.
        -11    1    3    3    0    0 -0.48924364578E+01 -0.27399465402E+01 -0.51327375371E+01  0.76018574324E+01  0.51100000000E-03 0.  1.
        -12    1    3    3    0    0 -0.12483590478E+02  0.15615107531E+02 -0.21491119912E+02  0.29351999072E+02  0.00000000000E+00 0.  1.
</event>
<event>
 7    1  0.2740409E-010  0.4778727E+02  0.7816164E-02  0.1312668E+00
        -11   -1    0    0    0    0  0.00000000000E+00  0.00000000000E+00  0.45593999997E+02  0.45594000000E+02  0.51100000000E-03 0.  1.
         11   -1    0    0    0    0 -0.00000000000E+00 -0.00000000000E+00 -0.45593999997E+02  0.45594000000E+02  0.51100000000E-03 0. -1.
    9900012    2    1    2    0    0 -0.26723506314E+02  0.23962453113E+02 -0.24398325586E+02  0.47787271431E+02  0.20000001762E+02 0.  0.
        -12    1    1    2    0    0  0.26723506314E+02 -0.23962453113E+02  0.24398325586E+02  0.43400728569E+02  0.00000000000E+00 0.  1.
         11    1    3    3    0    0 -0.15220580216E+02  0.76693838117E+01 -0.17378912355E+02  0.24341571540E+02  0.51100000000E-03 0. -1.
        -11    1    3    3    0    0  0.14025602691E+01  0.50275841792E+01 -0.20616067378E+01  0.56119515848E+01  0.51100000000E-03 0.  1.
         12    1    3    3    0    0 -0.12905486367E+02  0.11265485123E+02 -0.49578064940E+01  0.17833748306E+02  0.00000000000E+00 0. -1.
</event>
<event>
 7    1  0.2740409E-010  0.4778727E+02  0.7816164E-02  0.1312668E+00
        -11   -1    0    0    0    0  0.00000000000E+00  0.00000000000E+00  0.45593999997E+02  0.45594000000E+02  0.51100000000E-03 0. -1.
         11   -1    0    0    0    0 -0.00000000000E+00 -0.00000000000E+00 -0.45593999997E+02  0.45594000000E+02  0.51100000000E-03 0.  1.
    9900012    2    1    2    0    0 -0.23111626257E+02 -0.29483869479E+02  0.21912943795E+02  0.47787274966E+02  0.20000017881E+02 0.  0.
        -12    1    1    2    0    0  0.23111626257E+02  0.29483869479E+02 -0.21912943795E+02  0.43400725034E+02  0.00000000000E+00 0.  1.
         11    1    3    3    0    0 -0.20152589647E+02 -0.13159420977E+02  0.19318004209E+02  0.30862315480E+02  0.51100000000E-03 0. -1.
        -11    1    3    3    0    0 -0.26665508196E+01 -0.10454120944E+02  0.10017423810E+01  0.10835249237E+02  0.51100000000E-03 0.  1.
         12    1    3    3    0    0 -0.29248579023E+00 -0.58703275579E+01  0.15931972059E+01  0.60897102485E+01  0.00000000000E+00 0. -1.
</event>
<event>
 7    1  0.2740409E-010  0.4778727E+02  0.7816164E-02  0.1312668E+00
        -11   -1    0    0    0    0  0.00000000000E+00  0.00000000000E+00  0.45593999997E+02  0.45594000000E+02  0.51100000000E-03 0.  1.
         11   -1    0    0    0    0 -0.00000000000E+00 -0.00000000000E+00 -0.45593999997E+02  0.45594000000E+02  0.51100000000E-03 0. -1.
    9900012    2    1    2    0    0  0.25926061552E+01 -0.43316868493E+02  0.74197173135E+00  0.47787271611E+02  0.20000002582E+02 0.  0.
        -12    1    1    2    0    0 -0.25926061552E+01  0.43316868493E+02 -0.74197173135E+00  0.43400728389E+02  0.00000000000E+00 0.  1.
         11    1    3    3    0    0 -0.25369915330E+01 -0.34506103809E+02  0.59602334573E+01  0.35108857988E+02  0.51100000000E-03 0. -1.
        -11    1    3    3    0    0  0.43258029723E+01 -0.81342535302E+01 -0.63073499290E+01  0.11165183171E+02  0.51100000000E-03 0.  1.
        -12    1    3    3    0    0  0.80379471598E+00 -0.67651115346E+00  0.10890882030E+01  0.15132304518E+01  0.00000000000E+00 0.  1.
</event>
<event>
 7    1  0.2740409E-010  0.4778727E+02  0.7816164E-02  0.1312668E+00
        -11   -1    0    0    0    0  0.00000000000E+00  0.00000000000E+00  0.45593999997E+02  0.45594000000E+02  0.51100000000E-03 0.  1.
         11   -1    0    0    0    0 -0.00000000000E+00 -0.00000000000E+00 -0.45593999997E+02  0.45594000000E+02  0.51100000000E-03 0. -1.
    9900012    2    1    2    0    0 -0.13052112200E+01  0.34769048573E+02 -0.25942888287E+02  0.47787265355E+02  0.19999974061E+02 0.  0.
        -12    1    1    2    0    0  0.13052112200E+01 -0.34769048573E+02  0.25942888287E+02  0.43400734645E+02  0.00000000000E+00 0.  1.
         11    1    3    3    0    0 -0.36642350862E+01  0.65094880042E+01 -0.66078949954E+01  0.99731805045E+01  0.51100000000E-03 0. -1.
        -11    1    3    3    0    0 -0.11897516987E+01  0.28276805856E+02 -0.19316103250E+02  0.34265217110E+02  0.51100000000E-03 0.  1.
        -12    1    3    3    0    0  0.35487755649E+01 -0.17245287231E-01 -0.18890041086E-01  0.35488677411E+01  0.00000000000E+00 0.  1.
</event>
<event>
 7    1  0.2740409E-010  0.4778727E+02  0.7816164E-02  0.1312668E+00
        -11   -1    0    0    0    0  0.00000000000E+00  0.00000000000E+00  0.45593999997E+02  0.45594000000E+02  0.51100000000E-03 0. -1.
         11   -1    0    0    0    0 -0.00000000000E+00 -0.00000000000E+00 -0.45593999997E+02  0.45594000000E+02  0.51100000000E-03 0.  1.
    9900012    2    1    2    0    0 -0.66849182516E+01 -0.42867737429E+02  0.11367517453E+01  0.47787271333E+02  0.20000001315E+02 0.  0.
        -12    1    1    2    0    0  0.66849182516E+01  0.42867737429E+02 -0.11367517453E+01  0.43400728667E+02  0.00000000000E+00 0.  1.
         11    1    3    3    0    0 -0.91984928616E+01 -0.17664491986E+02  0.59401741551E+00  0.19924843914E+02  0.51100000000E-03 0. -1.
        -11    1    3    3    0    0  0.71878236085E+01 -0.14898073774E+02  0.34863976424E+00  0.16545058487E+02  0.51100000000E-03 0.  1.
        -12    1    3    3    0    0 -0.46742489986E+01 -0.10305171669E+02  0.19409456557E+00  0.11317368931E+02  0.00000000000E+00 0.  1.
</event>
<event>
 7    1  0.2740409E-010  0.4778727E+02  0.7816164E-02  0.1312668E+00
        -11   -1    0    0    0    0  0.00000000000E+00  0.00000000000E+00  0.45593999997E+02  0.45594000000E+02  0.51100000000E-03 0.  1.
         11   -1    0    0    0    0 -0.00000000000E+00 -0.00000000000E+00 -0.45593999997E+02  0.45594000000E+02  0.51100000000E-03 0. -1.
    9900012    2    1    2    0    0 -0.40135848884E+02 -0.12609235613E+02 -0.10665085554E+02  0.47787271455E+02  0.20000001870E+02 0.  0.
        -12    1    1    2    0    0  0.40135848884E+02  0.12609235613E+02  0.10665085554E+02  0.43400728545E+02  0.00000000000E+00 0.  1.
         11    1    3    3    0    0 -0.17281755553E+02 -0.13272371282E+02 -0.67057911252E+01  0.22798740082E+02  0.51100000000E-03 0. -1.
        -11    1    3    3    0    0 -0.15392532655E+02  0.28653702554E+01 -0.62808289358E+01  0.16869772394E+02  0.51100000000E-03 0.  1.
        -12    1    3    3    0    0 -0.74615606754E+01 -0.22022345869E+01  0.23215345069E+01  0.81187589788E+01  0.00000000000E+00 0.  1.
</event>
<event>
 7    1  0.2740409E-010  0.4778727E+02  0.7816164E-02  0.1312668E+00
        -11   -1    0    0    0    0  0.00000000000E+00  0.00000000000E+00  0.45593999997E+02  0.45594000000E+02  0.51100000000E-03 0.  1.
         11   -1    0    0    0    0 -0.00000000000E+00 -0.00000000000E+00 -0.45593999997E+02  0.45594000000E+02  0.51100000000E-03 0. -1.
    9900012    2    1    2    0    0 -0.41169476786E+01  0.21521620967E+02 -0.37463232420E+02  0.47787271774E+02  0.20000003325E+02 0.  0.
        -12    1    1    2    0    0  0.41169476786E+01 -0.21521620967E+02  0.37463232420E+02  0.43400728226E+02  0.00000000000E+00 0.  1.
         11    1    3    3    0    0 -0.79850455940E+01  0.19617545343E+02 -0.25626702985E+02  0.33246608016E+02  0.51100000000E-03 0. -1.
        -11    1    3    3    0    0  0.22791833717E+01 -0.26168702788E+01 -0.64999163667E+01  0.73682833776E+01  0.51100000000E-03 0.  1.
        -12    1    3    3    0    0  0.15889145437E+01  0.45209459020E+01 -0.53366130683E+01  0.71723803801E+01  0.00000000000E+00 0.  1.
</event>
<event>
 7    1  0.2740409E-010  0.4778727E+02  0.7816164E-02  0.1312668E+00
        -11   -1    0    0    0    0  0.00000000000E+00  0.00000000000E+00  0.45593999997E+02  0.45594000000E+02  0.51100000000E-03 0.  1.
         11   -1    0    0    0    0 -0.00000000000E+00 -0.00000000000E+00 -0.45593999997E+02  0.45594000000E+02  0.51100000000E-03 0. -1.
    9900012    2    1    2    0    0 -0.15505576937E+02 -0.14326676936E+02 -0.37920263977E+02  0.47787274104E+02  0.20000013950E+02 0.  0.
        -12    1    1    2    0    0  0.15505576937E+02  0.14326676936E+02  0.37920263977E+02  0.43400725896E+02  0.00000000000E+00 0.  1.
         11    1    3    3    0    0 -0.12149482292E+02 -0.94714328653E+01 -0.31407921463E+02  0.34982502646E+02  0.51100000000E-03 0. -1.
        -11    1    3    3    0    0 -0.42797874732E+00 -0.68756641204E+01 -0.22373935313E+01  0.72431935622E+01  0.51100000000E-03 0.  1.
        -12    1    3    3    0    0 -0.29281158979E+01  0.20204200494E+01 -0.42749489829E+01  0.55615778960E+01  0.00000000000E+00 0.  1.
</event>
<event>
 7    1  0.2740409E-010  0.4778728E+02  0.7816164E-02  0.1312668E+00
        -11   -1    0    0    0    0  0.00000000000E+00  0.00000000000E+00  0.45593999997E+02  0.45594000000E+02  0.51100000000E-03 0. -1.
         11   -1    0    0    0    0 -0.00000000000E+00 -0.00000000000E+00 -0.45593999997E+02  0.45594000000E+02  0.51100000000E-03 0.  1.
    9900012    2    1    2    0    0  0.78930612333E+01  0.15580592209E+02  0.39731185922E+02  0.47787281066E+02  0.20000045692E+02 0.  0.
        -12    1    1    2    0    0 -0.78930612333E+01 -0.15580592209E+02 -0.39731185922E+02  0.43400718934E+02  0.00000000000E+00 0.  1.
         11    1    3    3    0    0  0.74262542273E+01  0.10692576574E+02  0.38556779353E+02  0.40695278350E+02  0.51100000000E-03 0. -1.
        -11    1    3    3    0    0  0.25324233018E+01  0.13857296653E+01  0.10963208055E+00  0.28888464721E+01  0.51100000000E-03 0.  1.
         12    1    3    3    0    0 -0.20656162959E+01  0.35022859704E+01  0.10647744882E+01  0.42031562440E+01  0.00000000000E+00 0. -1.
</event>
<event>
 7    1  0.2740409E-010  0.4778727E+02  0.7816164E-02  0.1312668E+00
        -11   -1    0    0    0    0  0.00000000000E+00  0.00000000000E+00  0.45593999997E+02  0.45594000000E+02  0.51100000000E-03 0.  1.
         11   -1    0    0    0    0 -0.00000000000E+00 -0.00000000000E+00 -0.45593999997E+02  0.45594000000E+02  0.51100000000E-03 0. -1.
    9900012    2    1    2    0    0 -0.17675549333E+02  0.12995943579E+02 -0.37447346159E+02  0.47787270420E+02  0.19999997152E+02 0.  0.
        -12    1    1    2    0    0  0.17675549333E+02 -0.12995943579E+02  0.37447346159E+02  0.43400729580E+02  0.00000000000E+00 0.  1.
         11    1    3    3    0    0 -0.15904038847E+02  0.15537095786E+02 -0.21192294565E+02  0.30715682417E+02  0.51100000000E-03 0. -1.
        -11    1    3    3    0    0 -0.59244671038E+00 -0.35748146807E+01 -0.10548155440E+02  0.11153200283E+02  0.51100000000E-03 0.  1.
         12    1    3    3    0    0 -0.11790637754E+01  0.10336624741E+01 -0.57068961532E+01  0.59183877197E+01  0.00000000000E+00 0. -1.
</event>
<event>
 7    1  0.2740409E-010  0.4778727E+02  0.7816164E-02  0.1312668E+00
        -11   -1    0    0    0    0  0.00000000000E+00  0.00000000000E+00  0.45593999997E+02  0.45594000000E+02  0.51100000000E-03 0.  1.
         11   -1    0    0    0    0 -0.00000000000E+00 -0.00000000000E+00 -0.45593999997E+02  0.45594000000E+02  0.51100000000E-03 0. -1.
    9900012    2    1    2    0    0  0.56602879450E+01 -0.41214784494E+02 -0.12366330120E+02  0.47787269117E+02  0.19999991213E+02 0.  0.
        -12    1    1    2    0    0 -0.56602879450E+01  0.41214784494E+02  0.12366330120E+02  0.43400730883E+02  0.00000000000E+00 0.  1.
         11    1    3    3    0    0  0.12560424697E+01 -0.79698463518E+01  0.37202812624E+01  0.88846264124E+01  0.51100000000E-03 0.  1.
        -11    1    3    3    0    0  0.73601537555E+01 -0.29323073210E+02 -0.15446370682E+02  0.33950034658E+02  0.51100000000E-03 0. -1.
         12    1    3    3    0    0 -0.29559082803E+01 -0.39218649328E+01 -0.64024070084E+00  0.49526080470E+01  0.00000000000E+00 0. -1.
</event>
<event>
 7    1  0.2740409E-010  0.4778727E+02  0.7816164E-02  0.1312668E+00
        -11   -1    0    0    0    0  0.00000000000E+00  0.00000000000E+00  0.45593999997E+02  0.45594000000E+02  0.51100000000E-03 0. -1.
         11   -1    0    0    0    0 -0.00000000000E+00 -0.00000000000E+00 -0.45593999997E+02  0.45594000000E+02  0.51100000000E-03 0.  1.
    9900012    2    1    2    0    0  0.10048361821E+02  0.11869370088E+02  0.40518781271E+02  0.47787272388E+02  0.20000006124E+02 0.  0.
        -12    1    1    2    0    0 -0.10048361821E+02 -0.11869370088E+02 -0.40518781271E+02  0.43400727612E+02  0.00000000000E+00 0.  1.
         11    1    3    3    0    0  0.50487279625E+00  0.91116921952E+01  0.26859069347E+02  0.28367013195E+02  0.51100000000E-03 0. -1.
        -11    1    3    3    0    0  0.10349144705E+02  0.60462758948E+00  0.73587783071E+01  0.12713063717E+02  0.51100000000E-03 0.  1.
         12    1    3    3    0    0 -0.80565568019E+00  0.21530503032E+01  0.63009336176E+01  0.67071954747E+01  0.00000000000E+00 0. -1.
</event>
<event>
 7    1  0.2740409E-010  0.4778727E+02  0.7816164E-02  0.1312668E+00
        -11   -1    0    0    0    0  0.00000000000E+00  0.00000000000E+00  0.45593999997E+02  0.45594000000E+02  0.51100000000E-03 0. -1.
         11   -1    0    0    0    0 -0.00000000000E+00 -0.00000000000E+00 -0.45593999997E+02  0.45594000000E+02  0.51100000000E-03 0.  1.
    9900012    2    1    2    0    0 -0.29476114018E+02  0.31033857522E+02  0.71889842712E+01  0.47787272988E+02  0.20000008863E+02 0.  0.
        -12    1    1    2    0    0  0.29476114018E+02 -0.31033857522E+02 -0.71889842712E+01  0.43400727012E+02  0.00000000000E+00 0.  1.
         11    1    3    3    0    0 -0.26966215123E+02  0.28463549807E+02  0.69690135193E+01  0.39823580645E+02  0.51100000000E-03 0. -1.
        -11    1    3    3    0    0  0.19200027321E+01  0.18624174767E+01 -0.16062649606E+01  0.31201116540E+01  0.51100000000E-03 0.  1.
        -12    1    3    3    0    0 -0.44299016271E+01  0.70789023773E+00  0.18262357125E+01  0.48435806891E+01  0.00000000000E+00 0.  1.
</event>
<event>
 7    1  0.2740409E-010  0.4778726E+02  0.7816164E-02  0.1312668E+00
        -11   -1    0    0    0    0  0.00000000000E+00  0.00000000000E+00  0.45593999997E+02  0.45594000000E+02  0.51100000000E-03 0. -1.
         11   -1    0    0    0    0 -0.00000000000E+00 -0.00000000000E+00 -0.45593999997E+02  0.45594000000E+02  0.51100000000E-03 0.  1.
    9900012    2    1    2    0    0 -0.40152066171E+02 -0.11023455677E+02  0.12244158993E+02  0.47787257813E+02  0.19999939674E+02 0.  0.
        -12    1    1    2    0    0  0.40152066171E+02  0.11023455677E+02 -0.12244158993E+02  0.43400742187E+02  0.00000000000E+00 0.  1.
         11    1    3    3    0    0 -0.26943240724E+02 -0.12163220383E+02  0.88718129483E+01  0.30864076465E+02  0.51100000000E-03 0. -1.
        -11    1    3    3    0    0 -0.40956884419E+01 -0.60259710947E+00 -0.34644182852E+01  0.53981461082E+01  0.51100000000E-03 0.  1.
        -12    1    3    3    0    0 -0.91131370059E+01  0.17423618155E+01  0.68367643300E+01  0.11525035240E+02  0.00000000000E+00 0.  1.
</event>
<event>
 7    1  0.2740409E-010  0.4778729E+02  0.7816164E-02  0.1312668E+00
        -11   -1    0    0    0    0  0.00000000000E+00  0.00000000000E+00  0.45593999997E+02  0.45594000000E+02  0.51100000000E-03 0.  1.
         11   -1    0    0    0    0 -0.00000000000E+00 -0.00000000000E+00 -0.45593999997E+02  0.45594000000E+02  0.51100000000E-03 0. -1.
    9900012    2    1    2    0    0 -0.11012291352E+02  0.31937564463E+02 -0.27245967319E+02  0.47787293556E+02  0.20000102640E+02 0.  0.
        -12    1    1    2    0    0  0.11012291352E+02 -0.31937564463E+02  0.27245967319E+02  0.43400706444E+02  0.00000000000E+00 0.  1.
         11    1    3    3    0    0 -0.95645518174E+01  0.20539482918E+02 -0.67894817845E+01  0.23652654675E+02  0.51100000000E-03 0. -1.
        -11    1    3    3    0    0 -0.25289781954E+01  0.73439665691E+01 -0.17029342347E+02  0.18717053099E+02  0.51100000000E-03 0.  1.
         12    1    3    3    0    0  0.10812386605E+01  0.40541149759E+01 -0.34271431878E+01  0.54175857822E+01  0.00000000000E+00 0. -1.
</event>
<event>
 7    1  0.2740409E-010  0.4778727E+02  0.7816164E-02  0.1312668E+00
        -11   -1    0    0    0    0  0.00000000000E+00  0.00000000000E+00  0.45593999997E+02  0.45594000000E+02  0.51100000000E-03 0. -1.
         11   -1    0    0    0    0 -0.00000000000E+00 -0.00000000000E+00 -0.45593999997E+02  0.45594000000E+02  0.51100000000E-03 0.  1.
    9900012    2    1    2    0    0 -0.54743729630E+01 -0.32413106965E+02  0.28338048330E+02  0.47787271370E+02  0.20000001483E+02 0.  0.
        -12    1    1    2    0    0  0.54743729630E+01  0.32413106965E+02 -0.28338048330E+02  0.43400728630E+02  0.00000000000E+00 0.  1.
         11    1    3    3    0    0 -0.81960173726E+01 -0.75298632953E+01  0.12152956442E+02  0.16479317115E+02  0.51100000000E-03 0. -1.
        -11    1    3    3    0    0  0.32524752725E+01 -0.19830748848E+02  0.79071086291E+01  0.21595359742E+02  0.51100000000E-03 0.  1.
        -12    1    3    3    0    0 -0.53083086292E+00 -0.50524948222E+01  0.82779832590E+01  0.97125945128E+01  0.00000000000E+00 0.  1.
</event>
<event>
 7    1  0.2740409E-010  0.4778728E+02  0.7816164E-02  0.1312668E+00
        -11   -1    0    0    0    0  0.00000000000E+00  0.00000000000E+00  0.45593999997E+02  0.45594000000E+02  0.51100000000E-03 0.  1.
         11   -1    0    0    0    0 -0.00000000000E+00 -0.00000000000E+00 -0.45593999997E+02  0.45594000000E+02  0.51100000000E-03 0. -1.
    9900012    2    1    2    0    0  0.96321901232E+01  0.16495534860E+02 -0.38971029578E+02  0.47787275314E+02  0.20000019465E+02 0.  0.
        -12    1    1    2    0    0 -0.96321901232E+01 -0.16495534860E+02  0.38971029578E+02  0.43400724686E+02  0.00000000000E+00 0.  1.
         11    1    3    3    0    0 -0.14608255479E+01  0.11756983798E+02 -0.30546205853E+02  0.32763262529E+02  0.51100000000E-03 0. -1.
        -11    1    3    3    0    0  0.66311950644E+01  0.16362197235E+01 -0.59265816855E+01  0.90429162167E+01  0.51100000000E-03 0.  1.
         12    1    3    3    0    0  0.44618206067E+01  0.31023313391E+01 -0.24982420403E+01  0.59810965680E+01  0.00000000000E+00 0. -1.
</event>
<event>
 7    1  0.2740409E-010  0.4778727E+02  0.7816164E-02  0.1312668E+00
        -11   -1    0    0    0    0  0.00000000000E+00  0.00000000000E+00  0.45593999997E+02  0.45594000000E+02  0.51100000000E-03 0.  1.
         11   -1    0    0    0    0 -0.00000000000E+00 -0.00000000000E+00 -0.45593999997E+02  0.45594000000E+02  0.51100000000E-03 0. -1.
    9900012    2    1    2    0    0 -0.61237585954E+01 -0.30573357473E+02 -0.30189278512E+02  0.47787272545E+02  0.20000006843E+02 0.  0.
        -12    1    1    2    0    0  0.61237585954E+01  0.30573357473E+02  0.30189278512E+02  0.43400727455E+02  0.00000000000E+00 0.  1.
         11    1    3    3    0    0 -0.90625153019E+01 -0.29905099464E+02 -0.28273646293E+02  0.42140755006E+02  0.51100000000E-03 0. -1.
        -11    1    3    3    0    0  0.12032924465E+01  0.12756736028E+01 -0.24236680849E+01  0.29915586405E+01  0.51100000000E-03 0.  1.
         12    1    3    3    0    0  0.17354642600E+01 -0.19439316125E+01  0.50803586610E+00  0.26549588986E+01  0.00000000000E+00 0. -1.
</event>
<event>
 7    1  0.2740409E-010  0.4778727E+02  0.7816164E-02  0.1312668E+00
        -11   -1    0    0    0    0  0.00000000000E+00  0.00000000000E+00  0.45593999997E+02  0.45594000000E+02  0.51100000000E-03 0.  1.
         11   -1    0    0    0    0 -0.00000000000E+00 -0.00000000000E+00 -0.45593999997E+02  0.45594000000E+02  0.51100000000E-03 0. -1.
    9900012    2    1    2    0    0  0.99081563710E+00 -0.87726209108E+01 -0.42493325247E+02  0.47787270930E+02  0.19999999479E+02 0.  0.
        -12    1    1    2    0    0 -0.99081563710E+00  0.87726209108E+01  0.42493325247E+02  0.43400729070E+02  0.00000000000E+00 0.  1.
         11    1    3    3    0    0 -0.10335565207E+01  0.29509528803E+01 -0.62237111600E+01  0.69649797450E+01  0.51100000000E-03 0. -1.
        -11    1    3    3    0    0  0.24583864782E+00 -0.12697804240E+02 -0.15888674686E+02  0.20340714164E+02  0.51100000000E-03 0.  1.
        -12    1    3    3    0    0  0.17785335100E+01  0.97423044916E+00 -0.20380939401E+02  0.20481577021E+02  0.00000000000E+00 0.  1.
</event>
<event>
 7    1  0.2740409E-010  0.4778727E+02  0.7816164E-02  0.1312668E+00
        -11   -1    0    0    0    0  0.00000000000E+00  0.00000000000E+00  0.45593999997E+02  0.45594000000E+02  0.51100000000E-03 0.  1.
         11   -1    0    0    0    0 -0.00000000000E+00 -0.00000000000E+00 -0.45593999997E+02  0.45594000000E+02  0.51100000000E-03 0. -1.
    9900012    2    1    2    0    0 -0.38915302460E+02  0.13758753636E+02 -0.13413389729E+02  0.47787273150E+02  0.20000009598E+02 0.  0.
        -12    1    1    2    0    0  0.38915302460E+02 -0.13758753636E+02  0.13413389729E+02  0.43400726850E+02  0.00000000000E+00 0.  1.
         11    1    3    3    0    0 -0.19385173647E+02  0.65734764551E+01 -0.12100807585E+01  0.20505117550E+02  0.51100000000E-03 0. -1.
        -11    1    3    3    0    0  0.82526193820E+00 -0.29782984006E+00 -0.40002395541E+01  0.40953237518E+01  0.51100000000E-03 0.  1.
        -12    1    3    3    0    0 -0.20355390751E+02  0.74831070206E+01 -0.82030694160E+01  0.23186831848E+02  0.00000000000E+00 0.  1.
</event>
<event>
 7    1  0.2740409E-010  0.4778727E+02  0.7816164E-02  0.1312668E+00
        -11   -1    0    0    0    0  0.00000000000E+00  0.00000000000E+00  0.45593999997E+02  0.45594000000E+02  0.51100000000E-03 0. -1.
         11   -1    0    0    0    0 -0.00000000000E+00 -0.00000000000E+00 -0.45593999997E+02  0.45594000000E+02  0.51100000000E-03 0.  1.
    9900012    2    1    2    0    0  0.11403485241E+02  0.36300668591E+02  0.20876907581E+02  0.47787270905E+02  0.19999999364E+02 0.  0.
        -12    1    1    2    0    0 -0.11403485241E+02 -0.36300668591E+02 -0.20876907581E+02  0.43400729095E+02  0.00000000000E+00 0.  1.
         11    1    3    3    0    0 -0.32192808078E+01  0.18302283472E+02  0.13307302928E+02  0.22856545249E+02  0.51100000000E-03 0. -1.
        -11    1    3    3    0    0  0.69581298678E+01  0.58422479076E+01  0.48705333809E+01  0.10308711246E+02  0.51100000000E-03 0.  1.
         12    1    3    3    0    0  0.76646361812E+01  0.12156137212E+02  0.26990712723E+01  0.14622014411E+02  0.00000000000E+00 0. -1.
</event>
<event>
 7    1  0.2740409E-010  0.4778727E+02  0.7816164E-02  0.1312668E+00
        -11   -1    0    0    0    0  0.00000000000E+00  0.00000000000E+00  0.45593999997E+02  0.45594000000E+02  0.51100000000E-03 0. -1.
         11   -1    0    0    0    0 -0.00000000000E+00 -0.00000000000E+00 -0.45593999997E+02  0.45594000000E+02  0.51100000000E-03 0.  1.
    9900012    2    1    2    0    0  0.36008045028E+02  0.12734389966E+02 -0.20612606216E+02  0.47787268099E+02  0.19999986569E+02 0.  0.
        -12    1    1    2    0    0 -0.36008045028E+02 -0.12734389966E+02  0.20612606216E+02  0.43400731901E+02  0.00000000000E+00 0.  1.
         11    1    3    3    0    0  0.96886148970E+01 -0.63025795970E+00  0.26614507088E+01  0.10067263971E+02  0.51100000000E-03 0. -1.
        -11    1    3    3    0    0  0.17436858870E+02  0.85158551993E+01 -0.13408868867E+02  0.23587318660E+02  0.51100000000E-03 0.  1.
         12    1    3    3    0    0  0.88825712610E+01  0.48487927264E+01 -0.98651880581E+01  0.14132685468E+02  0.00000000000E+00 0. -1.
</event>
<event>
 7    1  0.2740409E-010  0.4778727E+02  0.7816164E-02  0.1312668E+00
        -11   -1    0    0    0    0  0.00000000000E+00  0.00000000000E+00  0.45593999997E+02  0.45594000000E+02  0.51100000000E-03 0.  1.
         11   -1    0    0    0    0 -0.00000000000E+00 -0.00000000000E+00 -0.45593999997E+02  0.45594000000E+02  0.51100000000E-03 0. -1.
    9900012    2    1    2    0    0 -0.64563242535E+01 -0.15730499666E+02 -0.39931077552E+02  0.47787266169E+02  0.19999977771E+02 0.  0.
        -12    1    1    2    0    0  0.64563242535E+01  0.15730499666E+02  0.39931077552E+02  0.43400733831E+02  0.00000000000E+00 0.  1.
         11    1    3    3    0    0 -0.57778636976E+01 -0.61481059600E+01 -0.33331597337E+02  0.34382819796E+02  0.51100000000E-03 0. -1.
        -11    1    3    3    0    0 -0.32776722403E+00 -0.80983405336E+01 -0.79605170116E+01  0.11360474555E+02  0.51100000000E-03 0.  1.
         12    1    3    3    0    0 -0.35069333187E+00 -0.14840531728E+01  0.13610367969E+01  0.20439718186E+01  0.00000000000E+00 0. -1.
</event>
<event>
 7    1  0.2740409E-010  0.4778727E+02  0.7816164E-02  0.1312668E+00
        -11   -1    0    0    0    0  0.00000000000E+00  0.00000000000E+00  0.45593999997E+02  0.45594000000E+02  0.51100000000E-03 0.  1.
         11   -1    0    0    0    0 -0.00000000000E+00 -0.00000000000E+00 -0.45593999997E+02  0.45594000000E+02  0.51100000000E-03 0. -1.
    9900012    2    1    2    0    0 -0.27082528406E+02  0.29570268682E+02 -0.16605997746E+02  0.47787270790E+02  0.19999998840E+02 0.  0.
        -12    1    1    2    0    0  0.27082528406E+02 -0.29570268682E+02  0.16605997746E+02  0.43400729210E+02  0.00000000000E+00 0.  1.
         11    1    3    3    0    0 -0.18888216307E+02  0.18488864670E+02 -0.40635528583E+01  0.26741639706E+02  0.51100000000E-03 0. -1.
        -11    1    3    3    0    0 -0.20152306057E+01  0.67490592454E+01 -0.11418077299E+02  0.13415790866E+02  0.51100000000E-03 0.  1.
         12    1    3    3    0    0 -0.61790814929E+01  0.43323447669E+01 -0.11243675888E+01  0.76298402178E+01  0.00000000000E+00 0. -1.
</event>
<event>
 7    1  0.2740409E-010  0.4778727E+02  0.7816164E-02  0.1312668E+00
        -11   -1    0    0    0    0  0.00000000000E+00  0.00000000000E+00  0.45593999997E+02  0.45594000000E+02  0.51100000000E-03 0. -1.
         11   -1    0    0    0    0 -0.00000000000E+00 -0.00000000000E+00 -0.45593999997E+02  0.45594000000E+02  0.51100000000E-03 0.  1.
    9900012    2    1    2    0    0  0.22322860990E+02  0.19297060680E+02  0.31826665253E+02  0.47787270803E+02  0.19999998899E+02 0.  0.
        -12    1    1    2    0    0 -0.22322860990E+02 -0.19297060680E+02 -0.31826665253E+02  0.43400729197E+02  0.00000000000E+00 0.  1.
         11    1    3    3    0    0  0.11712834105E+02  0.11565091045E+02  0.61996862994E+01  0.17589142222E+02  0.51100000000E-03 0. -1.
        -11    1    3    3    0    0  0.55726104807E+01 -0.16095029515E+00  0.15168529543E+02  0.16160574907E+02  0.51100000000E-03 0.  1.
        -12    1    3    3    0    0  0.50374164050E+01  0.78929199306E+01  0.10458449411E+02  0.14037553674E+02  0.00000000000E+00 0.  1.
</event>
<event>
 7    1  0.2740409E-010  0.4778727E+02  0.7816164E-02  0.1312668E+00
        -11   -1    0    0    0    0  0.00000000000E+00  0.00000000000E+00  0.45593999997E+02  0.45594000000E+02  0.51100000000E-03 0.  1.
         11   -1    0    0    0    0 -0.00000000000E+00 -0.00000000000E+00 -0.45593999997E+02  0.45594000000E+02  0.51100000000E-03 0. -1.
    9900012    2    1    2    0    0 -0.41360739565E+02 -0.12638628607E+02  0.36301271387E+01  0.47787268053E+02  0.19999986361E+02 0.  0.
        -12    1    1    2    0    0  0.41360739565E+02  0.12638628607E+02 -0.36301271387E+01  0.43400731947E+02  0.00000000000E+00 0.  1.
         11    1    3    3    0    0 -0.37980756721E+02 -0.11302152842E+02  0.36703466253E+01  0.39796331295E+02  0.51100000000E-03 0. -1.
        -11    1    3    3    0    0  0.37567347163E+00  0.23391705148E+01  0.11024792464E+01  0.26131035196E+01  0.51100000000E-03 0.  1.
         12    1    3    3    0    0 -0.37556563164E+01 -0.36756462805E+01 -0.11426987330E+01  0.53778332384E+01  0.00000000000E+00 0. -1.
</event>
<event>
 7    1  0.2740409E-010  0.4778727E+02  0.7816164E-02  0.1312668E+00
        -11   -1    0    0    0    0  0.00000000000E+00  0.00000000000E+00  0.45593999997E+02  0.45594000000E+02  0.51100000000E-03 0.  1.
         11   -1    0    0    0    0 -0.00000000000E+00 -0.00000000000E+00 -0.45593999997E+02  0.45594000000E+02  0.51100000000E-03 0. -1.
    9900012    2    1    2    0    0 -0.17558424700E+01  0.18125906355E+02 -0.39395323554E+02  0.47787274408E+02  0.20000015335E+02 0.  0.
        -12    1    1    2    0    0  0.17558424700E+01 -0.18125906355E+02  0.39395323554E+02  0.43400725592E+02  0.00000000000E+00 0.  1.
         11    1    3    3    0    0 -0.16901949921E+01  0.79902924029E+01 -0.17992478364E+02  0.19759322097E+02  0.51100000000E-03 0. -1.
        -11    1    3    3    0    0  0.28922931383E+01  0.31437324872E+01  0.98841847920E+00  0.43846761454E+01  0.51100000000E-03 0.  1.
        -12    1    3    3    0    0 -0.29579406162E+01  0.69918814653E+01 -0.22391263669E+02  0.23643276165E+02  0.00000000000E+00 0.  1.
</event>
<event>
 7    1  0.2740409E-010  0.4778727E+02  0.7816164E-02  0.1312668E+00
        -11   -1    0    0    0    0  0.00000000000E+00  0.00000000000E+00  0.45593999997E+02  0.45594000000E+02  0.51100000000E-03 0.  1.
         11   -1    0    0    0    0 -0.00000000000E+00 -0.00000000000E+00 -0.45593999997E+02  0.45594000000E+02  0.51100000000E-03 0. -1.
    9900012    2    1    2    0    0 -0.12980225535E+01  0.37485269745E+01 -0.43219060453E+02  0.47787268399E+02  0.19999987939E+02 0.  0.
        -12    1    1    2    0    0  0.12980225535E+01 -0.37485269745E+01  0.43219060453E+02  0.43400731601E+02  0.00000000000E+00 0.  1.
         11    1    3    3    0    0  0.66573807341E+01 -0.47149943101E+00 -0.31221361626E+02  0.31926735692E+02  0.51100000000E-03 0. -1.
        -11    1    3    3    0    0 -0.74484650068E+01  0.39365870654E+01 -0.73607696036E+01  0.11187371367E+02  0.51100000000E-03 0.  1.
        -12    1    3    3    0    0 -0.50693828087E+00  0.28343934008E+00 -0.46369292241E+01  0.46731613400E+01  0.00000000000E+00 0.  1.
</event>
<event>
 7    1  0.2740409E-010  0.4778725E+02  0.7816164E-02  0.1312668E+00
        -11   -1    0    0    0    0  0.00000000000E+00  0.00000000000E+00  0.45593999997E+02  0.45594000000E+02  0.51100000000E-03 0.  1.
         11   -1    0    0    0    0 -0.00000000000E+00 -0.00000000000E+00 -0.45593999997E+02  0.45594000000E+02  0.51100000000E-03 0. -1.
    9900012    2    1    2    0    0  0.13673874589E+02  0.26847833714E+02 -0.31238498759E+02  0.47787253162E+02  0.19999918465E+02 0.  0.
        -12    1    1    2    0    0 -0.13673874589E+02 -0.26847833714E+02  0.31238498759E+02  0.43400746838E+02  0.00000000000E+00 0.  1.
         11    1    3    3    0    0 -0.10075367803E+00  0.24892508799E+01 -0.51194672050E+01  0.56934581732E+01  0.51100000000E-03 0. -1.
        -11    1    3    3    0    0  0.41178643406E+01  0.20798200802E+02 -0.23128476881E+02  0.31375920806E+02  0.51100000000E-03 0.  1.
        -12    1    3    3    0    0  0.96567639259E+01  0.35603820328E+01 -0.29905546724E+01  0.10717874182E+02  0.00000000000E+00 0.  1.
</event>
<event>
 7    1  0.2740409E-010  0.4778727E+02  0.7816164E-02  0.1312668E+00
        -11   -1    0    0    0    0  0.00000000000E+00  0.00000000000E+00  0.45593999997E+02  0.45594000000E+02  0.51100000000E-03 0.  1.
         11   -1    0    0    0    0 -0.00000000000E+00 -0.00000000000E+00 -0.45593999997E+02  0.45594000000E+02  0.51100000000E-03 0. -1.
    9900012    2    1    2    0    0 -0.21885643624E+02 -0.19003157122E+02 -0.32303586304E+02  0.47787273444E+02  0.20000010942E+02 0.  0.
        -12    1    1    2    0    0  0.21885643624E+02  0.19003157122E+02  0.32303586304E+02  0.43400726556E+02  0.00000000000E+00 0.  1.
         11    1    3    3    0    0 -0.18274556357E+01 -0.96981471364E+01 -0.10939625686E+02  0.14733263806E+02  0.51100000000E-03 0. -1.
        -11    1    3    3    0    0 -0.21749620576E+02 -0.86019239778E+01 -0.19721520709E+02  0.30593748882E+02  0.51100000000E-03 0.  1.
        -12    1    3    3    0    0  0.16914325874E+01 -0.70308600798E+00 -0.16424399099E+01  0.24602607565E+01  0.00000000000E+00 0.  1.
</event>
<event>
 7    1  0.2740409E-010  0.4778727E+02  0.7816164E-02  0.1312668E+00
        -11   -1    0    0    0    0  0.00000000000E+00  0.00000000000E+00  0.45593999997E+02  0.45594000000E+02  0.51100000000E-03 0.  1.
         11   -1    0    0    0    0 -0.00000000000E+00 -0.00000000000E+00 -0.45593999997E+02  0.45594000000E+02  0.51100000000E-03 0. -1.
    9900012    2    1    2    0    0  0.22332246519E+02  0.16202150058E+02 -0.33502008619E+02  0.47787268640E+02  0.19999989038E+02 0.  0.
        -12    1    1    2    0    0 -0.22332246519E+02 -0.16202150058E+02  0.33502008619E+02  0.43400731360E+02  0.00000000000E+00 0.  1.
         11    1    3    3    0    0  0.21435047752E+02  0.12050087329E+02 -0.23682706221E+02  0.34139953880E+02  0.51100000000E-03 0. -1.
        -11    1    3    3    0    0  0.44714385127E+00 -0.49422685312E+00 -0.88558461128E+01  0.88808900703E+01  0.51100000000E-03 0.  1.
         12    1    3    3    0    0  0.45005491572E+00  0.46462895821E+01 -0.96345628525E+00  0.47664246896E+01  0.00000000000E+00 0. -1.
</event>
<event>
 7    1  0.2740409E-010  0.4778727E+02  0.7816164E-02  0.1312668E+00
        -11   -1    0    0    0    0  0.00000000000E+00  0.00000000000E+00  0.45593999997E+02  0.45594000000E+02  0.51100000000E-03 0. -1.
         11   -1    0    0    0    0 -0.00000000000E+00 -0.00000000000E+00 -0.45593999997E+02  0.45594000000E+02  0.51100000000E-03 0.  1.
    9900012    2    1    2    0    0  0.16959308056E+02 -0.20528084648E+02  0.34272479052E+02  0.47787271786E+02  0.20000003383E+02 0.  0.
        -12    1    1    2    0    0 -0.16959308056E+02  0.20528084648E+02 -0.34272479052E+02  0.43400728214E+02  0.00000000000E+00 0.  1.
         11    1    3    3    0    0  0.16899029353E+02 -0.17089960101E+02  0.24434908357E+02  0.34274023341E+02  0.51100000000E-03 0. -1.
        -11    1    3    3    0    0 -0.12175997576E+01 -0.50640818540E+01  0.10162887190E+02  0.11419796429E+02  0.51100000000E-03 0.  1.
         12    1    3    3    0    0  0.12778784611E+01  0.16259573063E+01 -0.32531649409E+00  0.20934520163E+01  0.00000000000E+00 0. -1.
</event>
<event>
 7    1  0.2740409E-010  0.4778727E+02  0.7816164E-02  0.1312668E+00
        -11   -1    0    0    0    0  0.00000000000E+00  0.00000000000E+00  0.45593999997E+02  0.45594000000E+02  0.51100000000E-03 0. -1.
         11   -1    0    0    0    0 -0.00000000000E+00 -0.00000000000E+00 -0.45593999997E+02  0.45594000000E+02  0.51100000000E-03 0.  1.
    9900012    2    1    2    0    0  0.13758768722E+02  0.22650408036E+02  0.34369735361E+02  0.47787269479E+02  0.19999992865E+02 0.  0.
        -12    1    1    2    0    0 -0.13758768722E+02 -0.22650408036E+02 -0.34369735361E+02  0.43400730521E+02  0.00000000000E+00 0.  1.
         11    1    3    3    0    0  0.34267448011E+01  0.13157668317E+02  0.59597213746E+01  0.14845372834E+02  0.51100000000E-03 0. -1.
        -11    1    3    3    0    0 -0.91249661291E+00  0.37304278885E+01  0.46463045388E+01  0.60280086619E+01  0.51100000000E-03 0.  1.
         12    1    3    3    0    0  0.11244520534E+02  0.57623118310E+01  0.23763709447E+02  0.26913887983E+02  0.00000000000E+00 0. -1.
</event>
<event>
 7    1  0.2740409E-010  0.4778727E+02  0.7816164E-02  0.1312668E+00
        -11   -1    0    0    0    0  0.00000000000E+00  0.00000000000E+00  0.45593999997E+02  0.45594000000E+02  0.51100000000E-03 0.  1.
         11   -1    0    0    0    0 -0.00000000000E+00 -0.00000000000E+00 -0.45593999997E+02  0.45594000000E+02  0.51100000000E-03 0. -1.
    9900012    2    1    2    0    0  0.11040774697E+02 -0.31629994661E+02 -0.27591083053E+02  0.47787272676E+02  0.20000007441E+02 0.  0.
        -12    1    1    2    0    0 -0.11040774697E+02  0.31629994661E+02  0.27591083053E+02  0.43400727324E+02  0.00000000000E+00 0.  1.
         11    1    3    3    0    0  0.75701499786E+01 -0.28774511915E+02 -0.18461699543E+02  0.35015911482E+02  0.51100000000E-03 0. -1.
        -11    1    3    3    0    0 -0.24453785160E+01 -0.98070529732E+00 -0.35880487505E+01  0.44514888593E+01  0.51100000000E-03 0.  1.
         12    1    3    3    0    0  0.59160032346E+01 -0.18747774485E+01 -0.55413347596E+01  0.83198723350E+01  0.00000000000E+00 0. -1.
</event>
<event>
 7    1  0.2740409E-010  0.4778727E+02  0.7816164E-02  0.1312668E+00
        -11   -1    0    0    0    0  0.00000000000E+00  0.00000000000E+00  0.45593999997E+02  0.45594000000E+02  0.51100000000E-03 0.  1.
         11   -1    0    0    0    0 -0.00000000000E+00 -0.00000000000E+00 -0.45593999997E+02  0.45594000000E+02  0.51100000000E-03 0. -1.
    9900012    2    1    2    0    0 -0.27450812956E+02 -0.13720463849E+02 -0.30689172479E+02  0.47787267660E+02  0.19999984568E+02 0.  0.
        -12    1    1    2    0    0  0.27450812956E+02  0.13720463849E+02  0.30689172479E+02  0.43400732340E+02  0.00000000000E+00 0.  1.
         11    1    3    3    0    0 -0.27384917281E+02 -0.62985969417E+01 -0.26595118997E+02  0.38689874291E+02  0.51100000000E-03 0. -1.
        -11    1    3    3    0    0 -0.10990599549E+01 -0.66643741242E+01 -0.29159263315E+01  0.73569315535E+01  0.51100000000E-03 0.  1.
         12    1    3    3    0    0  0.10331642799E+01 -0.75749278321E+00 -0.11781271510E+01  0.17404618151E+01  0.00000000000E+00 0. -1.
</event>
<event>
 7    1  0.2740409E-010  0.4778727E+02  0.7816164E-02  0.1312668E+00
        -11   -1    0    0    0    0  0.00000000000E+00  0.00000000000E+00  0.45593999997E+02  0.45594000000E+02  0.51100000000E-03 0.  1.
         11   -1    0    0    0    0 -0.00000000000E+00 -0.00000000000E+00 -0.45593999997E+02  0.45594000000E+02  0.51100000000E-03 0. -1.
    9900012    2    1    2    0    0  0.66330861453E+01  0.29173837272E+02 -0.31440626078E+02  0.47787267504E+02  0.19999983860E+02 0.  0.
        -12    1    1    2    0    0 -0.66330861453E+01 -0.29173837272E+02  0.31440626078E+02  0.43400732496E+02  0.00000000000E+00 0.  1.
         11    1    3    3    0    0  0.59746037571E+01  0.25172735540E+02 -0.27736283198E+02  0.37929723312E+02  0.51100000000E-03 0.  1.
        -11    1    3    3    0    0 -0.20909558960E+01 -0.15498461157E+01 -0.23717803462E+01  0.35212869541E+01  0.51100000000E-03 0. -1.
        -12    1    3    3    0    0  0.27494382842E+01  0.55509478477E+01 -0.13325625339E+01  0.63362572386E+01  0.00000000000E+00 0.  1.
</event>
<event>
 7    1  0.2740409E-010  0.4778727E+02  0.7816164E-02  0.1312668E+00
        -11   -1    0    0    0    0  0.00000000000E+00  0.00000000000E+00  0.45593999997E+02  0.45594000000E+02  0.51100000000E-03 0.  1.
         11   -1    0    0    0    0 -0.00000000000E+00 -0.00000000000E+00 -0.45593999997E+02  0.45594000000E+02  0.51100000000E-03 0. -1.
    9900012    2    1    2    0    0  0.10963256594E+02  0.38485528845E+02 -0.16801625073E+02  0.47787268085E+02  0.19999986509E+02 0.  0.
        -12    1    1    2    0    0 -0.10963256594E+02 -0.38485528845E+02  0.16801625073E+02  0.43400731915E+02  0.00000000000E+00 0.  1.
         11    1    3    3    0    0  0.83563788074E+00  0.25199209832E+02 -0.11133098895E+02  0.27561646506E+02  0.51100000000E-03 0. -1.
        -11    1    3    3    0    0 -0.21031704555E+00  0.50103575256E+01 -0.48205467015E+01  0.69559748818E+01  0.51100000000E-03 0.  1.
         12    1    3    3    0    0  0.10337935759E+02  0.82759614868E+01 -0.84797947696E+00  0.13269646698E+02  0.00000000000E+00 0. -1.
</event>
<event>
 7    1  0.2740409E-010  0.4778728E+02  0.7816164E-02  0.1312668E+00
        -11   -1    0    0    0    0  0.00000000000E+00  0.00000000000E+00  0.45593999997E+02  0.45594000000E+02  0.51100000000E-03 0. -1.
         11   -1    0    0    0    0 -0.00000000000E+00 -0.00000000000E+00 -0.45593999997E+02  0.45594000000E+02  0.51100000000E-03 0.  1.
    9900012    2    1    2    0    0 -0.40514646726E+02 -0.14880448112E+01  0.15491021561E+02  0.47787278512E+02  0.20000034047E+02 0.  0.
        -12    1    1    2    0    0  0.40514646726E+02  0.14880448112E+01 -0.15491021561E+02  0.43400721488E+02  0.00000000000E+00 0.  1.
         11    1    3    3    0    0 -0.27058347216E+02 -0.16940106905E+00  0.51329952122E+01  0.27541432260E+02  0.51100000000E-03 0. -1.
        -11    1    3    3    0    0 -0.63399776319E+01  0.14965996505E+01  0.10764495836E+02  0.12582110227E+02  0.51100000000E-03 0.  1.
         12    1    3    3    0    0 -0.71163218777E+01 -0.28152433927E+01 -0.40646948744E+00  0.76637360256E+01  0.00000000000E+00 0. -1.
</event>
<event>
 7    1  0.2740409E-010  0.4778727E+02  0.7816164E-02  0.1312668E+00
        -11   -1    0    0    0    0  0.00000000000E+00  0.00000000000E+00  0.45593999997E+02  0.45594000000E+02  0.51100000000E-03 0.  1.
         11   -1    0    0    0    0 -0.00000000000E+00 -0.00000000000E+00 -0.45593999997E+02  0.45594000000E+02  0.51100000000E-03 0. -1.
    9900012    2    1    2    0    0 -0.96638625108E+01  0.33981952503E+02 -0.25208336078E+02  0.47787267951E+02  0.19999985897E+02 0.  0.
        -12    1    1    2    0    0  0.96638625108E+01 -0.33981952503E+02  0.25208336078E+02  0.43400732049E+02  0.00000000000E+00 0.  1.
         11    1    3    3    0    0 -0.40003565668E+01  0.17977459213E+02 -0.30250739868E+01  0.18663948277E+02  0.51100000000E-03 0. -1.
        -11    1    3    3    0    0 -0.38414904053E+00  0.26195653298E+01 -0.97631395405E+01  0.10115759336E+02  0.51100000000E-03 0.  1.
         12    1    3    3    0    0 -0.52793569035E+01  0.13384927960E+02 -0.12420122551E+02  0.19007560338E+02  0.00000000000E+00 0. -1.
</event>
<event>
 7    1  0.2740409E-010  0.4778727E+02  0.7816164E-02  0.1312668E+00
        -11   -1    0    0    0    0  0.00000000000E+00  0.00000000000E+00  0.45593999997E+02  0.45594000000E+02  0.51100000000E-03 0.  1.
         11   -1    0    0    0    0 -0.00000000000E+00 -0.00000000000E+00 -0.45593999997E+02  0.45594000000E+02  0.51100000000E-03 0. -1.
    9900012    2    1    2    0    0 -0.14109129086E+02  0.39952226994E+02 -0.94008147741E+01  0.47787270930E+02  0.19999999479E+02 0.  0.
        -12    1    1    2    0    0  0.14109129086E+02 -0.39952226994E+02  0.94008147741E+01  0.43400729070E+02  0.00000000000E+00 0.  1.
         11    1    3    3    0    0 -0.81269166168E+01  0.25519038663E+02 -0.57646545129E+01  0.27395243198E+02  0.51100000000E-03 0. -1.
        -11    1    3    3    0    0  0.25264483303E+01 -0.72525743470E+00  0.19658258260E-01  0.26285597236E+01  0.51100000000E-03 0.  1.
        -12    1    3    3    0    0 -0.85086607991E+01  0.15158445766E+02 -0.36558185194E+01  0.17763468008E+02  0.00000000000E+00 0.  1.
</event>
<event>
 7    1  0.2740409E-010  0.4778727E+02  0.7816164E-02  0.1312668E+00
        -11   -1    0    0    0    0  0.00000000000E+00  0.00000000000E+00  0.45593999997E+02  0.45594000000E+02  0.51100000000E-03 0. -1.
         11   -1    0    0    0    0 -0.00000000000E+00 -0.00000000000E+00 -0.45593999997E+02  0.45594000000E+02  0.51100000000E-03 0.  1.
    9900012    2    1    2    0    0  0.22853879617E+02 -0.28135601965E+02  0.23868621632E+02  0.47787274083E+02  0.20000013855E+02 0.  0.
        -12    1    1    2    0    0 -0.22853879617E+02  0.28135601965E+02 -0.23868621632E+02  0.43400725917E+02  0.00000000000E+00 0.  1.
         11    1    3    3    0    0  0.16486134570E+01 -0.74290598472E-01  0.11473582911E+01  0.20099444602E+01  0.51100000000E-03 0.  1.
        -11    1    3    3    0    0  0.21011600214E+02 -0.20383757099E+02  0.24168892289E+02  0.37962089665E+02  0.51100000000E-03 0. -1.
        -12    1    3    3    0    0  0.19366594614E+00 -0.76775542673E+01 -0.14476289477E+01  0.78152399577E+01  0.00000000000E+00 0.  1.
</event>
<event>
 7    1  0.2740409E-010  0.4778725E+02  0.7816164E-02  0.1312668E+00
        -11   -1    0    0    0    0  0.00000000000E+00  0.00000000000E+00  0.45593999997E+02  0.45594000000E+02  0.51100000000E-03 0.  1.
         11   -1    0    0    0    0 -0.00000000000E+00 -0.00000000000E+00 -0.45593999997E+02  0.45594000000E+02  0.51100000000E-03 0. -1.
    9900012    2    1    2    0    0 -0.37702597682E+02 -0.10986970237E+02 -0.18477699054E+02  0.47787254046E+02  0.19999922499E+02 0.  0.
        -12    1    1    2    0    0  0.37702597682E+02  0.10986970237E+02  0.18477699054E+02  0.43400745954E+02  0.00000000000E+00 0.  1.
         11    1    3    3    0    0 -0.18921265262E+01  0.20655038880E+01 -0.48528987240E+01  0.56033093248E+01  0.51100000000E-03 0. -1.
        -11    1    3    3    0    0 -0.27532226986E+02 -0.11539788412E+02 -0.52489277918E+01  0.30310748632E+02  0.51100000000E-03 0.  1.
        -12    1    3    3    0    0 -0.82782441703E+01 -0.15126857134E+01 -0.83758725384E+01  0.11873196090E+02  0.00000000000E+00 0.  1.
</event>
<event>
 7    1  0.2740409E-010  0.4778727E+02  0.7816164E-02  0.1312668E+00
        -11   -1    0    0    0    0  0.00000000000E+00  0.00000000000E+00  0.45593999997E+02  0.45594000000E+02  0.51100000000E-03 0. -1.
         11   -1    0    0    0    0 -0.00000000000E+00 -0.00000000000E+00 -0.45593999997E+02  0.45594000000E+02  0.51100000000E-03 0.  1.
    9900012    2    1    2    0    0 -0.11701327521E+02 -0.33702344929E+02  0.24715467527E+02  0.47787268963E+02  0.19999990510E+02 0.  0.
        -12    1    1    2    0    0  0.11701327521E+02  0.33702344929E+02 -0.24715467527E+02  0.43400731037E+02  0.00000000000E+00 0.  1.
         11    1    3    3    0    0 -0.15474459694E+01 -0.10584096173E+02  0.31701235322E+01  0.11156494265E+02  0.51100000000E-03 0. -1.
        -11    1    3    3    0    0 -0.13748502409E+01 -0.18904003564E+02  0.18351250235E+02  0.26382190003E+02  0.51100000000E-03 0.  1.
        -12    1    3    3    0    0 -0.87790313107E+01 -0.42142451927E+01  0.31940937601E+01  0.10248584695E+02  0.00000000000E+00 0.  1.
</event>
<event>
 7    1  0.2740409E-010  0.4778727E+02  0.7816164E-02  0.1312668E+00
        -11   -1    0    0    0    0  0.00000000000E+00  0.00000000000E+00  0.45593999997E+02  0.45594000000E+02  0.51100000000E-03 0.  1.
         11   -1    0    0    0    0 -0.00000000000E+00 -0.00000000000E+00 -0.45593999997E+02  0.45594000000E+02  0.51100000000E-03 0. -1.
    9900012    2    1    2    0    0 -0.39984819826E+02  0.12690196943E+02 -0.11126391866E+02  0.47787268314E+02  0.19999987550E+02 0.  0.
        -12    1    1    2    0    0  0.39984819826E+02 -0.12690196943E+02  0.11126391866E+02  0.43400731686E+02  0.00000000000E+00 0.  1.
         11    1    3    3    0    0 -0.75139192529E+01  0.25386996332E+01 -0.15350901665E+00  0.79326882988E+01  0.51100000000E-03 0. -1.
        -11    1    3    3    0    0 -0.30562450410E+02  0.14184068792E+02 -0.10828832895E+02  0.35390885898E+02  0.51100000000E-03 0.  1.
        -12    1    3    3    0    0 -0.19084501626E+01 -0.40325714816E+01 -0.14404995411E+00  0.44636941166E+01  0.00000000000E+00 0.  1.
</event>
<event>
 7    1  0.2740409E-010  0.4778725E+02  0.7816164E-02  0.1312668E+00
        -11   -1    0    0    0    0  0.00000000000E+00  0.00000000000E+00  0.45593999997E+02  0.45594000000E+02  0.51100000000E-03 0.  1.
         11   -1    0    0    0    0 -0.00000000000E+00 -0.00000000000E+00 -0.45593999997E+02  0.45594000000E+02  0.51100000000E-03 0. -1.
    9900012    2    1    2    0    0 -0.16649233116E+02 -0.37470471306E+01 -0.39904731269E+02  0.47787252274E+02  0.19999914418E+02 0.  0.
        -12    1    1    2    0    0  0.16649233116E+02  0.37470471306E+01  0.39904731269E+02  0.43400747726E+02  0.00000000000E+00 0.  1.
         11    1    3    3    0    0 -0.11895820361E+02 -0.60326513959E+01 -0.13467851207E+02  0.18954852712E+02  0.51100000000E-03 0. -1.
        -11    1    3    3    0    0 -0.17445981713E+01 -0.11449427613E+01 -0.85116396750E-01  0.20884831261E+01  0.51100000000E-03 0.  1.
         12    1    3    3    0    0 -0.30088145841E+01  0.34305470267E+01 -0.26351763665E+02  0.26743916436E+02  0.00000000000E+00 0. -1.
</event>
<event>
 7    1  0.2740409E-010  0.4778727E+02  0.7816164E-02  0.1312668E+00
        -11   -1    0    0    0    0  0.00000000000E+00  0.00000000000E+00  0.45593999997E+02  0.45594000000E+02  0.51100000000E-03 0.  1.
         11   -1    0    0    0    0 -0.00000000000E+00 -0.00000000000E+00 -0.45593999997E+02  0.45594000000E+02  0.51100000000E-03 0. -1.
    9900012    2    1    2    0    0  0.36384876673E+01 -0.23743755889E+02 -0.36147179793E+02  0.47787272550E+02  0.20000006863E+02 0.  0.
        -12    1    1    2    0    0 -0.36384876673E+01  0.23743755889E+02  0.36147179793E+02  0.43400727450E+02  0.00000000000E+00 0.  1.
         11    1    3    3    0    0 -0.45963437647E+01 -0.21095794396E+02 -0.21251834763E+02  0.30295204212E+02  0.51100000000E-03 0. -1.
        -11    1    3    3    0    0  0.56817980469E+01 -0.75925607402E+00 -0.11460233931E+02  0.12813908883E+02  0.51100000000E-03 0.  1.
         12    1    3    3    0    0  0.25530333851E+01 -0.18887054189E+01 -0.34351110988E+01  0.46781594549E+01  0.00000000000E+00 0. -1.
</event>
<event>
 7    1  0.2740409E-010  0.4778728E+02  0.7816164E-02  0.1312668E+00
        -11   -1    0    0    0    0  0.00000000000E+00  0.00000000000E+00  0.45593999997E+02  0.45594000000E+02  0.51100000000E-03 0.  1.
         11   -1    0    0    0    0 -0.00000000000E+00 -0.00000000000E+00 -0.45593999997E+02  0.45594000000E+02  0.51100000000E-03 0. -1.
    9900012    2    1    2    0    0  0.12491343489E+02 -0.99323111463E+01 -0.40360106986E+02  0.47787277624E+02  0.20000029999E+02 0.  0.
        -12    1    1    2    0    0 -0.12491343489E+02  0.99323111463E+01  0.40360106986E+02  0.43400722376E+02  0.00000000000E+00 0.  1.
         11    1    3    3    0    0  0.79638390039E+01 -0.77709123645E+01 -0.40696292658E+02  0.42190023074E+02  0.51100000000E-03 0. -1.
        -11    1    3    3    0    0  0.33357017186E+01 -0.32363475861E+00  0.55102677944E+00  0.33963621988E+01  0.51100000000E-03 0.  1.
         12    1    3    3    0    0  0.11918027664E+01 -0.18377640232E+01 -0.21484110716E+00  0.22008923509E+01  0.00000000000E+00 0. -1.
</event>
<event>
 7    1  0.2740409E-010  0.4778727E+02  0.7816164E-02  0.1312668E+00
        -11   -1    0    0    0    0  0.00000000000E+00  0.00000000000E+00  0.45593999997E+02  0.45594000000E+02  0.51100000000E-03 0. -1.
         11   -1    0    0    0    0 -0.00000000000E+00 -0.00000000000E+00 -0.45593999997E+02  0.45594000000E+02  0.51100000000E-03 0.  1.
    9900012    2    1    2    0    0 -0.39688060825E+02  0.14401422748E+02  0.10053847156E+02  0.47787274293E+02  0.20000014813E+02 0.  0.
        -12    1    1    2    0    0  0.39688060825E+02 -0.14401422748E+02 -0.10053847156E+02  0.43400725707E+02  0.00000000000E+00 0.  1.
         11    1    3    3    0    0 -0.32304892502E+00 -0.12542259714E+01 -0.24447680905E+01  0.27666468283E+01  0.51100000000E-03 0. -1.
        -11    1    3    3    0    0 -0.33109433655E+01 -0.36155146315E+00 -0.73062196950E+00  0.34098202524E+01  0.51100000000E-03 0.  1.
         12    1    3    3    0    0 -0.36054068535E+02  0.16017200182E+02  0.13229237216E+02  0.41610807213E+02  0.00000000000E+00 0. -1.
</event>
<event>
 7    1  0.2740409E-010  0.4778728E+02  0.7816164E-02  0.1312668E+00
        -11   -1    0    0    0    0  0.00000000000E+00  0.00000000000E+00  0.45593999997E+02  0.45594000000E+02  0.51100000000E-03 0. -1.
         11   -1    0    0    0    0 -0.00000000000E+00 -0.00000000000E+00 -0.45593999997E+02  0.45594000000E+02  0.51100000000E-03 0.  1.
    9900012    2    1    2    0    0 -0.30611814700E+02  0.25545244416E+02  0.17145846858E+02  0.47787276781E+02  0.20000026155E+02 0.  0.
        -12    1    1    2    0    0  0.30611814700E+02 -0.25545244416E+02 -0.17145846858E+02  0.43400723219E+02  0.00000000000E+00 0.  1.
         11    1    3    3    0    0 -0.12389016959E+01 -0.19992944232E+01  0.33613462454E+01  0.41025241554E+01  0.51100000000E-03 0. -1.
        -11    1    3    3    0    0 -0.85880583341E+00  0.19528352824E+01 -0.13109132020E+01  0.25039182862E+01  0.51100000000E-03 0.  1.
         12    1    3    3    0    0 -0.28514107170E+02  0.25591703557E+02  0.15095413814E+02  0.41180834339E+02  0.00000000000E+00 0. -1.
</event>
<event>
 7    1  0.2740409E-010  0.4778727E+02  0.7816164E-02  0.1312668E+00
        -11   -1    0    0    0    0  0.00000000000E+00  0.00000000000E+00  0.45593999997E+02  0.45594000000E+02  0.51100000000E-03 0.  1.
         11   -1    0    0    0    0 -0.00000000000E+00 -0.00000000000E+00 -0.45593999997E+02  0.45594000000E+02  0.51100000000E-03 0. -1.
    9900012    2    1    2    0    0 -0.15292407302E+02 -0.40615919656E+02  0.33615924314E+00  0.47787266669E+02  0.19999980052E+02 0.  0.
        -12    1    1    2    0    0  0.15292407302E+02  0.40615919656E+02 -0.33615924314E+00  0.43400733331E+02  0.00000000000E+00 0.  1.
         11    1    3    3    0    0  0.23696597604E+01 -0.16951670294E+02 -0.12417399497E+01  0.17161478127E+02  0.51100000000E-03 0. -1.
        -11    1    3    3    0    0 -0.17547500604E+02 -0.21035004725E+02  0.31284479501E+01  0.27571242048E+02  0.51100000000E-03 0.  1.
        -12    1    3    3    0    0 -0.11456645767E+00 -0.26292446369E+01 -0.15505487573E+01  0.30545464938E+01  0.00000000000E+00 0.  1.
</event>
<event>
 7    1  0.2740409E-010  0.4778727E+02  0.7816164E-02  0.1312668E+00
        -11   -1    0    0    0    0  0.00000000000E+00  0.00000000000E+00  0.45593999997E+02  0.45594000000E+02  0.51100000000E-03 0.  1.
         11   -1    0    0    0    0 -0.00000000000E+00 -0.00000000000E+00 -0.45593999997E+02  0.45594000000E+02  0.51100000000E-03 0. -1.
    9900012    2    1    2    0    0 -0.36908671086E+02 -0.10140253084E+02 -0.20458461962E+02  0.47787269593E+02  0.19999993384E+02 0.  0.
        -12    1    1    2    0    0  0.36908671086E+02  0.10140253084E+02  0.20458461962E+02  0.43400730407E+02  0.00000000000E+00 0.  1.
         11    1    3    3    0    0 -0.15923285769E+02 -0.83650947389E+01 -0.13711763326E+02  0.22617212327E+02  0.51100000000E-03 0. -1.
        -11    1    3    3    0    0 -0.94408405221E+01  0.35717177324E+01  0.12070421314E+01  0.10165804852E+02  0.51100000000E-03 0.  1.
        -12    1    3    3    0    0 -0.11544544795E+02 -0.53468760775E+01 -0.79537407677E+01  0.15004252414E+02  0.00000000000E+00 0.  1.
</event>
<event>
 7    1  0.2740409E-010  0.4778727E+02  0.7816164E-02  0.1312668E+00
        -11   -1    0    0    0    0  0.00000000000E+00  0.00000000000E+00  0.45593999997E+02  0.45594000000E+02  0.51100000000E-03 0.  1.
         11   -1    0    0    0    0 -0.00000000000E+00 -0.00000000000E+00 -0.45593999997E+02  0.45594000000E+02  0.51100000000E-03 0. -1.
    9900012    2    1    2    0    0 -0.19416294399E+02  0.35936684101E+02  0.14669214205E+02  0.47787267313E+02  0.19999982989E+02 0.  0.
        -12    1    1    2    0    0  0.19416294399E+02 -0.35936684101E+02 -0.14669214205E+02  0.43400732687E+02  0.00000000000E+00 0.  1.
         11    1    3    3    0    0 -0.40886146423E+01  0.90053623047E+01  0.58239666518E+01  0.11477452146E+02  0.51100000000E-03 0. -1.
        -11    1    3    3    0    0 -0.18252341192E+02  0.20824434252E+02  0.39885128296E+01  0.27977012988E+02  0.51100000000E-03 0.  1.
        -12    1    3    3    0    0  0.29246614352E+01  0.61068875444E+01  0.48567347239E+01  0.83328021799E+01  0.00000000000E+00 0.  1.
</event>
<event>
 7    1  0.2740409E-010  0.4778727E+02  0.7816164E-02  0.1312668E+00
        -11   -1    0    0    0    0  0.00000000000E+00  0.00000000000E+00  0.45593999997E+02  0.45594000000E+02  0.51100000000E-03 0.  1.
         11   -1    0    0    0    0 -0.00000000000E+00 -0.00000000000E+00 -0.45593999997E+02  0.45594000000E+02  0.51100000000E-03 0. -1.
    9900012    2    1    2    0    0  0.20327739239E+02 -0.28099659424E+02  0.26092438655E+02  0.47787271927E+02  0.20000004026E+02 0.  0.
        -12    1    1    2    0    0 -0.20327739239E+02  0.28099659424E+02 -0.26092438655E+02  0.43400728073E+02  0.00000000000E+00 0.  1.
         11    1    3    3    0    0  0.12327195897E+02 -0.24327882307E+02  0.11917725901E+02  0.29763027520E+02  0.51100000000E-03 0. -1.
        -11    1    3    3    0    0  0.29578720651E+01 -0.44154220476E+01  0.10444529191E+02  0.11718922702E+02  0.51100000000E-03 0.  1.
        -12    1    3    3    0    0  0.50426712764E+01  0.64364493128E+00  0.37301835625E+01  0.63053217055E+01  0.00000000000E+00 0.  1.
</event>
<event>
 7    1  0.2740409E-010  0.4778727E+02  0.7816164E-02  0.1312668E+00
        -11   -1    0    0    0    0  0.00000000000E+00  0.00000000000E+00  0.45593999997E+02  0.45594000000E+02  0.51100000000E-03 0.  1.
         11   -1    0    0    0    0 -0.00000000000E+00 -0.00000000000E+00 -0.45593999997E+02  0.45594000000E+02  0.51100000000E-03 0. -1.
    9900012    2    1    2    0    0  0.33425228068E+02 -0.27176915348E+02  0.52718926926E+01  0.47787268995E+02  0.19999990654E+02 0.  0.
        -12    1    1    2    0    0 -0.33425228068E+02  0.27176915348E+02 -0.52718926926E+01  0.43400731005E+02  0.00000000000E+00 0.  1.
         11    1    3    3    0    0  0.21218724405E+02 -0.16762697205E+02  0.98076704802E+01  0.28764781999E+02  0.51100000000E-03 0. -1.
        -11    1    3    3    0    0  0.63752708620E+01 -0.17466489080E+01 -0.54066544120E+01  0.85397173937E+01  0.51100000000E-03 0.  1.
        -12    1    3    3    0    0  0.58312328016E+01 -0.86675692350E+01  0.87087662433E+00  0.10482769602E+02  0.00000000000E+00 0.  1.
</event>
<event>
 7    1  0.2740409E-010  0.4778727E+02  0.7816164E-02  0.1312668E+00
        -11   -1    0    0    0    0  0.00000000000E+00  0.00000000000E+00  0.45593999997E+02  0.45594000000E+02  0.51100000000E-03 0.  1.
         11   -1    0    0    0    0 -0.00000000000E+00 -0.00000000000E+00 -0.45593999997E+02  0.45594000000E+02  0.51100000000E-03 0. -1.
    9900012    2    1    2    0    0 -0.12851532150E+02  0.32648567922E+02 -0.25544715663E+02  0.47787270003E+02  0.19999995253E+02 0.  0.
        -12    1    1    2    0    0  0.12851532150E+02 -0.32648567922E+02  0.25544715663E+02  0.43400729997E+02  0.00000000000E+00 0.  1.
         11    1    3    3    0    0 -0.68556771371E+01  0.30275972572E+02 -0.25724582572E+02  0.40316113069E+02  0.51100000000E-03 0. -1.
        -11    1    3    3    0    0 -0.42870277597E+00 -0.78014977552E+00  0.57721355625E+00  0.10609408527E+01  0.51100000000E-03 0.  1.
         12    1    3    3    0    0 -0.55671522373E+01  0.31527451252E+01 -0.39734664702E+00  0.64102160818E+01  0.00000000000E+00 0. -1.
</event>
<event>
 7    1  0.2740409E-010  0.4778727E+02  0.7816164E-02  0.1312668E+00
        -11   -1    0    0    0    0  0.00000000000E+00  0.00000000000E+00  0.45593999997E+02  0.45594000000E+02  0.51100000000E-03 0.  1.
         11   -1    0    0    0    0 -0.00000000000E+00 -0.00000000000E+00 -0.45593999997E+02  0.45594000000E+02  0.51100000000E-03 0. -1.
    9900012    2    1    2    0    0  0.21246542180E-01  0.33030286320E+02 -0.28153558617E+02  0.47787272719E+02  0.20000007633E+02 0.  0.
        -12    1    1    2    0    0 -0.21246542180E-01 -0.33030286320E+02  0.28153558617E+02  0.43400727281E+02  0.00000000000E+00 0.  1.
         11    1    3    3    0    0  0.29686368407E+01  0.29521910358E+02 -0.19652381193E+02  0.35588932026E+02  0.51100000000E-03 0. -1.
        -11    1    3    3    0    0 -0.14720561036E+01 -0.77128729097E+00  0.80723791786E+00  0.18475569205E+01  0.51100000000E-03 0.  1.
         12    1    3    3    0    0 -0.14753341949E+01  0.42796632523E+01 -0.93084153412E+01  0.10350783772E+02  0.00000000000E+00 0. -1.
</event>
<event>
 7    1  0.2740409E-010  0.4778727E+02  0.7816164E-02  0.1312668E+00
        -11   -1    0    0    0    0  0.00000000000E+00  0.00000000000E+00  0.45593999997E+02  0.45594000000E+02  0.51100000000E-03 0. -1.
         11   -1    0    0    0    0 -0.00000000000E+00 -0.00000000000E+00 -0.45593999997E+02  0.45594000000E+02  0.51100000000E-03 0.  1.
    9900012    2    1    2    0    0  0.20472855395E+02 -0.33187661317E+02  0.19054250745E+02  0.47787272550E+02  0.20000006864E+02 0.  0.
        -12    1    1    2    0    0 -0.20472855395E+02  0.33187661317E+02 -0.19054250745E+02  0.43400727450E+02  0.00000000000E+00 0.  1.
         11    1    3    3    0    0  0.90599810722E+01 -0.57947933316E+01  0.46513882934E+01  0.11717435731E+02  0.51100000000E-03 0. -1.
        -11    1    3    3    0    0 -0.38598160466E+00 -0.17876836858E+02  0.85641491053E+01  0.19826117320E+02  0.51100000000E-03 0.  1.
        -12    1    3    3    0    0  0.11798855927E+02 -0.95160311277E+01  0.58387133467E+01  0.16243719499E+02  0.00000000000E+00 0.  1.
</event>
<event>
 7    1  0.2740409E-010  0.4778727E+02  0.7816164E-02  0.1312668E+00
        -11   -1    0    0    0    0  0.00000000000E+00  0.00000000000E+00  0.45593999997E+02  0.45594000000E+02  0.51100000000E-03 0.  1.
         11   -1    0    0    0    0 -0.00000000000E+00 -0.00000000000E+00 -0.45593999997E+02  0.45594000000E+02  0.51100000000E-03 0. -1.
    9900012    2    1    2    0    0  0.15591840113E+01  0.25207965529E+02 -0.35295192555E+02  0.47787271914E+02  0.20000003966E+02 0.  0.
        -12    1    1    2    0    0 -0.15591840113E+01 -0.25207965529E+02  0.35295192555E+02  0.43400728086E+02  0.00000000000E+00 0.  1.
         11    1    3    3    0    0 -0.75313197482E+01  0.68861653525E+01 -0.12825893595E+02  0.16390350734E+02  0.51100000000E-03 0. -1.
        -11    1    3    3    0    0  0.30709559471E+01  0.21333972363E+01 -0.10542678701E+01  0.38850527924E+01  0.51100000000E-03 0.  1.
         12    1    3    3    0    0  0.60195478125E+01  0.16188402940E+02 -0.21415031090E+02  0.27511868388E+02  0.00000000000E+00 0. -1.
</event>
<event>
 7    1  0.2740409E-010  0.4778727E+02  0.7816164E-02  0.1312668E+00
        -11   -1    0    0    0    0  0.00000000000E+00  0.00000000000E+00  0.45593999997E+02  0.45594000000E+02  0.51100000000E-03 0.  1.
         11   -1    0    0    0    0 -0.00000000000E+00 -0.00000000000E+00 -0.45593999997E+02  0.45594000000E+02  0.51100000000E-03 0. -1.
    9900012    2    1    2    0    0  0.87228461708E+01  0.36818785163E+02 -0.21258223760E+02  0.47787273467E+02  0.20000011044E+02 0.  0.
        -12    1    1    2    0    0 -0.87228461708E+01 -0.36818785163E+02  0.21258223760E+02  0.43400726533E+02  0.00000000000E+00 0.  1.
         11    1    3    3    0    0 -0.26369318330E+00  0.12628620852E+02  0.14499205634E+01  0.12714317466E+02  0.51100000000E-03 0. -1.
        -11    1    3    3    0    0  0.51469911766E+00  0.76397653754E+01 -0.98094407413E+01  0.12444117409E+02  0.51100000000E-03 0.  1.
         12    1    3    3    0    0  0.84718402365E+01  0.16550398935E+02 -0.12898703582E+02  0.22628838591E+02  0.00000000000E+00 0. -1.
</event>
<event>
 7    1  0.2740409E-010  0.4778727E+02  0.7816164E-02  0.1312668E+00
        -11   -1    0    0    0    0  0.00000000000E+00  0.00000000000E+00  0.45593999997E+02  0.45594000000E+02  0.51100000000E-03 0.  1.
         11   -1    0    0    0    0 -0.00000000000E+00 -0.00000000000E+00 -0.45593999997E+02  0.45594000000E+02  0.51100000000E-03 0. -1.
    9900012    2    1    2    0    0 -0.34037868439E+02 -0.24328451457E+02 -0.11540077190E+02  0.47787269364E+02  0.19999992338E+02 0.  0.
        -12    1    1    2    0    0  0.34037868439E+02  0.24328451457E+02  0.11540077190E+02  0.43400730636E+02  0.00000000000E+00 0.  1.
         11    1    3    3    0    0 -0.71670022757E+01 -0.10742576199E+02  0.19943107422E+01  0.13066986669E+02  0.51100000000E-03 0. -1.
        -11    1    3    3    0    0  0.54233110667E+00 -0.22376985308E+01 -0.87547709044E+00  0.24633063433E+01  0.51100000000E-03 0.  1.
         12    1    3    3    0    0 -0.27413197270E+02 -0.11348176727E+02 -0.12658910842E+02  0.32256976351E+02  0.00000000000E+00 0. -1.
</event>
<event>
 7    1  0.2740409E-010  0.4778727E+02  0.7816164E-02  0.1312668E+00
        -11   -1    0    0    0    0  0.00000000000E+00  0.00000000000E+00  0.45593999997E+02  0.45594000000E+02  0.51100000000E-03 0.  1.
         11   -1    0    0    0    0 -0.00000000000E+00 -0.00000000000E+00 -0.45593999997E+02  0.45594000000E+02  0.51100000000E-03 0. -1.
    9900012    2    1    2    0    0 -0.28539811669E+02  0.13344041432E+02 -0.29850273899E+02  0.47787272544E+02  0.20000006839E+02 0.  0.
        -12    1    1    2    0    0  0.28539811669E+02 -0.13344041432E+02  0.29850273899E+02  0.43400727456E+02  0.00000000000E+00 0.  1.
         11    1    3    3    0    0 -0.78247162573E+01  0.94662936359E+01 -0.19899345089E+02  0.23384200541E+02  0.51100000000E-03 0. -1.
        -11    1    3    3    0    0 -0.38831795603E+01 -0.10159433547E+01  0.42033173492E+00  0.40358274773E+01  0.51100000000E-03 0.  1.
         12    1    3    3    0    0 -0.16831915851E+02  0.48936911512E+01 -0.10371260545E+02  0.20367244526E+02  0.00000000000E+00 0. -1.
</event>
<event>
 7    1  0.2740409E-010  0.4778727E+02  0.7816164E-02  0.1312668E+00
        -11   -1    0    0    0    0  0.00000000000E+00  0.00000000000E+00  0.45593999997E+02  0.45594000000E+02  0.51100000000E-03 0. -1.
         11   -1    0    0    0    0 -0.00000000000E+00 -0.00000000000E+00 -0.45593999997E+02  0.45594000000E+02  0.51100000000E-03 0.  1.
    9900012    2    1    2    0    0  0.89734696834E+01  0.23791596165E+02  0.35171863261E+02  0.47787272223E+02  0.20000005376E+02 0.  0.
        -12    1    1    2    0    0 -0.89734696834E+01 -0.23791596165E+02 -0.35171863261E+02  0.43400727777E+02  0.00000000000E+00 0.  1.
         11    1    3    3    0    0 -0.17232801325E+01 -0.21125182748E+01  0.26321717503E+01  0.37895588478E+01  0.51100000000E-03 0. -1.
        -11    1    3    3    0    0 -0.10138082596E+01  0.54844126531E+01  0.97577526640E+01  0.11239231586E+02  0.51100000000E-03 0.  1.
         12    1    3    3    0    0  0.11710558076E+02  0.20419701787E+02  0.22781938847E+02  0.32758481789E+02  0.00000000000E+00 0. -1.
</event>
<event>
 7    1  0.2740409E-010  0.4778727E+02  0.7816164E-02  0.1312668E+00
        -11   -1    0    0    0    0  0.00000000000E+00  0.00000000000E+00  0.45593999997E+02  0.45594000000E+02  0.51100000000E-03 0.  1.
         11   -1    0    0    0    0 -0.00000000000E+00 -0.00000000000E+00 -0.45593999997E+02  0.45594000000E+02  0.51100000000E-03 0. -1.
    9900012    2    1    2    0    0  0.27875692257E+02 -0.22325738923E+02 -0.24660298484E+02  0.47787272373E+02  0.20000006058E+02 0.  0.
        -12    1    1    2    0    0 -0.27875692257E+02  0.22325738923E+02  0.24660298484E+02  0.43400727627E+02  0.00000000000E+00 0.  1.
         11    1    3    3    0    0  0.15923679264E+02 -0.89342994936E+01 -0.57954985449E+01  0.19156541243E+02  0.51100000000E-03 0. -1.
        -11    1    3    3    0    0  0.90147827792E+01 -0.88025638791E+01 -0.19425167534E+02  0.23153586620E+02  0.51100000000E-03 0.  1.
        -12    1    3    3    0    0  0.29372302139E+01 -0.45888755500E+01  0.56036759511E+00  0.54771445101E+01  0.00000000000E+00 0.  1.
</event>
<event>
 7    1  0.2740409E-010  0.4778727E+02  0.7816164E-02  0.1312668E+00
        -11   -1    0    0    0    0  0.00000000000E+00  0.00000000000E+00  0.45593999997E+02  0.45594000000E+02  0.51100000000E-03 0.  1.
         11   -1    0    0    0    0 -0.00000000000E+00 -0.00000000000E+00 -0.45593999997E+02  0.45594000000E+02  0.51100000000E-03 0. -1.
    9900012    2    1    2    0    0  0.41034626621E+02 -0.77988318137E+01 -0.11788168319E+02  0.47787271067E+02  0.20000000104E+02 0.  0.
        -12    1    1    2    0    0 -0.41034626621E+02  0.77988318137E+01  0.11788168319E+02  0.43400728933E+02  0.00000000000E+00 0.  1.
         11    1    3    3    0    0  0.39287501897E+02 -0.59259688607E+01 -0.52086379250E+01  0.40071870702E+02  0.51100000000E-03 0. -1.
        -11    1    3    3    0    0 -0.46731344799E+00  0.43297274471E+00 -0.22179484068E+01  0.23076270610E+01  0.51100000000E-03 0.  1.
         12    1    3    3    0    0  0.22144381717E+01 -0.23058356977E+01 -0.43615819868E+01  0.54077733041E+01  0.00000000000E+00 0. -1.
</event>
<event>
 7    1  0.2740409E-010  0.4778727E+02  0.7816164E-02  0.1312668E+00
        -11   -1    0    0    0    0  0.00000000000E+00  0.00000000000E+00  0.45593999997E+02  0.45594000000E+02  0.51100000000E-03 0.  1.
         11   -1    0    0    0    0 -0.00000000000E+00 -0.00000000000E+00 -0.45593999997E+02  0.45594000000E+02  0.51100000000E-03 0. -1.
    9900012    2    1    2    0    0 -0.21167532939E+02  0.27644285401E+02 -0.25910461421E+02  0.47787274464E+02  0.20000015589E+02 0.  0.
        -12    1    1    2    0    0  0.21167532939E+02 -0.27644285401E+02  0.25910461421E+02  0.43400725536E+02  0.00000000000E+00 0.  1.
         11    1    3    3    0    0 -0.33702240355E+01  0.15733789282E+02 -0.12791923130E+02  0.20555871006E+02  0.51100000000E-03 0. -1.
        -11    1    3    3    0    0  0.82377641610E+00  0.29970014284E+01 -0.26493099554E+01  0.40840505196E+01  0.51100000000E-03 0.  1.
         12    1    3    3    0    0 -0.18621085319E+02  0.89134946908E+01 -0.10469228336E+02  0.23147352938E+02  0.00000000000E+00 0. -1.
</event>
<event>
 7    1  0.2740409E-010  0.4778727E+02  0.7816164E-02  0.1312668E+00
        -11   -1    0    0    0    0  0.00000000000E+00  0.00000000000E+00  0.45593999997E+02  0.45594000000E+02  0.51100000000E-03 0.  1.
         11   -1    0    0    0    0 -0.00000000000E+00 -0.00000000000E+00 -0.45593999997E+02  0.45594000000E+02  0.51100000000E-03 0. -1.
    9900012    2    1    2    0    0 -0.59386134847E+01  0.45494354801E+01 -0.42751123964E+02  0.47787273122E+02  0.20000009474E+02 0.  0.
        -12    1    1    2    0    0  0.59386134847E+01 -0.45494354801E+01  0.42751123964E+02  0.43400726878E+02  0.00000000000E+00 0.  1.
         11    1    3    3    0    0 -0.46177599728E+01  0.84002258175E+01 -0.11174432050E+02  0.14722616372E+02  0.51100000000E-03 0. -1.
        -11    1    3    3    0    0 -0.23682382180E+01 -0.48157102436E+01 -0.92607618316E+01  0.10703332536E+02  0.51100000000E-03 0.  1.
         12    1    3    3    0    0  0.10473847061E+01  0.96491990624E+00 -0.22315930083E+02  0.22361324214E+02  0.00000000000E+00 0. -1.
</event>
<event>
 7    1  0.2740409E-010  0.4778727E+02  0.7816164E-02  0.1312668E+00
        -11   -1    0    0    0    0  0.00000000000E+00  0.00000000000E+00  0.45593999997E+02  0.45594000000E+02  0.51100000000E-03 0. -1.
         11   -1    0    0    0    0 -0.00000000000E+00 -0.00000000000E+00 -0.45593999997E+02  0.45594000000E+02  0.51100000000E-03 0.  1.
    9900012    2    1    2    0    0  0.33006422286E+02 -0.26650817178E+02  0.91615120530E+01  0.47787271072E+02  0.20000000124E+02 0.  0.
        -12    1    1    2    0    0 -0.33006422286E+02  0.26650817178E+02 -0.91615120530E+01  0.43400728928E+02  0.00000000000E+00 0.  1.
         11    1    3    3    0    0  0.17984692802E+02 -0.19207038706E+02 -0.10459276676E+01  0.26333504818E+02  0.51100000000E-03 0. -1.
        -11    1    3    3    0    0  0.14749350712E+02 -0.51520943728E+01  0.10893485280E+02  0.19046139888E+02  0.51100000000E-03 0.  1.
        -12    1    3    3    0    0  0.27237877232E+00 -0.22916840995E+01 -0.68604555904E+00  0.24076263657E+01  0.00000000000E+00 0.  1.
</event>
<event>
 7    1  0.2740409E-010  0.4778727E+02  0.7816164E-02  0.1312668E+00
        -11   -1    0    0    0    0  0.00000000000E+00  0.00000000000E+00  0.45593999997E+02  0.45594000000E+02  0.51100000000E-03 0.  1.
         11   -1    0    0    0    0 -0.00000000000E+00 -0.00000000000E+00 -0.45593999997E+02  0.45594000000E+02  0.51100000000E-03 0. -1.
    9900012    2    1    2    0    0 -0.17057363977E+02  0.12881448676E+01 -0.39887471649E+02  0.47787269850E+02  0.19999994553E+02 0.  0.
        -12    1    1    2    0    0  0.17057363977E+02 -0.12881448676E+01  0.39887471649E+02  0.43400730150E+02  0.00000000000E+00 0.  1.
         11    1    3    3    0    0 -0.16105387274E+02  0.10682899624E+01 -0.21539236081E+02  0.26915858409E+02  0.51100000000E-03 0. -1.
        -11    1    3    3    0    0  0.13528271088E+01  0.42299250219E+00  0.77041967992E+00  0.16132608554E+01  0.51100000000E-03 0.  1.
         12    1    3    3    0    0 -0.23048038124E+01 -0.20313759692E+00 -0.19118655247E+02  0.19258150585E+02  0.00000000000E+00 0. -1.
</event>
<event>
 7    1  0.2740409E-010  0.4778727E+02  0.7816164E-02  0.1312668E+00
        -11   -1    0    0    0    0  0.00000000000E+00  0.00000000000E+00  0.45593999997E+02  0.45594000000E+02  0.51100000000E-03 0.  1.
         11   -1    0    0    0    0 -0.00000000000E+00 -0.00000000000E+00 -0.45593999997E+02  0.45594000000E+02  0.51100000000E-03 0. -1.
    9900012    2    1    2    0    0  0.23537518743E+02  0.28077027565E+02 -0.23265626547E+02  0.47787266779E+02  0.19999980553E+02 0.  0.
        -12    1    1    2    0    0 -0.23537518743E+02 -0.28077027565E+02  0.23265626547E+02  0.43400733221E+02  0.00000000000E+00 0.  1.
         11    1    3    3    0    0  0.14573575056E+02  0.30450187373E+01 -0.88274656482E+01  0.17308534862E+02  0.51100000000E-03 0. -1.
        -11    1    3    3    0    0  0.83460256038E+01  0.18841509353E+02 -0.10678449152E+02  0.23209650894E+02  0.51100000000E-03 0.  1.
         12    1    3    3    0    0  0.61791808322E+00  0.61904994748E+01 -0.37597117467E+01  0.72690810232E+01  0.00000000000E+00 0. -1.
</event>
<event>
 7    1  0.2740409E-010  0.4778727E+02  0.7816164E-02  0.1312668E+00
        -11   -1    0    0    0    0  0.00000000000E+00  0.00000000000E+00  0.45593999997E+02  0.45594000000E+02  0.51100000000E-03 0.  1.
         11   -1    0    0    0    0 -0.00000000000E+00 -0.00000000000E+00 -0.45593999997E+02  0.45594000000E+02  0.51100000000E-03 0. -1.
    9900012    2    1    2    0    0 -0.34331721797E+02  0.18185439824E+02 -0.19345433798E+02  0.47787272448E+02  0.20000006400E+02 0.  0.
        -12    1    1    2    0    0  0.34331721797E+02 -0.18185439824E+02  0.19345433798E+02  0.43400727552E+02  0.00000000000E+00 0.  1.
         11    1    3    3    0    0 -0.17355863275E+02  0.72591999072E+01 -0.35316046651E+01  0.19141426412E+02  0.51100000000E-03 0. -1.
        -11    1    3    3    0    0 -0.62438795259E+01  0.61266489081E+01 -0.14339922462E+02  0.16797477038E+02  0.51100000000E-03 0.  1.
        -12    1    3    3    0    0 -0.10731978997E+02  0.47995910091E+01 -0.14739066718E+01  0.11848368998E+02  0.00000000000E+00 0.  1.
</event>
<event>
 7    1  0.2740409E-010  0.4778726E+02  0.7816164E-02  0.1312668E+00
        -11   -1    0    0    0    0  0.00000000000E+00  0.00000000000E+00  0.45593999997E+02  0.45594000000E+02  0.51100000000E-03 0.  1.
         11   -1    0    0    0    0 -0.00000000000E+00 -0.00000000000E+00 -0.45593999997E+02  0.45594000000E+02  0.51100000000E-03 0. -1.
    9900012    2    1    2    0    0  0.12772249225E+02  0.30098082068E+01 -0.41369493611E+02  0.47787259253E+02  0.19999946239E+02 0.  0.
        -12    1    1    2    0    0 -0.12772249225E+02 -0.30098082068E+01  0.41369493611E+02  0.43400740747E+02  0.00000000000E+00 0.  1.
         11    1    3    3    0    0  0.13604260333E+02  0.69222682325E+01 -0.32717926504E+02  0.36103412743E+02  0.51100000000E-03 0. -1.
        -11    1    3    3    0    0 -0.28275154539E+01 -0.73002824442E+00 -0.69918706434E+01  0.75772053050E+01  0.51100000000E-03 0.  1.
        -12    1    3    3    0    0  0.19955043460E+01 -0.31824317813E+01 -0.16596964640E+01  0.41066412055E+01  0.00000000000E+00 0.  1.
</event>
<event>
 7    1  0.2740409E-010  0.4778728E+02  0.7816164E-02  0.1312668E+00
        -11   -1    0    0    0    0  0.00000000000E+00  0.00000000000E+00  0.45593999997E+02  0.45594000000E+02  0.51100000000E-03 0. -1.
         11   -1    0    0    0    0 -0.00000000000E+00 -0.00000000000E+00 -0.45593999997E+02  0.45594000000E+02  0.51100000000E-03 0.  1.
    9900012    2    1    2    0    0 -0.23768257078E+02 -0.84906464721E+01  0.35307245297E+02  0.47787277742E+02  0.20000030537E+02 0.  0.
        -12    1    1    2    0    0  0.23768257078E+02  0.84906464721E+01 -0.35307245297E+02  0.43400722258E+02  0.00000000000E+00 0.  1.
         11    1    3    3    0    0 -0.17439644894E+02 -0.20203205889E+01  0.16434299583E+02  0.24048058390E+02  0.51100000000E-03 0. -1.
        -11    1    3    3    0    0 -0.11562969107E+01 -0.26329127583E-01  0.14198683771E+02  0.14245712930E+02  0.51100000000E-03 0.  1.
         12    1    3    3    0    0 -0.51723152737E+01 -0.64439967556E+01  0.46742619425E+01  0.94935064220E+01  0.00000000000E+00 0. -1.
</event>
<event>
 7    1  0.2740409E-010  0.4778727E+02  0.7816164E-02  0.1312668E+00
        -11   -1    0    0    0    0  0.00000000000E+00  0.00000000000E+00  0.45593999997E+02  0.45594000000E+02  0.51100000000E-03 0.  1.
         11   -1    0    0    0    0 -0.00000000000E+00 -0.00000000000E+00 -0.45593999997E+02  0.45594000000E+02  0.51100000000E-03 0. -1.
    9900012    2    1    2    0    0  0.17669544290E+02 -0.18742736419E+02 -0.34930222691E+02  0.47787269348E+02  0.19999992265E+02 0.  0.
        -12    1    1    2    0    0 -0.17669544290E+02  0.18742736419E+02  0.34930222691E+02  0.43400730652E+02  0.00000000000E+00 0.  1.
         11    1    3    3    0    0  0.64837340041E+01 -0.79556288965E+01 -0.32818569949E+01  0.10775037047E+02  0.51100000000E-03 0. -1.
        -11    1    3    3    0    0  0.39956496358E+01  0.64438315705E+00 -0.15202930929E+02  0.15732436390E+02  0.51100000000E-03 0.  1.
         12    1    3    3    0    0  0.71901606498E+01 -0.11431490679E+02 -0.16445434767E+02  0.21279795911E+02  0.00000000000E+00 0. -1.
</event>
<event>
 7    1  0.2740409E-010  0.4778728E+02  0.7816164E-02  0.1312668E+00
        -11   -1    0    0    0    0  0.00000000000E+00  0.00000000000E+00  0.45593999997E+02  0.45594000000E+02  0.51100000000E-03 0.  1.
         11   -1    0    0    0    0 -0.00000000000E+00 -0.00000000000E+00 -0.45593999997E+02  0.45594000000E+02  0.51100000000E-03 0. -1.
    9900012    2    1    2    0    0 -0.55178991422E+01  0.21227983171E+02 -0.37450612599E+02  0.47787275760E+02  0.20000021502E+02 0.  0.
        -12    1    1    2    0    0  0.55178991422E+01 -0.21227983171E+02  0.37450612599E+02  0.43400724240E+02  0.00000000000E+00 0.  1.
         11    1    3    3    0    0  0.27505318887E+01 -0.21222219977E+01 -0.58701244289E+01  0.68211152277E+01  0.51100000000E-03 0. -1.
        -11    1    3    3    0    0 -0.42199479309E+01  0.36175331204E+01 -0.41636346694E+01  0.69448081570E+01  0.51100000000E-03 0.  1.
         12    1    3    3    0    0 -0.40484831000E+01  0.19732672049E+02 -0.27416853501E+02  0.34021352376E+02  0.00000000000E+00 0. -1.
</event>
<event>
 7    1  0.2740409E-010  0.4778727E+02  0.7816164E-02  0.1312668E+00
        -11   -1    0    0    0    0  0.00000000000E+00  0.00000000000E+00  0.45593999997E+02  0.45594000000E+02  0.51100000000E-03 0.  1.
         11   -1    0    0    0    0 -0.00000000000E+00 -0.00000000000E+00 -0.45593999997E+02  0.45594000000E+02  0.51100000000E-03 0. -1.
    9900012    2    1    2    0    0  0.86821351953E+01 -0.22552880520E+02 -0.36050122402E+02  0.47787271705E+02  0.20000003012E+02 0.  0.
        -12    1    1    2    0    0 -0.86821351953E+01  0.22552880520E+02  0.36050122402E+02  0.43400728295E+02  0.00000000000E+00 0.  1.
         11    1    3    3    0    0 -0.17671792259E+01 -0.14150831586E+02 -0.28027845836E+02  0.31447243114E+02  0.51100000000E-03 0. -1.
        -11    1    3    3    0    0  0.26797690947E+00  0.41398744558E+00  0.23092472459E+00  0.54453991466E+00  0.51100000000E-03 0.  1.
         12    1    3    3    0    0  0.10181337512E+02 -0.88160363801E+01 -0.82532012910E+01  0.15795488677E+02  0.00000000000E+00 0. -1.
</event>
<event>
 7    1  0.2740409E-010  0.4778727E+02  0.7816164E-02  0.1312668E+00
        -11   -1    0    0    0    0  0.00000000000E+00  0.00000000000E+00  0.45593999997E+02  0.45594000000E+02  0.51100000000E-03 0.  1.
         11   -1    0    0    0    0 -0.00000000000E+00 -0.00000000000E+00 -0.45593999997E+02  0.45594000000E+02  0.51100000000E-03 0. -1.
    9900012    2    1    2    0    0 -0.49711387704E+01 -0.39780505474E+02 -0.16625961966E+02  0.47787269042E+02  0.19999990870E+02 0.  0.
        -12    1    1    2    0    0  0.49711387704E+01  0.39780505474E+02  0.16625961966E+02  0.43400730958E+02  0.00000000000E+00 0.  1.
         11    1    3    3    0    0  0.14828589674E+00  0.24395635581E+00  0.26508599177E+01  0.26661886608E+01  0.51100000000E-03 0. -1.
        -11    1    3    3    0    0 -0.23215504615E+01 -0.33399829481E+02 -0.14484406024E+02  0.36479257449E+02  0.51100000000E-03 0.  1.
         12    1    3    3    0    0 -0.27978742056E+01 -0.66246323482E+01 -0.47924158593E+01  0.86418229320E+01  0.00000000000E+00 0. -1.
</event>
<event>
 7    1  0.2740409E-010  0.4778727E+02  0.7816164E-02  0.1312668E+00
        -11   -1    0    0    0    0  0.00000000000E+00  0.00000000000E+00  0.45593999997E+02  0.45594000000E+02  0.51100000000E-03 0.  1.
         11   -1    0    0    0    0 -0.00000000000E+00 -0.00000000000E+00 -0.45593999997E+02  0.45594000000E+02  0.51100000000E-03 0. -1.
    9900012    2    1    2    0    0  0.40560970211E+02  0.13300902205E+02 -0.78432685359E+01  0.47787272296E+02  0.20000005705E+02 0.  0.
        -12    1    1    2    0    0 -0.40560970211E+02 -0.13300902205E+02  0.78432685359E+01  0.43400727704E+02  0.00000000000E+00 0.  1.
         11    1    3    3    0    0  0.23078097280E+02 -0.45353589235E+00 -0.74291445765E+01  0.24248638277E+02  0.51100000000E-03 0. -1.
        -11    1    3    3    0    0  0.93928031685E+01  0.10449850244E+02  0.26101685089E+01  0.14291154656E+02  0.51100000000E-03 0.  1.
        -12    1    3    3    0    0  0.80900697624E+01  0.33045878535E+01 -0.30242924683E+01  0.92474793634E+01  0.00000000000E+00 0.  1.
</event>
<event>
 7    1  0.2740409E-010  0.4778726E+02  0.7816164E-02  0.1312668E+00
        -11   -1    0    0    0    0  0.00000000000E+00  0.00000000000E+00  0.45593999997E+02  0.45594000000E+02  0.51100000000E-03 0.  1.
         11   -1    0    0    0    0 -0.00000000000E+00 -0.00000000000E+00 -0.45593999997E+02  0.45594000000E+02  0.51100000000E-03 0. -1.
    9900012    2    1    2    0    0 -0.19933883689E+02 -0.19295236756E+02 -0.33376019291E+02  0.47787256411E+02  0.19999933280E+02 0.  0.
        -12    1    1    2    0    0  0.19933883689E+02  0.19295236756E+02  0.33376019291E+02  0.43400743589E+02  0.00000000000E+00 0.  1.
         11    1    3    3    0    0  0.17745479223E+01 -0.10012233499E+01 -0.39868133843E+01  0.44772926805E+01  0.51100000000E-03 0. -1.
        -11    1    3    3    0    0 -0.18801361653E+02 -0.68596409514E+01 -0.18618476092E+02  0.27334840885E+02  0.51100000000E-03 0.  1.
        -12    1    3    3    0    0 -0.29070699582E+01 -0.11434372455E+02 -0.10770729814E+02  0.15975122845E+02  0.00000000000E+00 0.  1.
</event>
<event>
 7    1  0.2740409E-010  0.4778727E+02  0.7816164E-02  0.1312668E+00
        -11   -1    0    0    0    0  0.00000000000E+00  0.00000000000E+00  0.45593999997E+02  0.45594000000E+02  0.51100000000E-03 0.  1.
         11   -1    0    0    0    0 -0.00000000000E+00 -0.00000000000E+00 -0.45593999997E+02  0.45594000000E+02  0.51100000000E-03 0. -1.
    9900012    2    1    2    0    0  0.38284484358E+02  0.67408189676E+01 -0.19299819363E+02  0.47787269472E+02  0.19999992831E+02 0.  0.
        -12    1    1    2    0    0 -0.38284484358E+02 -0.67408189676E+01  0.19299819363E+02  0.43400730528E+02  0.00000000000E+00 0.  1.
         11    1    3    3    0    0  0.21732434036E+02  0.31850308919E+01 -0.16414840785E+02  0.27420614676E+02  0.51100000000E-03 0. -1.
        -11    1    3    3    0    0  0.68920804672E+01  0.53822974433E+01  0.25817012667E+01  0.91178440777E+01  0.51100000000E-03 0.  1.
        -12    1    3    3    0    0  0.96599698550E+01 -0.18265093675E+01 -0.54666798440E+01  0.11248810719E+02  0.00000000000E+00 0.  1.
</event>
<event>
 7    1  0.2740409E-010  0.4778727E+02  0.7816164E-02  0.1312668E+00
        -11   -1    0    0    0    0  0.00000000000E+00  0.00000000000E+00  0.45593999997E+02  0.45594000000E+02  0.51100000000E-03 0. -1.
         11   -1    0    0    0    0 -0.00000000000E+00 -0.00000000000E+00 -0.45593999997E+02  0.45594000000E+02  0.51100000000E-03 0.  1.
    9900012    2    1    2    0    0  0.83166472924E+01  0.36254795709E+02  0.22361723485E+02  0.47787268309E+02  0.19999987529E+02 0.  0.
        -12    1    1    2    0    0 -0.83166472924E+01 -0.36254795709E+02 -0.22361723485E+02  0.43400731691E+02  0.00000000000E+00 0.  1.
         11    1    3    3    0    0  0.63690804635E+01  0.35318593739E+02  0.21606497346E+02  0.41890440168E+02  0.51100000000E-03 0. -1.
        -11    1    3    3    0    0  0.20389887558E+01  0.17913461747E-01 -0.20814614402E+01  0.29138081657E+01  0.51100000000E-03 0.  1.
        -12    1    3    3    0    0 -0.91421926958E-01  0.91828850866E+00  0.28366875789E+01  0.29830199755E+01  0.00000000000E+00 0.  1.
</event>
<event>
 7    1  0.2740409E-010  0.4778727E+02  0.7816164E-02  0.1312668E+00
        -11   -1    0    0    0    0  0.00000000000E+00  0.00000000000E+00  0.45593999997E+02  0.45594000000E+02  0.51100000000E-03 0. -1.
         11   -1    0    0    0    0 -0.00000000000E+00 -0.00000000000E+00 -0.45593999997E+02  0.45594000000E+02  0.51100000000E-03 0.  1.
    9900012    2    1    2    0    0 -0.23429820117E+02  0.27201071771E+02  0.24387874580E+02  0.47787271864E+02  0.20000003736E+02 0.  0.
        -12    1    1    2    0    0  0.23429820117E+02 -0.27201071771E+02 -0.24387874580E+02  0.43400728136E+02  0.00000000000E+00 0.  1.
         11    1    3    3    0    0 -0.17619150623E+01 -0.84915474988E+00  0.47816871769E+01  0.51662308306E+01  0.51100000000E-03 0. -1.
        -11    1    3    3    0    0 -0.22206421829E+02  0.28199280289E+02  0.16569169452E+02  0.39533048907E+02  0.51100000000E-03 0.  1.
        -12    1    3    3    0    0  0.53851677407E+00 -0.14905376788E+00  0.30370179505E+01  0.30879921265E+01  0.00000000000E+00 0.  1.
</event>
<event>
 7    1  0.2740409E-010  0.4778727E+02  0.7816164E-02  0.1312668E+00
        -11   -1    0    0    0    0  0.00000000000E+00  0.00000000000E+00  0.45593999997E+02  0.45594000000E+02  0.51100000000E-03 0. -1.
         11   -1    0    0    0    0 -0.00000000000E+00 -0.00000000000E+00 -0.45593999997E+02  0.45594000000E+02  0.51100000000E-03 0.  1.
    9900012    2    1    2    0    0  0.23452051812E+02  0.21962366887E+02  0.29176686126E+02  0.47787270666E+02  0.19999998273E+02 0.  0.
        -12    1    1    2    0    0 -0.23452051812E+02 -0.21962366887E+02 -0.29176686126E+02  0.43400729334E+02  0.00000000000E+00 0.  1.
         11    1    3    3    0    0  0.16599265629E+01  0.35394038969E+01  0.60261761951E+01  0.71831424833E+01  0.51100000000E-03 0. -1.
        -11    1    3    3    0    0 -0.45616220213E-01 -0.38674389630E+00  0.80626679631E+01  0.80720670602E+01  0.51100000000E-03 0.  1.
        -12    1    3    3    0    0  0.21837741469E+02  0.18809706886E+02  0.15087841968E+02  0.32532061122E+02  0.00000000000E+00 0.  1.
</event>
<event>
 7    1  0.2740409E-010  0.4778728E+02  0.7816164E-02  0.1312668E+00
        -11   -1    0    0    0    0  0.00000000000E+00  0.00000000000E+00  0.45593999997E+02  0.45594000000E+02  0.51100000000E-03 0. -1.
         11   -1    0    0    0    0 -0.00000000000E+00 -0.00000000000E+00 -0.45593999997E+02  0.45594000000E+02  0.51100000000E-03 0.  1.
    9900012    2    1    2    0    0 -0.24930581374E+02  0.32023422150E+02  0.15381452305E+02  0.47787279628E+02  0.20000039134E+02 0.  0.
        -12    1    1    2    0    0  0.24930581374E+02 -0.32023422150E+02 -0.15381452305E+02  0.43400720372E+02  0.00000000000E+00 0.  1.
         11    1    3    3    0    0 -0.75319526985E+01  0.74371790405E+01  0.34983728555E+01  0.11148118964E+02  0.51100000000E-03 0. -1.
        -11    1    3    3    0    0 -0.18677086183E+02  0.22699278572E+02  0.14821293081E+02  0.32920533484E+02  0.51100000000E-03 0.  1.
        -12    1    3    3    0    0  0.12784575067E+01  0.18869645368E+01 -0.29382136319E+01  0.37186271803E+01  0.00000000000E+00 0.  1.
</event>
<event>
 7    1  0.2740409E-010  0.4778727E+02  0.7816164E-02  0.1312668E+00
        -11   -1    0    0    0    0  0.00000000000E+00  0.00000000000E+00  0.45593999997E+02  0.45594000000E+02  0.51100000000E-03 0.  1.
         11   -1    0    0    0    0 -0.00000000000E+00 -0.00000000000E+00 -0.45593999997E+02  0.45594000000E+02  0.51100000000E-03 0. -1.
    9900012    2    1    2    0    0  0.22519593097E+02 -0.34317111471E+02 -0.14100603708E+02  0.47787271459E+02  0.20000001889E+02 0.  0.
        -12    1    1    2    0    0 -0.22519593097E+02  0.34317111471E+02  0.14100603708E+02  0.43400728541E+02  0.00000000000E+00 0.  1.
         11    1    3    3    0    0  0.46554547799E+01 -0.14713705396E+02 -0.10331944216E+02  0.18571899667E+02  0.51100000000E-03 0. -1.
        -11    1    3    3    0    0  0.19495266432E+02 -0.17204952416E+02 -0.39925378410E+01  0.26306200021E+02  0.51100000000E-03 0.  1.
        -12    1    3    3    0    0 -0.16311281142E+01 -0.23984536581E+01  0.22387834868E+00  0.29091717705E+01  0.00000000000E+00 0.  1.
</event>
<event>
 7    1  0.2740409E-010  0.4778727E+02  0.7816164E-02  0.1312668E+00
        -11   -1    0    0    0    0  0.00000000000E+00  0.00000000000E+00  0.45593999997E+02  0.45594000000E+02  0.51100000000E-03 0.  1.
         11   -1    0    0    0    0 -0.00000000000E+00 -0.00000000000E+00 -0.45593999997E+02  0.45594000000E+02  0.51100000000E-03 0. -1.
    9900012    2    1    2    0    0  0.22398201949E+02  0.36549850388E+02  0.67861730772E+01  0.47787272368E+02  0.20000006035E+02 0.  0.
        -12    1    1    2    0    0 -0.22398201949E+02 -0.36549850388E+02 -0.67861730772E+01  0.43400727632E+02  0.00000000000E+00 0.  1.
         11    1    3    3    0    0  0.12592038665E+02  0.26302286427E+02  0.85579391801E+01  0.30390920228E+02  0.51100000000E-03 0. -1.
        -11    1    3    3    0    0  0.62847712931E+01 -0.11795926402E+00  0.11860360906E+00  0.62869970313E+01  0.51100000000E-03 0.  1.
         12    1    3    3    0    0  0.35213919912E+01  0.10365523225E+02 -0.18903697120E+01  0.11109355109E+02  0.00000000000E+00 0. -1.
</event>
<event>
 7    1  0.2740409E-010  0.4778727E+02  0.7816164E-02  0.1312668E+00
        -11   -1    0    0    0    0  0.00000000000E+00  0.00000000000E+00  0.45593999997E+02  0.45594000000E+02  0.51100000000E-03 0. -1.
         11   -1    0    0    0    0 -0.00000000000E+00 -0.00000000000E+00 -0.45593999997E+02  0.45594000000E+02  0.51100000000E-03 0.  1.
    9900012    2    1    2    0    0 -0.27890394738E+02 -0.20772641376E+01  0.33187862519E+02  0.47787270011E+02  0.19999995289E+02 0.  0.
        -12    1    1    2    0    0  0.27890394738E+02  0.20772641376E+01 -0.33187862519E+02  0.43400729989E+02  0.00000000000E+00 0.  1.
         11    1    3    3    0    0 -0.12006820641E+02  0.27912697974E+01  0.24774761566E+02  0.27672075092E+02  0.51100000000E-03 0. -1.
        -11    1    3    3    0    0 -0.24281630634E+01 -0.24805417479E+00 -0.14174401101E+01  0.28225243068E+01  0.51100000000E-03 0.  1.
         12    1    3    3    0    0 -0.13455411034E+02 -0.46204797602E+01  0.98305410638E+01  0.17292670613E+02  0.00000000000E+00 0. -1.
</event>
<event>
 7    1  0.2740409E-010  0.4778727E+02  0.7816164E-02  0.1312668E+00
        -11   -1    0    0    0    0  0.00000000000E+00  0.00000000000E+00  0.45593999997E+02  0.45594000000E+02  0.51100000000E-03 0. -1.
         11   -1    0    0    0    0 -0.00000000000E+00 -0.00000000000E+00 -0.45593999997E+02  0.45594000000E+02  0.51100000000E-03 0.  1.
    9900012    2    1    2    0    0 -0.37196192336E+01 -0.10537274036E+02  0.41937495229E+02  0.47787271695E+02  0.20000002966E+02 0.  0.
        -12    1    1    2    0    0  0.37196192336E+01  0.10537274036E+02 -0.41937495229E+02  0.43400728305E+02  0.00000000000E+00 0.  1.
         11    1    3    3    0    0 -0.23376232606E+01 -0.87422447749E+01  0.34850971672E+02  0.36006687614E+02  0.51100000000E-03 0. -1.
        -11    1    3    3    0    0  0.11565006849E+01  0.32716996286E+01  0.13689754499E+01  0.37303627622E+01  0.51100000000E-03 0.  1.
        -12    1    3    3    0    0 -0.25384966580E+01 -0.50667288896E+01  0.57175481070E+01  0.80502213187E+01  0.00000000000E+00 0.  1.
</event>
<event>
 7    1  0.2740409E-010  0.4778727E+02  0.7816164E-02  0.1312668E+00
        -11   -1    0    0    0    0  0.00000000000E+00  0.00000000000E+00  0.45593999997E+02  0.45594000000E+02  0.51100000000E-03 0. -1.
         11   -1    0    0    0    0 -0.00000000000E+00 -0.00000000000E+00 -0.45593999997E+02  0.45594000000E+02  0.51100000000E-03 0.  1.
    9900012    2    1    2    0    0 -0.16640153795E+02 -0.12003777638E+02  0.38244450500E+02  0.47787269707E+02  0.19999993903E+02 0.  0.
        -12    1    1    2    0    0  0.16640153795E+02  0.12003777638E+02 -0.38244450500E+02  0.43400730293E+02  0.00000000000E+00 0.  1.
         11    1    3    3    0    0 -0.21232684130E+01  0.14167005254E+01  0.18955415663E+02  0.19126502355E+02  0.51100000000E-03 0. -1.
        -11    1    3    3    0    0  0.24084112399E+00 -0.43806947160E+00 -0.54341568284E+00  0.73838348737E+00  0.51100000000E-03 0.  1.
         12    1    3    3    0    0 -0.14757726506E+02 -0.12982408692E+02  0.19832450520E+02  0.27922383865E+02  0.00000000000E+00 0. -1.
</event>
<event>
 7    1  0.2740409E-010  0.4778727E+02  0.7816164E-02  0.1312668E+00
        -11   -1    0    0    0    0  0.00000000000E+00  0.00000000000E+00  0.45593999997E+02  0.45594000000E+02  0.51100000000E-03 0. -1.
         11   -1    0    0    0    0 -0.00000000000E+00 -0.00000000000E+00 -0.45593999997E+02  0.45594000000E+02  0.51100000000E-03 0.  1.
    9900012    2    1    2    0    0  0.99919486739E+01 -0.43294737693E+01  0.42012375121E+02  0.47787273684E+02  0.20000012036E+02 0.  0.
        -12    1    1    2    0    0 -0.99919486739E+01  0.43294737693E+01 -0.42012375121E+02  0.43400726316E+02  0.00000000000E+00 0.  1.
         11    1    3    3    0    0  0.62612390573E+01 -0.27389237250E+01  0.14410434331E+02  0.15948838064E+02  0.51100000000E-03 0.  1.
        -11    1    3    3    0    0  0.42343192854E+01 -0.81523584475E+01  0.14281094103E+02  0.16980578821E+02  0.51100000000E-03 0. -1.
        -12    1    3    3    0    0 -0.50360966879E+00  0.65618084032E+01  0.13320846687E+02  0.14857856800E+02  0.00000000000E+00 0.  1.
</event>
<event>
 7    1  0.2740409E-010  0.4778728E+02  0.7816164E-02  0.1312668E+00
        -11   -1    0    0    0    0  0.00000000000E+00  0.00000000000E+00  0.45593999997E+02  0.45594000000E+02  0.51100000000E-03 0. -1.
         11   -1    0    0    0    0 -0.00000000000E+00 -0.00000000000E+00 -0.45593999997E+02  0.45594000000E+02  0.51100000000E-03 0.  1.
    9900012    2    1    2    0    0  0.89952890289E+01  0.37351380032E+02  0.20188654351E+02  0.47787279044E+02  0.20000036474E+02 0.  0.
        -12    1    1    2    0    0 -0.89952890289E+01 -0.37351380032E+02 -0.20188654351E+02  0.43400720956E+02  0.00000000000E+00 0.  1.
         11    1    3    3    0    0  0.11805465351E+02  0.25615023277E+02  0.15813793684E+02  0.32335344448E+02  0.51100000000E-03 0. -1.
        -11    1    3    3    0    0 -0.28821301667E+01  0.75256548485E+01 -0.15265483070E+01  0.82019817844E+01  0.51100000000E-03 0.  1.
        -12    1    3    3    0    0  0.71953844748E-01  0.42107019066E+01  0.59014089736E+01  0.72499528120E+01  0.00000000000E+00 0.  1.
</event>
<event>
 7    1  0.2740409E-010  0.4778726E+02  0.7816164E-02  0.1312668E+00
        -11   -1    0    0    0    0  0.00000000000E+00  0.00000000000E+00  0.45593999997E+02  0.45594000000E+02  0.51100000000E-03 0.  1.
         11   -1    0    0    0    0 -0.00000000000E+00 -0.00000000000E+00 -0.45593999997E+02  0.45594000000E+02  0.51100000000E-03 0. -1.
    9900012    2    1    2    0    0  0.11278172041E+02 -0.33170289800E+02 -0.25615604119E+02  0.47787257329E+02  0.19999937466E+02 0.  0.
        -12    1    1    2    0    0 -0.11278172041E+02  0.33170289800E+02  0.25615604119E+02  0.43400742671E+02  0.00000000000E+00 0.  1.
         11    1    3    3    0    0  0.38707492743E+01 -0.68660311265E+01 -0.84093304069E+01  0.11525706986E+02  0.51100000000E-03 0. -1.
        -11    1    3    3    0    0  0.14974091791E+01 -0.14451734216E+02 -0.17833068292E+02  0.23002460327E+02  0.51100000000E-03 0.  1.
        -12    1    3    3    0    0  0.59100135875E+01 -0.11852524457E+02  0.62679457983E+00  0.13259090016E+02  0.00000000000E+00 0.  1.
</event>
<event>
 7    1  0.2740409E-010  0.4778726E+02  0.7816164E-02  0.1312668E+00
        -11   -1    0    0    0    0  0.00000000000E+00  0.00000000000E+00  0.45593999997E+02  0.45594000000E+02  0.51100000000E-03 0.  1.
         11   -1    0    0    0    0 -0.00000000000E+00 -0.00000000000E+00 -0.45593999997E+02  0.45594000000E+02  0.51100000000E-03 0. -1.
    9900012    2    1    2    0    0  0.38425669129E+02  0.17518444783E+02 -0.10009791043E+02  0.47787264149E+02  0.19999968563E+02 0.  0.
        -12    1    1    2    0    0 -0.38425669129E+02 -0.17518444783E+02  0.10009791043E+02  0.43400735851E+02  0.00000000000E+00 0.  1.
         11    1    3    3    0    0  0.31578892950E+02  0.12162791666E+02 -0.30201692540E+01  0.33974717124E+02  0.51100000000E-03 0. -1.
        -11    1    3    3    0    0 -0.11199938292E+00 -0.16648127738E+01  0.62746057458E-01  0.16697553002E+01  0.51100000000E-03 0.  1.
         12    1    3    3    0    0  0.69587755624E+01  0.70204658901E+01 -0.70523678467E+01  0.12142791725E+02  0.00000000000E+00 0. -1.
</event>
<event>
 7    1  0.2740409E-010  0.4778727E+02  0.7816164E-02  0.1312668E+00
        -11   -1    0    0    0    0  0.00000000000E+00  0.00000000000E+00  0.45593999997E+02  0.45594000000E+02  0.51100000000E-03 0.  1.
         11   -1    0    0    0    0 -0.00000000000E+00 -0.00000000000E+00 -0.45593999997E+02  0.45594000000E+02  0.51100000000E-03 0. -1.
    9900012    2    1    2    0    0 -0.21403718419E+02 -0.31109285185E+02 -0.21394314363E+02  0.47787268740E+02  0.19999989492E+02 0.  0.
        -12    1    1    2    0    0  0.21403718419E+02  0.31109285185E+02  0.21394314363E+02  0.43400731260E+02  0.00000000000E+00 0.  1.
         11    1    3    3    0    0 -0.11326244129E+02 -0.17994502691E+02 -0.76166794235E+01  0.22585387729E+02  0.51100000000E-03 0. -1.
        -11    1    3    3    0    0 -0.18960505762E+01 -0.10102957310E+02 -0.12818595988E+02  0.16431103358E+02  0.51100000000E-03 0.  1.
        -12    1    3    3    0    0 -0.81814237139E+01 -0.30118251834E+01 -0.95903895124E+00  0.87707776526E+01  0.00000000000E+00 0.  1.
</event>
<event>
 7    1  0.2740409E-010  0.4778727E+02  0.7816164E-02  0.1312668E+00
        -11   -1    0    0    0    0  0.00000000000E+00  0.00000000000E+00  0.45593999997E+02  0.45594000000E+02  0.51100000000E-03 0.  1.
         11   -1    0    0    0    0 -0.00000000000E+00 -0.00000000000E+00 -0.45593999997E+02  0.45594000000E+02  0.51100000000E-03 0. -1.
    9900012    2    1    2    0    0 -0.32132801219E+02  0.27170886996E+02 -0.10623068217E+02  0.47787267371E+02  0.19999983254E+02 0.  0.
        -12    1    1    2    0    0  0.32132801219E+02 -0.27170886996E+02  0.10623068217E+02  0.43400732629E+02  0.00000000000E+00 0.  1.
         11    1    3    3    0    0 -0.16450193488E+02  0.13470233701E+02  0.20842613518E+01  0.21363525163E+02  0.51100000000E-03 0. -1.
        -11    1    3    3    0    0 -0.54938464296E+01  0.11002958484E+02 -0.90429252293E+01  0.15265056205E+02  0.51100000000E-03 0.  1.
        -12    1    3    3    0    0 -0.10188761302E+02  0.26976948119E+01 -0.36644043398E+01  0.11158686003E+02  0.00000000000E+00 0.  1.
</event>
<event>
 7    1  0.2740409E-010  0.4778727E+02  0.7816164E-02  0.1312668E+00
        -11   -1    0    0    0    0  0.00000000000E+00  0.00000000000E+00  0.45593999997E+02  0.45594000000E+02  0.51100000000E-03 0.  1.
         11   -1    0    0    0    0 -0.00000000000E+00 -0.00000000000E+00 -0.45593999997E+02  0.45594000000E+02  0.51100000000E-03 0. -1.
    9900012    2    1    2    0    0 -0.14579148642E+02  0.20425533322E+02 -0.35410016221E+02  0.47787271488E+02  0.20000002023E+02 0.  0.
        -12    1    1    2    0    0  0.14579148642E+02 -0.20425533322E+02  0.35410016221E+02  0.43400728512E+02  0.00000000000E+00 0.  1.
         11    1    3    3    0    0 -0.30922530565E+00  0.17218662064E+02 -0.16862795032E+02  0.24102526841E+02  0.51100000000E-03 0.  1.
        -11    1    3    3    0    0 -0.11648238702E+02  0.19065351346E+01 -0.14903491020E+02  0.19011322572E+02  0.51100000000E-03 0. -1.
        -12    1    3    3    0    0 -0.26216846338E+01  0.13003361232E+01 -0.36437301690E+01  0.46734220756E+01  0.00000000000E+00 0.  1.
</event>
<event>
 7    1  0.2740409E-010  0.4778726E+02  0.7816164E-02  0.1312668E+00
        -11   -1    0    0    0    0  0.00000000000E+00  0.00000000000E+00  0.45593999997E+02  0.45594000000E+02  0.51100000000E-03 0.  1.
         11   -1    0    0    0    0 -0.00000000000E+00 -0.00000000000E+00 -0.45593999997E+02  0.45594000000E+02  0.51100000000E-03 0. -1.
    9900012    2    1    2    0    0  0.37936084193E+01  0.59831335949E+01 -0.42818626805E+02  0.47787260906E+02  0.19999953776E+02 0.  0.
        -12    1    1    2    0    0 -0.37936084193E+01 -0.59831335949E+01  0.42818626805E+02  0.43400739094E+02  0.00000000000E+00 0.  1.
         11    1    3    3    0    0  0.16056601553E+01  0.84176698799E+01 -0.34238528626E+02  0.35294647661E+02  0.51100000000E-03 0. -1.
        -11    1    3    3    0    0 -0.23875775776E+01  0.79642887616E+00 -0.56186457720E+01  0.61566229555E+01  0.51100000000E-03 0.  1.
         12    1    3    3    0    0  0.45755258416E+01 -0.32309651612E+01 -0.29614524060E+01  0.63359902899E+01  0.00000000000E+00 0. -1.
</event>
<event>
 7    1  0.2740409E-010  0.4778727E+02  0.7816164E-02  0.1312668E+00
        -11   -1    0    0    0    0  0.00000000000E+00  0.00000000000E+00  0.45593999997E+02  0.45594000000E+02  0.51100000000E-03 0. -1.
         11   -1    0    0    0    0 -0.00000000000E+00 -0.00000000000E+00 -0.45593999997E+02  0.45594000000E+02  0.51100000000E-03 0.  1.
    9900012    2    1    2    0    0 -0.20462339055E+02  0.31859536653E+02  0.21210517361E+02  0.47787269107E+02  0.19999991167E+02 0.  0.
        -12    1    1    2    0    0  0.20462339055E+02 -0.31859536653E+02 -0.21210517361E+02  0.43400730893E+02  0.00000000000E+00 0.  1.
         11    1    3    3    0    0  0.11856154558E+01  0.12804768986E+01  0.36194840236E+01  0.40182048174E+01  0.51100000000E-03 0. -1.
        -11    1    3    3    0    0 -0.94545129144E+01  0.80490957773E+01  0.12560486710E+02  0.17661868076E+02  0.51100000000E-03 0.  1.
        -12    1    3    3    0    0 -0.12193441596E+02  0.22529963977E+02  0.50305466271E+01  0.26107196214E+02  0.00000000000E+00 0.  1.
</event>
<event>
 7    1  0.2740409E-010  0.4778727E+02  0.7816164E-02  0.1312668E+00
        -11   -1    0    0    0    0  0.00000000000E+00  0.00000000000E+00  0.45593999997E+02  0.45594000000E+02  0.51100000000E-03 0. -1.
         11   -1    0    0    0    0 -0.00000000000E+00 -0.00000000000E+00 -0.45593999997E+02  0.45594000000E+02  0.51100000000E-03 0.  1.
    9900012    2    1    2    0    0  0.23051808863E+02  0.30067457092E+02  0.21170388677E+02  0.47787271612E+02  0.20000002588E+02 0.  0.
        -12    1    1    2    0    0 -0.23051808863E+02 -0.30067457092E+02 -0.21170388677E+02  0.43400728388E+02  0.00000000000E+00 0.  1.
         11    1    3    3    0    0  0.65271010302E+01  0.91230449581E-01  0.74273295776E+01  0.98882048811E+01  0.51100000000E-03 0. -1.
        -11    1    3    3    0    0  0.25829357807E+01  0.85523823062E+00 -0.20534761420E+00  0.27285816063E+01  0.51100000000E-03 0.  1.
         12    1    3    3    0    0  0.13941772052E+02  0.29120988412E+02  0.13948406713E+02  0.35170485125E+02  0.00000000000E+00 0. -1.
</event>
<event>
 7    1  0.2740409E-010  0.4778727E+02  0.7816164E-02  0.1312668E+00
        -11   -1    0    0    0    0  0.00000000000E+00  0.00000000000E+00  0.45593999997E+02  0.45594000000E+02  0.51100000000E-03 0.  1.
         11   -1    0    0    0    0 -0.00000000000E+00 -0.00000000000E+00 -0.45593999997E+02  0.45594000000E+02  0.51100000000E-03 0. -1.
    9900012    2    1    2    0    0 -0.17125667787E+02 -0.36848344065E+02 -0.15249074303E+02  0.47787271612E+02  0.20000002588E+02 0.  0.
        -12    1    1    2    0    0  0.17125667787E+02  0.36848344065E+02  0.15249074303E+02  0.43400728388E+02  0.00000000000E+00 0.  1.
         11    1    3    3    0    0 -0.90061879174E+01 -0.38855043600E+01 -0.24137862374E+01  0.10101234043E+02  0.51100000000E-03 0. -1.
        -11    1    3    3    0    0 -0.60074434542E+01 -0.31125435572E+02 -0.14000310909E+02  0.34653871677E+02  0.51100000000E-03 0.  1.
        -12    1    3    3    0    0 -0.21120364156E+01 -0.18374041333E+01  0.11650228435E+01  0.30321658918E+01  0.00000000000E+00 0.  1.
</event>
<event>
 7    1  0.2740409E-010  0.4778724E+02  0.7816164E-02  0.1312668E+00
        -11   -1    0    0    0    0  0.00000000000E+00  0.00000000000E+00  0.45593999997E+02  0.45594000000E+02  0.51100000000E-03 0.  1.
         11   -1    0    0    0    0 -0.00000000000E+00 -0.00000000000E+00 -0.45593999997E+02  0.45594000000E+02  0.51100000000E-03 0. -1.
    9900012    2    1    2    0    0  0.40925424778E+02  0.11554146190E+01 -0.14401407296E+02  0.47787240694E+02  0.19999861620E+02 0.  0.
        -12    1    1    2    0    0 -0.40925424778E+02 -0.11554146190E+01  0.14401407296E+02  0.43400759306E+02  0.00000000000E+00 0.  1.
         11    1    3    3    0    0  0.26400241834E+02 -0.69280528561E+01 -0.37759611047E+01  0.27554102559E+02  0.51100000000E-03 0. -1.
        -11    1    3    3    0    0  0.72625352017E+01  0.24245212998E+01 -0.68795461295E+01  0.10293244207E+02  0.51100000000E-03 0.  1.
         12    1    3    3    0    0  0.72626477421E+01  0.56589461753E+01 -0.37459000620E+01  0.99398939287E+01  0.00000000000E+00 0. -1.
</event>
<event>
 7    1  0.2740409E-010  0.4778727E+02  0.7816164E-02  0.1312668E+00
        -11   -1    0    0    0    0  0.00000000000E+00  0.00000000000E+00  0.45593999997E+02  0.45594000000E+02  0.51100000000E-03 0. -1.
         11   -1    0    0    0    0 -0.00000000000E+00 -0.00000000000E+00 -0.45593999997E+02  0.45594000000E+02  0.51100000000E-03 0.  1.
    9900012    2    1    2    0    0 -0.42035597345E+02  0.96831930433E+01  0.47819865182E+01  0.47787273431E+02  0.20000010879E+02 0.  0.
        -12    1    1    2    0    0  0.42035597345E+02 -0.96831930433E+01 -0.47819865182E+01  0.43400726569E+02  0.00000000000E+00 0.  1.
         11    1    3    3    0    0 -0.21703481096E+02 -0.35529527814E+01  0.39017654995E+01  0.22335808457E+02  0.51100000000E-03 0. -1.
        -11    1    3    3    0    0 -0.14272082384E+02  0.10686732871E+02 -0.25908400446E+01  0.18016965544E+02  0.51100000000E-03 0.  1.
        -12    1    3    3    0    0 -0.60600338661E+01  0.25494129539E+01  0.34710610633E+01  0.74344994298E+01  0.00000000000E+00 0.  1.
</event>
<event>
 7    1  0.2740409E-010  0.4778727E+02  0.7816164E-02  0.1312668E+00
        -11   -1    0    0    0    0  0.00000000000E+00  0.00000000000E+00  0.45593999997E+02  0.45594000000E+02  0.51100000000E-03 0.  1.
         11   -1    0    0    0    0 -0.00000000000E+00 -0.00000000000E+00 -0.45593999997E+02  0.45594000000E+02  0.51100000000E-03 0. -1.
    9900012    2    1    2    0    0  0.53015162872E+01  0.91124334486E+01 -0.42100840810E+02  0.47787270568E+02  0.19999997830E+02 0.  0.
        -12    1    1    2    0    0 -0.53015162872E+01 -0.91124334486E+01  0.42100840810E+02  0.43400729432E+02  0.00000000000E+00 0.  1.
         11    1    3    3    0    0  0.44424297142E+01  0.11753903376E+02 -0.14697917576E+02  0.19336964800E+02  0.51100000000E-03 0. -1.
        -11    1    3    3    0    0 -0.62827120557E+00  0.22797244426E+00 -0.22888165115E+02  0.22897921276E+02  0.51100000000E-03 0.  1.
         12    1    3    3    0    0  0.14873577785E+01 -0.28694423720E+01 -0.45147581182E+01  0.55523844925E+01  0.00000000000E+00 0. -1.
</event>
<event>
 7    1  0.2740409E-010  0.4778727E+02  0.7816164E-02  0.1312668E+00
        -11   -1    0    0    0    0  0.00000000000E+00  0.00000000000E+00  0.45593999997E+02  0.45594000000E+02  0.51100000000E-03 0. -1.
         11   -1    0    0    0    0 -0.00000000000E+00 -0.00000000000E+00 -0.45593999997E+02  0.45594000000E+02  0.51100000000E-03 0.  1.
    9900012    2    1    2    0    0  0.37345815162E+02  0.21987727734E+02 -0.23351672784E+01  0.47787273194E+02  0.20000009803E+02 0.  0.
        -12    1    1    2    0    0 -0.37345815162E+02 -0.21987727734E+02  0.23351672784E+01  0.43400726806E+02  0.00000000000E+00 0.  1.
         11    1    3    3    0    0  0.74574618833E+01  0.60186248607E+01  0.39232144060E+01  0.10355153040E+02  0.51100000000E-03 0. -1.
        -11    1    3    3    0    0  0.10484959749E+02  0.76256803386E+01 -0.94876220067E+01  0.16065501958E+02  0.51100000000E-03 0.  1.
        -12    1    3    3    0    0  0.19403393530E+02  0.83434225347E+01  0.32292403223E+01  0.21366618196E+02  0.00000000000E+00 0.  1.
</event>
<event>
 7    1  0.2740409E-010  0.4778727E+02  0.7816164E-02  0.1312668E+00
        -11   -1    0    0    0    0  0.00000000000E+00  0.00000000000E+00  0.45593999997E+02  0.45594000000E+02  0.51100000000E-03 0. -1.
         11   -1    0    0    0    0 -0.00000000000E+00 -0.00000000000E+00 -0.45593999997E+02  0.45594000000E+02  0.51100000000E-03 0.  1.
    9900012    2    1    2    0    0 -0.21552964080E+02 -0.35555907996E+02  0.12444696236E+02  0.47787270531E+02  0.19999997659E+02 0.  0.
        -12    1    1    2    0    0  0.21552964080E+02  0.35555907996E+02 -0.12444696236E+02  0.43400729469E+02  0.00000000000E+00 0.  1.
         11    1    3    3    0    0 -0.15987592186E+02 -0.25551070812E+02  0.15323486989E+02  0.33812269627E+02  0.51100000000E-03 0. -1.
        -11    1    3    3    0    0  0.12417913238E+00 -0.13170269420E+01  0.20813887088E+01  0.24662034874E+01  0.51100000000E-03 0.  1.
         12    1    3    3    0    0 -0.56895510268E+01 -0.86878102420E+01 -0.49601794622E+01  0.11508797417E+02  0.00000000000E+00 0. -1.
</event>
<event>
 7    1  0.2740409E-010  0.4778727E+02  0.7816164E-02  0.1312668E+00
        -11   -1    0    0    0    0  0.00000000000E+00  0.00000000000E+00  0.45593999997E+02  0.45594000000E+02  0.51100000000E-03 0.  1.
         11   -1    0    0    0    0 -0.00000000000E+00 -0.00000000000E+00 -0.45593999997E+02  0.45594000000E+02  0.51100000000E-03 0. -1.
    9900012    2    1    2    0    0 -0.12368486041E+02  0.91856074665E+01 -0.40574234819E+02  0.47787270022E+02  0.19999995338E+02 0.  0.
        -12    1    1    2    0    0  0.12368486041E+02 -0.91856074665E+01  0.40574234819E+02  0.43400729978E+02  0.00000000000E+00 0.  1.
         11    1    3    3    0    0 -0.10392968983E+02  0.80985855731E+01 -0.17736934064E+02  0.22095242086E+02  0.51100000000E-03 0. -1.
        -11    1    3    3    0    0 -0.19186346374E+01 -0.41655103830E+01 -0.38387789623E+01  0.59807072998E+01  0.51100000000E-03 0.  1.
        -12    1    3    3    0    0 -0.56882420691E-01  0.52525322764E+01 -0.18998521793E+02  0.19711320636E+02  0.00000000000E+00 0.  1.
</event>
<event>
 7    1  0.2740409E-010  0.4778727E+02  0.7816164E-02  0.1312668E+00
        -11   -1    0    0    0    0  0.00000000000E+00  0.00000000000E+00  0.45593999997E+02  0.45594000000E+02  0.51100000000E-03 0. -1.
         11   -1    0    0    0    0 -0.00000000000E+00 -0.00000000000E+00 -0.45593999997E+02  0.45594000000E+02  0.51100000000E-03 0.  1.
    9900012    2    1    2    0    0 -0.18583416537E+02 -0.37205637180E+02  0.12410496305E+02  0.47787271588E+02  0.20000002476E+02 0.  0.
        -12    1    1    2    0    0  0.18583416537E+02  0.37205637180E+02 -0.12410496305E+02  0.43400728412E+02  0.00000000000E+00 0.  1.
         11    1    3    3    0    0 -0.18529670382E+01 -0.81703120473E+01 -0.39117806822E+00  0.83869247246E+01  0.51100000000E-03 0. -1.
        -11    1    3    3    0    0 -0.67490492824E+00 -0.44669258079E+01 -0.36020843875E+01  0.57778832656E+01  0.51100000000E-03 0.  1.
        -12    1    3    3    0    0 -0.16055544571E+02 -0.24568399325E+02  0.16403758761E+02  0.33622463597E+02  0.00000000000E+00 0.  1.
</event>
<event>
 7    1  0.2740409E-010  0.4778727E+02  0.7816164E-02  0.1312668E+00
        -11   -1    0    0    0    0  0.00000000000E+00  0.00000000000E+00  0.45593999997E+02  0.45594000000E+02  0.51100000000E-03 0.  1.
         11   -1    0    0    0    0 -0.00000000000E+00 -0.00000000000E+00 -0.45593999997E+02  0.45594000000E+02  0.51100000000E-03 0. -1.
    9900012    2    1    2    0    0  0.84016088418E+01 -0.37410262178E+02  0.20334907167E+02  0.47787271932E+02  0.20000004046E+02 0.  0.
        -12    1    1    2    0    0 -0.84016088418E+01  0.37410262178E+02 -0.20334907167E+02  0.43400728068E+02  0.00000000000E+00 0.  1.
         11    1    3    3    0    0  0.84348701661E+01 -0.31543340310E+02  0.22840453390E+02  0.39847404733E+02  0.51100000000E-03 0. -1.
        -11    1    3    3    0    0 -0.41055091059E-03 -0.40657835286E+01 -0.39213269638E+01  0.56486636728E+01  0.51100000000E-03 0.  1.
        -12    1    3    3    0    0 -0.32850773407E-01 -0.18011383391E+01  0.14157807414E+01  0.22912035260E+01  0.00000000000E+00 0.  1.
</event>
<event>
 7    1  0.2740409E-010  0.4778727E+02  0.7816164E-02  0.1312668E+00
        -11   -1    0    0    0    0  0.00000000000E+00  0.00000000000E+00  0.45593999997E+02  0.45594000000E+02  0.51100000000E-03 0.  1.
         11   -1    0    0    0    0 -0.00000000000E+00 -0.00000000000E+00 -0.45593999997E+02  0.45594000000E+02  0.51100000000E-03 0. -1.
    9900012    2    1    2    0    0  0.29578143814E+02 -0.25213553841E+02 -0.19314082406E+02  0.47787266504E+02  0.19999979300E+02 0.  0.
        -12    1    1    2    0    0 -0.29578143814E+02  0.25213553841E+02  0.19314082406E+02  0.43400733496E+02  0.00000000000E+00 0.  1.
         11    1    3    3    0    0  0.37946644263E+01 -0.35831204327E+01  0.26675600950E+01  0.58612376905E+01  0.51100000000E-03 0.  1.
        -11    1    3    3    0    0  0.24468434864E+02 -0.21408098752E+02 -0.16839869447E+02  0.36614098379E+02  0.51100000000E-03 0. -1.
         12    1    3    3    0    0  0.13150445233E+01 -0.22233465625E+00 -0.51417730547E+01  0.53119304347E+01  0.00000000000E+00 0. -1.
</event>
<event>
 7    1  0.2740409E-010  0.4778727E+02  0.7816164E-02  0.1312668E+00
        -11   -1    0    0    0    0  0.00000000000E+00  0.00000000000E+00  0.45593999997E+02  0.45594000000E+02  0.51100000000E-03 0.  1.
         11   -1    0    0    0    0 -0.00000000000E+00 -0.00000000000E+00 -0.45593999997E+02  0.45594000000E+02  0.51100000000E-03 0. -1.
    9900012    2    1    2    0    0  0.37583195049E+02  0.16572467117E+02 -0.14017136701E+02  0.47787270309E+02  0.19999996648E+02 0.  0.
        -12    1    1    2    0    0 -0.37583195049E+02 -0.16572467117E+02  0.14017136701E+02  0.43400729691E+02  0.00000000000E+00 0.  1.
         11    1    3    3    0    0  0.32475160941E+02  0.18277600368E+02 -0.16253617556E+02  0.40655711004E+02  0.51100000000E-03 0. -1.
        -11    1    3    3    0    0  0.29092778638E+01 -0.86151499405E+00  0.33557569371E+01  0.45240701427E+01  0.51100000000E-03 0.  1.
        -12    1    3    3    0    0  0.21987562438E+01 -0.84361825706E+00 -0.11192760827E+01  0.26074891625E+01  0.00000000000E+00 0.  1.
</event>
<event>
 7    1  0.2740409E-010  0.4778727E+02  0.7816164E-02  0.1312668E+00
        -11   -1    0    0    0    0  0.00000000000E+00  0.00000000000E+00  0.45593999997E+02  0.45594000000E+02  0.51100000000E-03 0.  1.
         11   -1    0    0    0    0 -0.00000000000E+00 -0.00000000000E+00 -0.45593999997E+02  0.45594000000E+02  0.51100000000E-03 0. -1.
    9900012    2    1    2    0    0  0.13536730862E+02  0.30809823583E+02 -0.27406842441E+02  0.47787270464E+02  0.19999997354E+02 0.  0.
        -12    1    1    2    0    0 -0.13536730862E+02 -0.30809823583E+02  0.27406842441E+02  0.43400729536E+02  0.00000000000E+00 0.  1.
         11    1    3    3    0    0  0.69550757401E+01  0.77679199264E+01 -0.20014299760E+02  0.22567362577E+02  0.51100000000E-03 0. -1.
        -11    1    3    3    0    0  0.12385147221E+01  0.58943801358E+01 -0.74720728372E+00  0.60692631256E+01  0.51100000000E-03 0.  1.
         12    1    3    3    0    0  0.53431404002E+01  0.17147523521E+02 -0.66453353974E+01  0.19150644761E+02  0.00000000000E+00 0. -1.
</event>
<event>
 7    1  0.2740409E-010  0.4778728E+02  0.7816164E-02  0.1312668E+00
        -11   -1    0    0    0    0  0.00000000000E+00  0.00000000000E+00  0.45593999997E+02  0.45594000000E+02  0.51100000000E-03 0. -1.
         11   -1    0    0    0    0 -0.00000000000E+00 -0.00000000000E+00 -0.45593999997E+02  0.45594000000E+02  0.51100000000E-03 0.  1.
    9900012    2    1    2    0    0  0.71365260800E+01  0.42161089626E+02 -0.74253042343E+01  0.47787278509E+02  0.20000034033E+02 0.  0.
        -12    1    1    2    0    0 -0.71365260800E+01 -0.42161089626E+02  0.74253042343E+01  0.43400721491E+02  0.00000000000E+00 0.  1.
         11    1    3    3    0    0  0.33903220856E+00  0.58875596880E+01 -0.35021044984E+01  0.68587927580E+01  0.51100000000E-03 0. -1.
        -11    1    3    3    0    0 -0.36954053261E+01  0.25032184626E+02 -0.13710791373E+01  0.25340602715E+02  0.51100000000E-03 0.  1.
        -12    1    3    3    0    0  0.10492899198E+02  0.11241345312E+02 -0.25521205986E+01  0.15587883036E+02  0.00000000000E+00 0.  1.
</event>
<event>
 7    1  0.2740409E-010  0.4778729E+02  0.7816164E-02  0.1312668E+00
        -11   -1    0    0    0    0  0.00000000000E+00  0.00000000000E+00  0.45593999997E+02  0.45594000000E+02  0.51100000000E-03 0.  1.
         11   -1    0    0    0    0 -0.00000000000E+00 -0.00000000000E+00 -0.45593999997E+02  0.45594000000E+02  0.51100000000E-03 0. -1.
    9900012    2    1    2    0    0 -0.65559106075E+00 -0.29038941067E+02 -0.32247969473E+02  0.47787292252E+02  0.20000096692E+02 0.  0.
        -12    1    1    2    0    0  0.65559106075E+00  0.29038941067E+02  0.32247969473E+02  0.43400707748E+02  0.00000000000E+00 0.  1.
         11    1    3    3    0    0  0.65399458006E+01 -0.19575255891E+02 -0.17462187493E+02  0.27034968589E+02  0.51100000000E-03 0. -1.
        -11    1    3    3    0    0 -0.59044467505E+01 -0.45974500033E+01 -0.13687127815E+02  0.15599246970E+02  0.51100000000E-03 0.  1.
        -12    1    3    3    0    0 -0.12910901109E+01 -0.48662351725E+01 -0.10986541649E+01  0.51530766928E+01  0.00000000000E+00 0.  1.
</event>
<event>
 7    1  0.2740409E-010  0.4778727E+02  0.7816164E-02  0.1312668E+00
        -11   -1    0    0    0    0  0.00000000000E+00  0.00000000000E+00  0.45593999997E+02  0.45594000000E+02  0.51100000000E-03 0. -1.
         11   -1    0    0    0    0 -0.00000000000E+00 -0.00000000000E+00 -0.45593999997E+02  0.45594000000E+02  0.51100000000E-03 0.  1.
    9900012    2    1    2    0    0 -0.37829160164E+02  0.19183717227E+02 -0.91958076210E+01  0.47787271398E+02  0.20000001613E+02 0.  0.
        -12    1    1    2    0    0  0.37829160164E+02 -0.19183717227E+02  0.91958076210E+01  0.43400728602E+02  0.00000000000E+00 0.  1.
         11    1    3    3    0    0 -0.18923960004E+02  0.18605636189E+02 -0.40543746141E+01  0.26846301682E+02  0.51100000000E-03 0. -1.
        -11    1    3    3    0    0 -0.11882878988E+01 -0.14627507221E+01 -0.21477914650E+01  0.28573897606E+01  0.51100000000E-03 0.  1.
         12    1    3    3    0    0 -0.17716912261E+02  0.20408317605E+01 -0.29936415418E+01  0.18083579956E+02  0.00000000000E+00 0. -1.
</event>
<event>
 7    1  0.2740409E-010  0.4778727E+02  0.7816164E-02  0.1312668E+00
        -11   -1    0    0    0    0  0.00000000000E+00  0.00000000000E+00  0.45593999997E+02  0.45594000000E+02  0.51100000000E-03 0. -1.
         11   -1    0    0    0    0 -0.00000000000E+00 -0.00000000000E+00 -0.45593999997E+02  0.45594000000E+02  0.51100000000E-03 0.  1.
    9900012    2    1    2    0    0 -0.29325934366E+02  0.26487510499E+02  0.17945053185E+02  0.47787267602E+02  0.19999984304E+02 0.  0.
        -12    1    1    2    0    0  0.29325934366E+02 -0.26487510499E+02 -0.17945053185E+02  0.43400732398E+02  0.00000000000E+00 0.  1.
         11    1    3    3    0    0  0.16885028056E+01  0.57747541280E+01  0.90686349797E+00  0.60845072626E+01  0.51100000000E-03 0. -1.
        -11    1    3    3    0    0 -0.18556643639E+02  0.79157756215E+01  0.82177489862E+01  0.21783937328E+02  0.51100000000E-03 0.  1.
         12    1    3    3    0    0 -0.12457793533E+02  0.12796980750E+02  0.88204407007E+01  0.19918823011E+02  0.00000000000E+00 0. -1.
</event>
<event>
 7    1  0.2740409E-010  0.4778727E+02  0.7816164E-02  0.1312668E+00
        -11   -1    0    0    0    0  0.00000000000E+00  0.00000000000E+00  0.45593999997E+02  0.45594000000E+02  0.51100000000E-03 0. -1.
         11   -1    0    0    0    0 -0.00000000000E+00 -0.00000000000E+00 -0.45593999997E+02  0.45594000000E+02  0.51100000000E-03 0.  1.
    9900012    2    1    2    0    0  0.27428067115E+01  0.40967834372E+02 -0.14061884342E+02  0.47787273819E+02  0.20000012650E+02 0.  0.
        -12    1    1    2    0    0 -0.27428067115E+01 -0.40967834372E+02  0.14061884342E+02  0.43400726181E+02  0.00000000000E+00 0.  1.
         11    1    3    3    0    0 -0.17651552561E+00  0.18555081811E+02 -0.92020310095E+01  0.20712305369E+02  0.51100000000E-03 0. -1.
        -11    1    3    3    0    0 -0.24429553045E+01  0.50502369430E-01  0.19117833042E+01  0.31024984726E+01  0.51100000000E-03 0.  1.
        -12    1    3    3    0    0  0.53622775416E+01  0.22362250192E+02 -0.67716366367E+01  0.23972469977E+02  0.00000000000E+00 0.  1.
</event>
<event>
 7    1  0.2740409E-010  0.4778729E+02  0.7816164E-02  0.1312668E+00
        -11   -1    0    0    0    0  0.00000000000E+00  0.00000000000E+00  0.45593999997E+02  0.45594000000E+02  0.51100000000E-03 0.  1.
         11   -1    0    0    0    0 -0.00000000000E+00 -0.00000000000E+00 -0.45593999997E+02  0.45594000000E+02  0.51100000000E-03 0. -1.
    9900012    2    1    2    0    0 -0.96008237262E+01  0.71589495824E+01 -0.41715643241E+02  0.47787294172E+02  0.20000105447E+02 0.  0.
        -12    1    1    2    0    0  0.96008237262E+01 -0.71589495824E+01  0.41715643241E+02  0.43400705828E+02  0.00000000000E+00 0.  1.
         11    1    3    3    0    0  0.25827530134E+01  0.26589127730E+01 -0.20149846750E+02  0.20487966092E+02  0.51100000000E-03 0. -1.
        -11    1    3    3    0    0 -0.11539072723E+01  0.37632146865E+01 -0.11798575818E+01  0.41091788650E+01  0.51100000000E-03 0.  1.
         12    1    3    3    0    0 -0.11029669467E+02  0.73682212278E+00 -0.20385938909E+02  0.23190149215E+02  0.00000000000E+00 0. -1.
</event>
<event>
 7    1  0.2740409E-010  0.4778727E+02  0.7816164E-02  0.1312668E+00
        -11   -1    0    0    0    0  0.00000000000E+00  0.00000000000E+00  0.45593999997E+02  0.45594000000E+02  0.51100000000E-03 0. -1.
         11   -1    0    0    0    0 -0.00000000000E+00 -0.00000000000E+00 -0.45593999997E+02  0.45594000000E+02  0.51100000000E-03 0.  1.
    9900012    2    1    2    0    0  0.42913226163E+02 -0.62982087682E+01 -0.15526875241E+01  0.47787271297E+02  0.20000001154E+02 0.  0.
        -12    1    1    2    0    0 -0.42913226163E+02  0.62982087682E+01  0.15526875241E+01  0.43400728703E+02  0.00000000000E+00 0.  1.
         11    1    3    3    0    0  0.34831273312E+02 -0.38506941986E+01  0.28330837309E+01  0.35157812930E+02  0.51100000000E-03 0. -1.
        -11    1    3    3    0    0 -0.75053728771E+00 -0.11908677420E+01  0.14086660041E+01  0.19914347519E+01  0.51100000000E-03 0.  1.
         12    1    3    3    0    0  0.88324901387E+01 -0.12566468276E+01 -0.57944372591E+01  0.10638023616E+02  0.00000000000E+00 0. -1.
</event>
<event>
 7    1  0.2740409E-010  0.4778728E+02  0.7816164E-02  0.1312668E+00
        -11   -1    0    0    0    0  0.00000000000E+00  0.00000000000E+00  0.45593999997E+02  0.45594000000E+02  0.51100000000E-03 0. -1.
         11   -1    0    0    0    0 -0.00000000000E+00 -0.00000000000E+00 -0.45593999997E+02  0.45594000000E+02  0.51100000000E-03 0.  1.
    9900012    2    1    2    0    0  0.23456035714E+02  0.36132483310E+02 -0.52801848912E+01  0.47787282102E+02  0.20000050416E+02 0.  0.
        -12    1    1    2    0    0 -0.23456035714E+02 -0.36132483310E+02  0.52801848912E+01  0.43400717898E+02  0.00000000000E+00 0.  1.
         11    1    3    3    0    0  0.43730064036E+01  0.87252535853E+01  0.47172962609E+01  0.10840023958E+02  0.51100000000E-03 0. -1.
        -11    1    3    3    0    0  0.11780018759E+02  0.73662505602E+01 -0.64747868481E+01  0.15328188225E+02  0.51100000000E-03 0.  1.
        -12    1    3    3    0    0  0.73030105510E+01  0.20040979165E+02 -0.35226943040E+01  0.21619069919E+02  0.00000000000E+00 0.  1.
</event>
<event>
 7    1  0.2740409E-010  0.4778727E+02  0.7816164E-02  0.1312668E+00
        -11   -1    0    0    0    0  0.00000000000E+00  0.00000000000E+00  0.45593999997E+02  0.45594000000E+02  0.51100000000E-03 0. -1.
         11   -1    0    0    0    0 -0.00000000000E+00 -0.00000000000E+00 -0.45593999997E+02  0.45594000000E+02  0.51100000000E-03 0.  1.
    9900012    2    1    2    0    0 -0.16384514008E+02  0.36996616925E+02  0.15697807240E+02  0.47787272872E+02  0.20000008330E+02 0.  0.
        -12    1    1    2    0    0  0.16384514008E+02 -0.36996616925E+02 -0.15697807240E+02  0.43400727128E+02  0.00000000000E+00 0.  1.
         11    1    3    3    0    0 -0.58527853134E+01  0.21385010943E+02  0.15272586515E+02  0.26922586949E+02  0.51100000000E-03 0. -1.
        -11    1    3    3    0    0 -0.71388736058E+01  0.79967373293E+01 -0.39813983076E+01  0.11435158810E+02  0.51100000000E-03 0.  1.
        -12    1    3    3    0    0 -0.33928550884E+01  0.76148686529E+01  0.44066190328E+01  0.94295271118E+01  0.00000000000E+00 0.  1.
</event>
<event>
 7    1  0.2740409E-010  0.4778728E+02  0.7816164E-02  0.1312668E+00
        -11   -1    0    0    0    0  0.00000000000E+00  0.00000000000E+00  0.45593999997E+02  0.45594000000E+02  0.51100000000E-03 0.  1.
         11   -1    0    0    0    0 -0.00000000000E+00 -0.00000000000E+00 -0.45593999997E+02  0.45594000000E+02  0.51100000000E-03 0. -1.
    9900012    2    1    2    0    0  0.20667687897E+02 -0.44184151401E+00 -0.38161163092E+02  0.47787275174E+02  0.20000018827E+02 0.  0.
        -12    1    1    2    0    0 -0.20667687897E+02  0.44184151401E+00  0.38161163092E+02  0.43400724826E+02  0.00000000000E+00 0.  1.
         11    1    3    3    0    0  0.56379253936E+01 -0.47072175480E+01 -0.47755213389E+01  0.87606908464E+01  0.51100000000E-03 0.  1.
        -11    1    3    3    0    0  0.16468337295E+02  0.11311693074E+01 -0.29700634959E+02  0.33979602624E+02  0.51100000000E-03 0. -1.
        -12    1    3    3    0    0 -0.14385747922E+01  0.31342067265E+01 -0.36850067939E+01  0.50469817028E+01  0.00000000000E+00 0.  1.
</event>
<event>
 7    1  0.2740409E-010  0.4778727E+02  0.7816164E-02  0.1312668E+00
        -11   -1    0    0    0    0  0.00000000000E+00  0.00000000000E+00  0.45593999997E+02  0.45594000000E+02  0.51100000000E-03 0.  1.
         11   -1    0    0    0    0 -0.00000000000E+00 -0.00000000000E+00 -0.45593999997E+02  0.45594000000E+02  0.51100000000E-03 0. -1.
    9900012    2    1    2    0    0 -0.25634682995E+02  0.10637185264E+02 -0.33366696175E+02  0.47787273091E+02  0.20000009330E+02 0.  0.
        -12    1    1    2    0    0  0.25634682995E+02 -0.10637185264E+02  0.33366696175E+02  0.43400726909E+02  0.00000000000E+00 0.  1.
         11    1    3    3    0    0 -0.67638312651E+01  0.76559932787E+01 -0.29461832333E+01  0.10632198379E+02  0.51100000000E-03 0. -1.
        -11    1    3    3    0    0  0.27455895016E+00  0.19743354462E+01 -0.44366726690E+01  0.48638922381E+01  0.51100000000E-03 0.  1.
         12    1    3    3    0    0 -0.19145410680E+02  0.10068565391E+01 -0.25983840273E+02  0.32291182474E+02  0.00000000000E+00 0. -1.
</event>
<event>
 7    1  0.2740409E-010  0.4778727E+02  0.7816164E-02  0.1312668E+00
        -11   -1    0    0    0    0  0.00000000000E+00  0.00000000000E+00  0.45593999997E+02  0.45594000000E+02  0.51100000000E-03 0. -1.
         11   -1    0    0    0    0 -0.00000000000E+00 -0.00000000000E+00 -0.45593999997E+02  0.45594000000E+02  0.51100000000E-03 0.  1.
    9900012    2    1    2    0    0  0.26912927311E+02 -0.97804167985E+01  0.32613817030E+02  0.47787271084E+02  0.20000000180E+02 0.  0.
        -12    1    1    2    0    0 -0.26912927311E+02  0.97804167985E+01 -0.32613817030E+02  0.43400728916E+02  0.00000000000E+00 0.  1.
         11    1    3    3    0    0  0.16799699229E+01 -0.79808603218E+01  0.49343656170E+01  0.95322817164E+01  0.51100000000E-03 0. -1.
        -11    1    3    3    0    0  0.24394372188E+02  0.15765868012E-01  0.25262732953E+02  0.35118247671E+02  0.51100000000E-03 0.  1.
        -12    1    3    3    0    0  0.83858520046E+00 -0.18153223447E+01  0.24167184600E+01  0.31367416962E+01  0.00000000000E+00 0.  1.
</event>
<event>
 7    1  0.2740409E-010  0.4778728E+02  0.7816164E-02  0.1312668E+00
        -11   -1    0    0    0    0  0.00000000000E+00  0.00000000000E+00  0.45593999997E+02  0.45594000000E+02  0.51100000000E-03 0.  1.
         11   -1    0    0    0    0 -0.00000000000E+00 -0.00000000000E+00 -0.45593999997E+02  0.45594000000E+02  0.51100000000E-03 0. -1.
    9900012    2    1    2    0    0  0.37156035378E+02  0.10635089993E+02  0.19747049544E+02  0.47787284916E+02  0.20000063245E+02 0.  0.
        -12    1    1    2    0    0 -0.37156035378E+02 -0.10635089993E+02 -0.19747049544E+02  0.43400715084E+02  0.00000000000E+00 0.  1.
         11    1    3    3    0    0  0.11343750011E+01  0.36507920238E+01 -0.16651225541E+01  0.41698588016E+01  0.51100000000E-03 0.  1.
        -11    1    3    3    0    0  0.35963067178E+02  0.70199056831E+01  0.22189656128E+02  0.42836924679E+02  0.51100000000E-03 0. -1.
        -12    1    3    3    0    0  0.58593198750E-01 -0.35607714311E-01 -0.77748403054E+00  0.78050143498E+00  0.00000000000E+00 0.  1.
</event>
<event>
 7    1  0.2740409E-010  0.4778727E+02  0.7816164E-02  0.1312668E+00
        -11   -1    0    0    0    0  0.00000000000E+00  0.00000000000E+00  0.45593999997E+02  0.45594000000E+02  0.51100000000E-03 0.  1.
         11   -1    0    0    0    0 -0.00000000000E+00 -0.00000000000E+00 -0.45593999997E+02  0.45594000000E+02  0.51100000000E-03 0. -1.
    9900012    2    1    2    0    0  0.36558088840E+02 -0.18712448336E+02 -0.14034732026E+02  0.47787270912E+02  0.19999999397E+02 0.  0.
        -12    1    1    2    0    0 -0.36558088840E+02  0.18712448336E+02  0.14034732026E+02  0.43400729088E+02  0.00000000000E+00 0.  1.
         11    1    3    3    0    0  0.21463241353E+02 -0.14556391165E+01 -0.41360538510E+01  0.21906541405E+02  0.51100000000E-03 0. -1.
        -11    1    3    3    0    0  0.87409700252E+01 -0.11868650997E+02 -0.29501118030E+01  0.15032384820E+02  0.51100000000E-03 0.  1.
         12    1    3    3    0    0  0.63538774612E+01 -0.53881582224E+01 -0.69485663715E+01  0.10848344687E+02  0.00000000000E+00 0. -1.
</event>
<event>
 7    1  0.2740409E-010  0.4778727E+02  0.7816164E-02  0.1312668E+00
        -11   -1    0    0    0    0  0.00000000000E+00  0.00000000000E+00  0.45593999997E+02  0.45594000000E+02  0.51100000000E-03 0.  1.
         11   -1    0    0    0    0 -0.00000000000E+00 -0.00000000000E+00 -0.45593999997E+02  0.45594000000E+02  0.51100000000E-03 0. -1.
    9900012    2    1    2    0    0  0.38192525280E+02 -0.12668345967E+02  0.16262447221E+02  0.47787272283E+02  0.20000005646E+02 0.  0.
        -12    1    1    2    0    0 -0.38192525280E+02  0.12668345967E+02 -0.16262447221E+02  0.43400727717E+02  0.00000000000E+00 0.  1.
         11    1    3    3    0    0  0.30084276086E+02 -0.82716135837E+01  0.11074026917E+02  0.33107662728E+02  0.51100000000E-03 0. -1.
        -11    1    3    3    0    0  0.46394442781E+00 -0.22064122561E+01 -0.26735419086E+01  0.34973312788E+01  0.51100000000E-03 0.  1.
         12    1    3    3    0    0  0.76443047658E+01 -0.21903201267E+01  0.78619622124E+01  0.11182278276E+02  0.00000000000E+00 0. -1.
</event>
<event>
 7    1  0.2740409E-010  0.4778727E+02  0.7816164E-02  0.1312668E+00
        -11   -1    0    0    0    0  0.00000000000E+00  0.00000000000E+00  0.45593999997E+02  0.45594000000E+02  0.51100000000E-03 0.  1.
         11   -1    0    0    0    0 -0.00000000000E+00 -0.00000000000E+00 -0.45593999997E+02  0.45594000000E+02  0.51100000000E-03 0. -1.
    9900012    2    1    2    0    0  0.89771321847E+01  0.11400842361E+02 -0.40902999197E+02  0.47787268991E+02  0.19999990639E+02 0.  0.
        -12    1    1    2    0    0 -0.89771321847E+01 -0.11400842361E+02  0.40902999197E+02  0.43400731009E+02  0.00000000000E+00 0.  1.
         11    1    3    3    0    0  0.11066502656E+02  0.66621997838E+01 -0.14969119191E+02  0.19771871854E+02  0.51100000000E-03 0. -1.
        -11    1    3    3    0    0  0.25078709999E+01  0.57052998068E+00 -0.16656918485E+02  0.16854312655E+02  0.51100000000E-03 0.  1.
         12    1    3    3    0    0 -0.45972414711E+01  0.41681125964E+01 -0.92769615207E+01  0.11161084482E+02  0.00000000000E+00 0. -1.
</event>
<event>
 7    1  0.2740409E-010  0.4778727E+02  0.7816164E-02  0.1312668E+00
        -11   -1    0    0    0    0  0.00000000000E+00  0.00000000000E+00  0.45593999997E+02  0.45594000000E+02  0.51100000000E-03 0. -1.
         11   -1    0    0    0    0 -0.00000000000E+00 -0.00000000000E+00 -0.45593999997E+02  0.45594000000E+02  0.51100000000E-03 0.  1.
    9900012    2    1    2    0    0  0.15421473238E+02 -0.31685452298E+02  0.25334434799E+02  0.47787270619E+02  0.19999998062E+02 0.  0.
        -12    1    1    2    0    0 -0.15421473238E+02  0.31685452298E+02 -0.25334434799E+02  0.43400729381E+02  0.00000000000E+00 0.  1.
         11    1    3    3    0    0  0.81497767087E+01 -0.88069626297E+01  0.72796435973E+01  0.14034766201E+02  0.51100000000E-03 0. -1.
        -11    1    3    3    0    0  0.59689938428E+01 -0.19741697502E+02  0.63723828659E+01  0.21586356140E+02  0.51100000000E-03 0.  1.
        -12    1    3    3    0    0  0.13027026868E+01 -0.31367921664E+01  0.11682408336E+02  0.12166148278E+02  0.00000000000E+00 0.  1.
</event>
<event>
 7    1  0.2740409E-010  0.4778728E+02  0.7816164E-02  0.1312668E+00
        -11   -1    0    0    0    0  0.00000000000E+00  0.00000000000E+00  0.45593999997E+02  0.45594000000E+02  0.51100000000E-03 0. -1.
         11   -1    0    0    0    0 -0.00000000000E+00 -0.00000000000E+00 -0.45593999997E+02  0.45594000000E+02  0.51100000000E-03 0.  1.
    9900012    2    1    2    0    0  0.30694238812E+02  0.23392067382E+02  0.19856927663E+02  0.47787277784E+02  0.20000030729E+02 0.  0.
        -12    1    1    2    0    0 -0.30694238812E+02 -0.23392067382E+02 -0.19856927663E+02  0.43400722216E+02  0.00000000000E+00 0.  1.
         11    1    3    3    0    0  0.49557525282E+00 -0.17783574130E+01 -0.10455727474E+01  0.21216438322E+01  0.51100000000E-03 0. -1.
        -11    1    3    3    0    0  0.19124621824E+01  0.60461864441E+01  0.45661403478E+01  0.78143150725E+01  0.51100000000E-03 0.  1.
         12    1    3    3    0    0  0.28286201376E+02  0.19124238351E+02  0.16336360062E+02  0.37851318879E+02  0.00000000000E+00 0. -1.
</event>
<event>
 7    1  0.2740409E-010  0.4778728E+02  0.7816164E-02  0.1312668E+00
        -11   -1    0    0    0    0  0.00000000000E+00  0.00000000000E+00  0.45593999997E+02  0.45594000000E+02  0.51100000000E-03 0. -1.
         11   -1    0    0    0    0 -0.00000000000E+00 -0.00000000000E+00 -0.45593999997E+02  0.45594000000E+02  0.51100000000E-03 0.  1.
    9900012    2    1    2    0    0 -0.42160076393E+02 -0.96404202107E+01  0.36349387315E+01  0.47787279697E+02  0.20000039449E+02 0.  0.
        -12    1    1    2    0    0  0.42160076393E+02  0.96404202107E+01 -0.36349387315E+01  0.43400720303E+02  0.00000000000E+00 0.  1.
         11    1    3    3    0    0 -0.28199038190E+02 -0.96248524844E+01 -0.34150071409E+01  0.29991429012E+02  0.51100000000E-03 0. -1.
        -11    1    3    3    0    0 -0.41438230648E+01 -0.21072352709E+01 -0.12020016101E+01  0.48017203387E+01  0.51100000000E-03 0.  1.
         12    1    3    3    0    0 -0.98172151382E+01  0.20916675445E+01  0.82519474824E+01  0.12994130346E+02  0.00000000000E+00 0. -1.
</event>
<event>
 7    1  0.2740409E-010  0.4778729E+02  0.7816164E-02  0.1312668E+00
        -11   -1    0    0    0    0  0.00000000000E+00  0.00000000000E+00  0.45593999997E+02  0.45594000000E+02  0.51100000000E-03 0.  1.
         11   -1    0    0    0    0 -0.00000000000E+00 -0.00000000000E+00 -0.45593999997E+02  0.45594000000E+02  0.51100000000E-03 0. -1.
    9900012    2    1    2    0    0  0.14955796255E+02 -0.24862818725E+02 -0.32276709737E+02  0.47787290466E+02  0.20000088553E+02 0.  0.
        -12    1    1    2    0    0 -0.14955796255E+02  0.24862818725E+02  0.32276709737E+02  0.43400709534E+02  0.00000000000E+00 0.  1.
         11    1    3    3    0    0  0.25933823207E+01 -0.13811736708E+02 -0.18801150374E+02  0.23472813176E+02  0.51100000000E-03 0. -1.
        -11    1    3    3    0    0  0.13979897682E+02 -0.96191488882E+01 -0.86927809283E+01  0.19066462836E+02  0.51100000000E-03 0.  1.
        -12    1    3    3    0    0 -0.16174837478E+01 -0.14319331284E+01 -0.47827784350E+01  0.52480144547E+01  0.00000000000E+00 0.  1.
</event>
<event>
 7    1  0.2740409E-010  0.4778727E+02  0.7816164E-02  0.1312668E+00
        -11   -1    0    0    0    0  0.00000000000E+00  0.00000000000E+00  0.45593999997E+02  0.45594000000E+02  0.51100000000E-03 0.  1.
         11   -1    0    0    0    0 -0.00000000000E+00 -0.00000000000E+00 -0.45593999997E+02  0.45594000000E+02  0.51100000000E-03 0. -1.
    9900012    2    1    2    0    0 -0.12207528949E+02  0.37868383514E+02 -0.17337394902E+02  0.47787268497E+02  0.19999988384E+02 0.  0.
        -12    1    1    2    0    0  0.12207528949E+02 -0.37868383514E+02  0.17337394902E+02  0.43400731503E+02  0.00000000000E+00 0.  1.
         11    1    3    3    0    0  0.55389919784E+00  0.21070343112E+02 -0.76890986548E+01  0.22436318806E+02  0.51100000000E-03 0. -1.
        -11    1    3    3    0    0 -0.65914683674E+01  0.49967769401E+01 -0.86938843795E+01  0.11999952537E+02  0.51100000000E-03 0.  1.
        -12    1    3    3    0    0 -0.61699597792E+01  0.11801263462E+02 -0.95441186795E+00  0.13350997153E+02  0.00000000000E+00 0.  1.
</event>
<event>
 7    1  0.2740409E-010  0.4778727E+02  0.7816164E-02  0.1312668E+00
        -11   -1    0    0    0    0  0.00000000000E+00  0.00000000000E+00  0.45593999997E+02  0.45594000000E+02  0.51100000000E-03 0.  1.
         11   -1    0    0    0    0 -0.00000000000E+00 -0.00000000000E+00 -0.45593999997E+02  0.45594000000E+02  0.51100000000E-03 0. -1.
    9900012    2    1    2    0    0  0.27478597236E+02  0.81250803530E+01 -0.32596516668E+02  0.47787272636E+02  0.20000007257E+02 0.  0.
        -12    1    1    2    0    0 -0.27478597236E+02 -0.81250803530E+01  0.32596516668E+02  0.43400727364E+02  0.00000000000E+00 0.  1.
         11    1    3    3    0    0  0.16104307551E+02  0.45109187126E+01 -0.70231198038E+01  0.18138944880E+02  0.51100000000E-03 0. -1.
        -11    1    3    3    0    0  0.79565696946E+01  0.63112312334E+01 -0.21040544163E+02  0.23363286154E+02  0.51100000000E-03 0.  1.
         12    1    3    3    0    0  0.34177199903E+01 -0.26970695930E+01 -0.45328527017E+01  0.62850416019E+01  0.00000000000E+00 0. -1.
</event>
<event>
 7    1  0.2740409E-010  0.4778728E+02  0.7816164E-02  0.1312668E+00
        -11   -1    0    0    0    0  0.00000000000E+00  0.00000000000E+00  0.45593999997E+02  0.45594000000E+02  0.51100000000E-03 0. -1.
         11   -1    0    0    0    0 -0.00000000000E+00 -0.00000000000E+00 -0.45593999997E+02  0.45594000000E+02  0.51100000000E-03 0.  1.
    9900012    2    1    2    0    0 -0.14279455240E+02  0.40132433712E+02 -0.83131114358E+01  0.47787275360E+02  0.20000019675E+02 0.  0.
        -12    1    1    2    0    0  0.14279455240E+02 -0.40132433712E+02  0.83131114358E+01  0.43400724640E+02  0.00000000000E+00 0.  1.
         11    1    3    3    0    0 -0.14804978241E+02  0.21243251266E+02 -0.79313150930E+01  0.27080784044E+02  0.51100000000E-03 0. -1.
        -11    1    3    3    0    0  0.40432394268E+01  0.10747200135E+02 -0.20977005749E+01  0.11672636539E+02  0.51100000000E-03 0.  1.
        -12    1    3    3    0    0 -0.35177164260E+01  0.81419823107E+01  0.17159042321E+01  0.90338547772E+01  0.00000000000E+00 0.  1.
</event>
<event>
 7    1  0.2740409E-010  0.4778727E+02  0.7816164E-02  0.1312668E+00
        -11   -1    0    0    0    0  0.00000000000E+00  0.00000000000E+00  0.45593999997E+02  0.45594000000E+02  0.51100000000E-03 0.  1.
         11   -1    0    0    0    0 -0.00000000000E+00 -0.00000000000E+00 -0.45593999997E+02  0.45594000000E+02  0.51100000000E-03 0. -1.
    9900012    2    1    2    0    0  0.97637057658E+01 -0.40568107488E+02 -0.11938259017E+02  0.47787270470E+02  0.19999997379E+02 0.  0.
        -12    1    1    2    0    0 -0.97637057658E+01  0.40568107488E+02  0.11938259017E+02  0.43400729530E+02  0.00000000000E+00 0.  1.
         11    1    3    3    0    0  0.82697272731E+00  0.12282131803E+01 -0.20039757624E+01  0.24916481745E+01  0.51100000000E-03 0. -1.
        -11    1    3    3    0    0  0.31838862875E+00  0.33799702031E+00 -0.13672300200E+01  0.14439291858E+01  0.51100000000E-03 0.  1.
         12    1    3    3    0    0  0.86183444097E+01 -0.42134317688E+02 -0.85670532349E+01  0.43851693109E+02  0.00000000000E+00 0. -1.
</event>
<event>
 7    1  0.2740409E-010  0.4778727E+02  0.7816164E-02  0.1312668E+00
        -11   -1    0    0    0    0  0.00000000000E+00  0.00000000000E+00  0.45593999997E+02  0.45594000000E+02  0.51100000000E-03 0.  1.
         11   -1    0    0    0    0 -0.00000000000E+00 -0.00000000000E+00 -0.45593999997E+02  0.45594000000E+02  0.51100000000E-03 0. -1.
    9900012    2    1    2    0    0  0.70796435454E+01  0.35616025841E+02 -0.23769737082E+02  0.47787273619E+02  0.20000011740E+02 0.  0.
        -12    1    1    2    0    0 -0.70796435454E+01 -0.35616025841E+02  0.23769737082E+02  0.43400726381E+02  0.00000000000E+00 0.  1.
         11    1    3    3    0    0  0.68592923721E+00  0.13809069156E+02 -0.17493764516E+02  0.22297817989E+02  0.51100000000E-03 0. -1.
        -11    1    3    3    0    0  0.77108631133E+01  0.21979366277E+02 -0.54387132798E+01  0.23919229801E+02  0.51100000000E-03 0.  1.
        -12    1    3    3    0    0 -0.13171488051E+01 -0.17240959167E+00 -0.83725928602E+00  0.15702258290E+01  0.00000000000E+00 0.  1.
</event>
<event>
 7    1  0.2740409E-010  0.4778727E+02  0.7816164E-02  0.1312668E+00
        -11   -1    0    0    0    0  0.00000000000E+00  0.00000000000E+00  0.45593999997E+02  0.45594000000E+02  0.51100000000E-03 0. -1.
         11   -1    0    0    0    0 -0.00000000000E+00 -0.00000000000E+00 -0.45593999997E+02  0.45594000000E+02  0.51100000000E-03 0.  1.
    9900012    2    1    2    0    0 -0.12431605751E+02 -0.41350232790E+02  0.43859792678E+01  0.47787269736E+02  0.19999994035E+02 0.  0.
        -12    1    1    2    0    0  0.12431605751E+02  0.41350232790E+02 -0.43859792678E+01  0.43400730264E+02  0.00000000000E+00 0.  1.
         11    1    3    3    0    0 -0.83507273063E+01 -0.11791030078E+02  0.84438313903E+01  0.16735032885E+02  0.51100000000E-03 0. -1.
        -11    1    3    3    0    0 -0.10454185163E+01 -0.20165361635E+02  0.45497311239E+00  0.20197566946E+02  0.51100000000E-03 0.  1.
         12    1    3    3    0    0 -0.30354599283E+01 -0.93938410766E+01 -0.45128252349E+01  0.10854669905E+02  0.00000000000E+00 0. -1.
</event>
<event>
 7    1  0.2740409E-010  0.4778728E+02  0.7816164E-02  0.1312668E+00
        -11   -1    0    0    0    0  0.00000000000E+00  0.00000000000E+00  0.45593999997E+02  0.45594000000E+02  0.51100000000E-03 0.  1.
         11   -1    0    0    0    0 -0.00000000000E+00 -0.00000000000E+00 -0.45593999997E+02  0.45594000000E+02  0.51100000000E-03 0. -1.
    9900012    2    1    2    0    0  0.16172239234E+02  0.36745508567E+01 -0.40107093819E+02  0.47787278573E+02  0.20000034324E+02 0.  0.
        -12    1    1    2    0    0 -0.16172239234E+02 -0.36745508567E+01  0.40107093819E+02  0.43400721427E+02  0.00000000000E+00 0.  1.
         11    1    3    3    0    0  0.10694860927E+02  0.51728633799E+01 -0.15016822527E+02  0.19147937875E+02  0.51100000000E-03 0. -1.
        -11    1    3    3    0    0 -0.14926701751E+01 -0.50091622083E+01 -0.56804327761E+01  0.77192672622E+01  0.51100000000E-03 0.  1.
         12    1    3    3    0    0  0.69700484818E+01  0.35108496851E+01 -0.19409838515E+02  0.20920073435E+02  0.00000000000E+00 0. -1.
</event>
<event>
 7    1  0.2740409E-010  0.4778727E+02  0.7816164E-02  0.1312668E+00
        -11   -1    0    0    0    0  0.00000000000E+00  0.00000000000E+00  0.45593999997E+02  0.45594000000E+02  0.51100000000E-03 0.  1.
         11   -1    0    0    0    0 -0.00000000000E+00 -0.00000000000E+00 -0.45593999997E+02  0.45594000000E+02  0.51100000000E-03 0. -1.
    9900012    2    1    2    0    0  0.25457258659E+02  0.20824730026E+02 -0.28317521660E+02  0.47787269222E+02  0.19999991691E+02 0.  0.
        -12    1    1    2    0    0 -0.25457258659E+02 -0.20824730026E+02  0.28317521660E+02  0.43400730778E+02  0.00000000000E+00 0.  1.
         11    1    3    3    0    0  0.68741504753E+01 -0.11410374382E+01 -0.11455425980E+02  0.13408306971E+02  0.51100000000E-03 0. -1.
        -11    1    3    3    0    0 -0.30589453035E+00 -0.51335553329E+00 -0.36356314619E+00  0.69948823409E+00  0.51100000000E-03 0.  1.
         12    1    3    3    0    0  0.18889002714E+02  0.22479122998E+02 -0.16498532534E+02  0.33679474017E+02  0.00000000000E+00 0. -1.
</event>
<event>
 7    1  0.2740409E-010  0.4778727E+02  0.7816164E-02  0.1312668E+00
        -11   -1    0    0    0    0  0.00000000000E+00  0.00000000000E+00  0.45593999997E+02  0.45594000000E+02  0.51100000000E-03 0.  1.
         11   -1    0    0    0    0 -0.00000000000E+00 -0.00000000000E+00 -0.45593999997E+02  0.45594000000E+02  0.51100000000E-03 0. -1.
    9900012    2    1    2    0    0 -0.79126262038E+01  0.52144349942E+01 -0.42353551829E+02  0.47787270303E+02  0.19999996618E+02 0.  0.
        -12    1    1    2    0    0  0.79126262038E+01 -0.52144349942E+01  0.42353551829E+02  0.43400729697E+02  0.00000000000E+00 0.  1.
         11    1    3    3    0    0  0.22546717452E+01 -0.32238141155E+01 -0.22726241047E+02  0.23064226727E+02  0.51100000000E-03 0. -1.
        -11    1    3    3    0    0  0.37910206923E+00  0.13061616440E+01 -0.38801787102E-01  0.13606184104E+01  0.51100000000E-03 0.  1.
         12    1    3    3    0    0 -0.10546400018E+02  0.71320874657E+01 -0.19588508995E+02  0.23362425165E+02  0.00000000000E+00 0. -1.
</event>
<event>
 7    1  0.2740409E-010  0.4778727E+02  0.7816164E-02  0.1312668E+00
        -11   -1    0    0    0    0  0.00000000000E+00  0.00000000000E+00  0.45593999997E+02  0.45594000000E+02  0.51100000000E-03 0.  1.
         11   -1    0    0    0    0 -0.00000000000E+00 -0.00000000000E+00 -0.45593999997E+02  0.45594000000E+02  0.51100000000E-03 0. -1.
    9900012    2    1    2    0    0 -0.19611039262E+02  0.35653397552E+02 -0.15095226211E+02  0.47787268759E+02  0.19999989579E+02 0.  0.
        -12    1    1    2    0    0  0.19611039262E+02 -0.35653397552E+02  0.15095226211E+02  0.43400731241E+02  0.00000000000E+00 0.  1.
         11    1    3    3    0    0 -0.13258620801E+01  0.16323201612E+02 -0.68685269252E+01  0.17758983178E+02  0.51100000000E-03 0.  1.
        -11    1    3    3    0    0 -0.10061651851E+02  0.63968893390E+01  0.12822946616E+01  0.11991718436E+02  0.51100000000E-03 0. -1.
         12    1    3    3    0    0 -0.82235253302E+01  0.12933306601E+02 -0.95089939474E+01  0.18036567145E+02  0.00000000000E+00 0. -1.
</event>
<event>
 7    1  0.2740409E-010  0.4778727E+02  0.7816164E-02  0.1312668E+00
        -11   -1    0    0    0    0  0.00000000000E+00  0.00000000000E+00  0.45593999997E+02  0.45594000000E+02  0.51100000000E-03 0.  1.
         11   -1    0    0    0    0 -0.00000000000E+00 -0.00000000000E+00 -0.45593999997E+02  0.45594000000E+02  0.51100000000E-03 0. -1.
    9900012    2    1    2    0    0  0.33518932677E+01 -0.30465493838E+02 -0.30728516315E+02  0.47787271686E+02  0.20000002924E+02 0.  0.
        -12    1    1    2    0    0 -0.33518932677E+01  0.30465493838E+02  0.30728516315E+02  0.43400728314E+02  0.00000000000E+00 0.  1.
         11    1    3    3    0    0  0.83483335800E+01 -0.52250537814E+01 -0.51962942965E+01  0.11135409075E+02  0.51100000000E-03 0. -1.
        -11    1    3    3    0    0 -0.14677355634E+01 -0.12738207863E+01 -0.29575910665E+01  0.35389563797E+01  0.51100000000E-03 0.  1.
         12    1    3    3    0    0 -0.35287047490E+01 -0.23966619270E+02 -0.22574630952E+02  0.33112906231E+02  0.00000000000E+00 0. -1.
</event>
<event>
 7    1  0.2740409E-010  0.4778727E+02  0.7816164E-02  0.1312668E+00
        -11   -1    0    0    0    0  0.00000000000E+00  0.00000000000E+00  0.45593999997E+02  0.45594000000E+02  0.51100000000E-03 0.  1.
         11   -1    0    0    0    0 -0.00000000000E+00 -0.00000000000E+00 -0.45593999997E+02  0.45594000000E+02  0.51100000000E-03 0. -1.
    9900012    2    1    2    0    0  0.30725394737E+02 -0.19742091164E+02 -0.23448311809E+02  0.47787269915E+02  0.19999994850E+02 0.  0.
        -12    1    1    2    0    0 -0.30725394737E+02  0.19742091164E+02  0.23448311809E+02  0.43400730085E+02  0.00000000000E+00 0.  1.
         11    1    3    3    0    0  0.18076534101E+02 -0.17245239092E+02 -0.15395223037E+02  0.29345736472E+02  0.51100000000E-03 0. -1.
        -11    1    3    3    0    0  0.67848371934E+00  0.16993103190E+01 -0.50992543212E+01  0.54176000785E+01  0.51100000000E-03 0.  1.
        -12    1    3    3    0    0  0.11970376916E+02 -0.41961623908E+01 -0.29538344505E+01  0.13023933365E+02  0.00000000000E+00 0.  1.
</event>
<event>
 7    1  0.2740409E-010  0.4778727E+02  0.7816164E-02  0.1312668E+00
        -11   -1    0    0    0    0  0.00000000000E+00  0.00000000000E+00  0.45593999997E+02  0.45594000000E+02  0.51100000000E-03 0.  1.
         11   -1    0    0    0    0 -0.00000000000E+00 -0.00000000000E+00 -0.45593999997E+02  0.45594000000E+02  0.51100000000E-03 0. -1.
    9900012    2    1    2    0    0 -0.80285082057E+01 -0.37206503706E+02 -0.20852871412E+02  0.47787272954E+02  0.20000008705E+02 0.  0.
        -12    1    1    2    0    0  0.80285082057E+01  0.37206503706E+02  0.20852871412E+02  0.43400727046E+02  0.00000000000E+00 0.  1.
         11    1    3    3    0    0 -0.27607577961E+01  0.72504465598E+00 -0.40234141796E+01  0.49330857770E+01  0.51100000000E-03 0. -1.
        -11    1    3    3    0    0 -0.31820788904E+01 -0.97310217268E+01 -0.61225987675E+00  0.10256377154E+02  0.51100000000E-03 0.  1.
         12    1    3    3    0    0 -0.20856715192E+01 -0.28200526635E+02 -0.16217197356E+02  0.32597810022E+02  0.00000000000E+00 0. -1.
</event>
<event>
 7    1  0.2740409E-010  0.4778728E+02  0.7816164E-02  0.1312668E+00
        -11   -1    0    0    0    0  0.00000000000E+00  0.00000000000E+00  0.45593999997E+02  0.45594000000E+02  0.51100000000E-03 0.  1.
         11   -1    0    0    0    0 -0.00000000000E+00 -0.00000000000E+00 -0.45593999997E+02  0.45594000000E+02  0.51100000000E-03 0. -1.
    9900012    2    1    2    0    0 -0.37148139233E+02  0.10493163674E+02 -0.19837645687E+02  0.47787275136E+02  0.20000018653E+02 0.  0.
        -12    1    1    2    0    0  0.37148139233E+02 -0.10493163674E+02  0.19837645687E+02  0.43400724864E+02  0.00000000000E+00 0.  1.
         11    1    3    3    0    0 -0.24051737469E+02  0.54799473222E+01 -0.60767010063E+01  0.25405554379E+02  0.51100000000E-03 0. -1.
        -11    1    3    3    0    0 -0.69449561920E+01  0.26127533540E+01 -0.13922634584E+02  0.15776522133E+02  0.51100000000E-03 0.  1.
        -12    1    3    3    0    0 -0.61514455713E+01  0.24004629977E+01  0.16168990309E+00  0.66051986227E+01  0.00000000000E+00 0.  1.
</event>
<event>
 7    1  0.2740409E-010  0.4778727E+02  0.7816164E-02  0.1312668E+00
        -11   -1    0    0    0    0  0.00000000000E+00  0.00000000000E+00  0.45593999997E+02  0.45594000000E+02  0.51100000000E-03 0.  1.
         11   -1    0    0    0    0 -0.00000000000E+00 -0.00000000000E+00 -0.45593999997E+02  0.45594000000E+02  0.51100000000E-03 0. -1.
    9900012    2    1    2    0    0  0.17623036982E+02 -0.19642735432E+02 -0.34455978468E+02  0.47787274892E+02  0.20000017542E+02 0.  0.
        -12    1    1    2    0    0 -0.17623036982E+02  0.19642735432E+02  0.34455978468E+02  0.43400725108E+02  0.00000000000E+00 0.  1.
         11    1    3    3    0    0  0.58710945091E+01 -0.69786357411E+01 -0.11263803575E+02  0.14492907879E+02  0.51100000000E-03 0. -1.
        -11    1    3    3    0    0  0.79024566104E+01 -0.52836331076E+01 -0.23089377959E+02  0.24969681097E+02  0.51100000000E-03 0.  1.
        -12    1    3    3    0    0  0.38494858623E+01 -0.73804665834E+01 -0.10279693389E+00  0.83246859161E+01  0.00000000000E+00 0.  1.
</event>
<event>
 7    1  0.2740409E-010  0.4778727E+02  0.7816164E-02  0.1312668E+00
        -11   -1    0    0    0    0  0.00000000000E+00  0.00000000000E+00  0.45593999997E+02  0.45594000000E+02  0.51100000000E-03 0. -1.
         11   -1    0    0    0    0 -0.00000000000E+00 -0.00000000000E+00 -0.45593999997E+02  0.45594000000E+02  0.51100000000E-03 0.  1.
    9900012    2    1    2    0    0  0.32319228646E+02 -0.13835440863E+02  0.25449387178E+02  0.47787271068E+02  0.20000000108E+02 0.  0.
        -12    1    1    2    0    0 -0.32319228646E+02  0.13835440863E+02 -0.25449387178E+02  0.43400728932E+02  0.00000000000E+00 0.  1.
         11    1    3    3    0    0  0.88489891873E+01 -0.94935914087E+01  0.15655861585E+02  0.20335655625E+02  0.51100000000E-03 0. -1.
        -11    1    3    3    0    0  0.30392440041E+00  0.10707173355E+01 -0.83869992195E+00  0.13936367797E+01  0.51100000000E-03 0.  1.
         12    1    3    3    0    0  0.23166315058E+02 -0.54125667895E+01  0.10632225514E+02  0.26057978663E+02  0.00000000000E+00 0. -1.
</event>
<event>
 7    1  0.2740409E-010  0.4778725E+02  0.7816164E-02  0.1312668E+00
        -11   -1    0    0    0    0  0.00000000000E+00  0.00000000000E+00  0.45593999997E+02  0.45594000000E+02  0.51100000000E-03 0. -1.
         11   -1    0    0    0    0 -0.00000000000E+00 -0.00000000000E+00 -0.45593999997E+02  0.45594000000E+02  0.51100000000E-03 0.  1.
    9900012    2    1    2    0    0  0.24032683921E+02  0.26780890971E+02  0.24266005406E+02  0.47787250744E+02  0.19999907441E+02 0.  0.
        -12    1    1    2    0    0 -0.24032683921E+02 -0.26780890971E+02 -0.24266005406E+02  0.43400749256E+02  0.00000000000E+00 0.  1.
         11    1    3    3    0    0  0.32745972100E+01  0.14891755636E+02  0.68228164821E+01  0.16704436472E+02  0.51100000000E-03 0. -1.
        -11    1    3    3    0    0  0.11660028096E+02  0.85273457030E+01  0.15505614547E+02  0.21191884359E+02  0.51100000000E-03 0.  1.
         12    1    3    3    0    0  0.90980586149E+01  0.33617896311E+01  0.19375743770E+01  0.98909299134E+01  0.00000000000E+00 0. -1.
</event>
<event>
 7    1  0.2740409E-010  0.4778727E+02  0.7816164E-02  0.1312668E+00
        -11   -1    0    0    0    0  0.00000000000E+00  0.00000000000E+00  0.45593999997E+02  0.45594000000E+02  0.51100000000E-03 0.  1.
         11   -1    0    0    0    0 -0.00000000000E+00 -0.00000000000E+00 -0.45593999997E+02  0.45594000000E+02  0.51100000000E-03 0. -1.
    9900012    2    1    2    0    0  0.21795510427E+02 -0.36740573195E+02 -0.76621947562E+01  0.47787271642E+02  0.20000002725E+02 0.  0.
        -12    1    1    2    0    0 -0.21795510427E+02  0.36740573195E+02  0.76621947562E+01  0.43400728358E+02  0.00000000000E+00 0.  1.
         11    1    3    3    0    0  0.79709646519E+01 -0.15880353607E+02 -0.12348590102E+02  0.21638151167E+02  0.51100000000E-03 0. -1.
        -11    1    3    3    0    0  0.92606798721E+01 -0.99985078827E+01  0.45466495504E+01  0.14366710618E+02  0.51100000000E-03 0.  1.
         12    1    3    3    0    0  0.45638659035E+01 -0.10861711706E+02  0.13974579515E+00  0.11782409857E+02  0.00000000000E+00 0. -1.
</event>
<event>
 7    1  0.2740409E-010  0.4778727E+02  0.7816164E-02  0.1312668E+00
        -11   -1    0    0    0    0  0.00000000000E+00  0.00000000000E+00  0.45593999997E+02  0.45594000000E+02  0.51100000000E-03 0.  1.
         11   -1    0    0    0    0 -0.00000000000E+00 -0.00000000000E+00 -0.45593999997E+02  0.45594000000E+02  0.51100000000E-03 0. -1.
    9900012    2    1    2    0    0  0.27796276807E+02 -0.26735151394E+02 -0.19905317519E+02  0.47787274316E+02  0.20000014916E+02 0.  0.
        -12    1    1    2    0    0 -0.27796276807E+02  0.26735151394E+02  0.19905317519E+02  0.43400725684E+02  0.00000000000E+00 0.  1.
         11    1    3    3    0    0  0.74328873489E+01 -0.16971970738E+02 -0.39435072135E+01  0.18943253534E+02  0.51100000000E-03 0. -1.
        -11    1    3    3    0    0 -0.73558600850E+00 -0.75893491858E+00 -0.10075170987E+01  0.14601917517E+01  0.51100000000E-03 0.  1.
         12    1    3    3    0    0  0.21098975466E+02 -0.90042457384E+01 -0.14954293207E+02  0.27383829030E+02  0.00000000000E+00 0. -1.
</event>
<event>
 7    1  0.2740409E-010  0.4778728E+02  0.7816164E-02  0.1312668E+00
        -11   -1    0    0    0    0  0.00000000000E+00  0.00000000000E+00  0.45593999997E+02  0.45594000000E+02  0.51100000000E-03 0.  1.
         11   -1    0    0    0    0 -0.00000000000E+00 -0.00000000000E+00 -0.45593999997E+02  0.45594000000E+02  0.51100000000E-03 0. -1.
    9900012    2    1    2    0    0  0.37829308991E+02  0.48985600797E+01 -0.20701926590E+02  0.47787282562E+02  0.20000052515E+02 0.  0.
        -12    1    1    2    0    0 -0.37829308991E+02 -0.48985600797E+01  0.20701926590E+02  0.43400717438E+02  0.00000000000E+00 0.  1.
         11    1    3    3    0    0  0.20320395282E+02  0.15439580253E+01 -0.86831520082E+00  0.20397456762E+02  0.51100000000E-03 0. -1.
        -11    1    3    3    0    0  0.17884138507E+02  0.28234956410E+01 -0.18392975461E+02  0.25809224792E+02  0.51100000000E-03 0.  1.
         12    1    3    3    0    0 -0.37522479867E+00  0.53110641349E+00 -0.14406359278E+01  0.15806010086E+01  0.00000000000E+00 0. -1.
</event>
<event>
 7    1  0.2740409E-010  0.4778727E+02  0.7816164E-02  0.1312668E+00
        -11   -1    0    0    0    0  0.00000000000E+00  0.00000000000E+00  0.45593999997E+02  0.45594000000E+02  0.51100000000E-03 0.  1.
         11   -1    0    0    0    0 -0.00000000000E+00 -0.00000000000E+00 -0.45593999997E+02  0.45594000000E+02  0.51100000000E-03 0. -1.
    9900012    2    1    2    0    0 -0.31761693919E+02  0.10004923522E+02 -0.27833787245E+02  0.47787269502E+02  0.19999992970E+02 0.  0.
        -12    1    1    2    0    0  0.31761693919E+02 -0.10004923522E+02  0.27833787245E+02  0.43400730498E+02  0.00000000000E+00 0.  1.
         11    1    3    3    0    0 -0.58498654186E+01  0.43531820137E+01 -0.66890851260E+01  0.98951998031E+01  0.51100000000E-03 0. -1.
        -11    1    3    3    0    0 -0.27723777439E+02  0.75506219636E+01 -0.18549057421E+02  0.34200690914E+02  0.51100000000E-03 0.  1.
        -12    1    3    3    0    0  0.18119489384E+01 -0.18988804549E+01 -0.25956446978E+01  0.36913787850E+01  0.00000000000E+00 0.  1.
</event>
<event>
 7    1  0.2740409E-010  0.4778727E+02  0.7816164E-02  0.1312668E+00
        -11   -1    0    0    0    0  0.00000000000E+00  0.00000000000E+00  0.45593999997E+02  0.45594000000E+02  0.51100000000E-03 0.  1.
         11   -1    0    0    0    0 -0.00000000000E+00 -0.00000000000E+00 -0.45593999997E+02  0.45594000000E+02  0.51100000000E-03 0. -1.
    9900012    2    1    2    0    0 -0.26168017293E+02  0.28702313566E+02 -0.19365829856E+02  0.47787270754E+02  0.19999998676E+02 0.  0.
        -12    1    1    2    0    0  0.26168017293E+02 -0.28702313566E+02  0.19365829856E+02  0.43400729246E+02  0.00000000000E+00 0.  1.
         11    1    3    3    0    0 -0.38870033362E+01  0.38805816392E+01 -0.41639144922E+01  0.68924518826E+01  0.51100000000E-03 0. -1.
        -11    1    3    3    0    0 -0.19486992498E+02  0.11731227431E+02 -0.15468038656E+02  0.27506813589E+02  0.51100000000E-03 0.  1.
        -12    1    3    3    0    0 -0.27940214582E+01  0.13090504495E+02  0.26612329157E+00  0.13388005283E+02  0.00000000000E+00 0.  1.
</event>
<event>
 7    1  0.2740409E-010  0.4778727E+02  0.7816164E-02  0.1312668E+00
        -11   -1    0    0    0    0  0.00000000000E+00  0.00000000000E+00  0.45593999997E+02  0.45594000000E+02  0.51100000000E-03 0.  1.
         11   -1    0    0    0    0 -0.00000000000E+00 -0.00000000000E+00 -0.45593999997E+02  0.45594000000E+02  0.51100000000E-03 0. -1.
    9900012    2    1    2    0    0  0.35595886198E+02  0.18569358936E+02 -0.16484396537E+02  0.47787268040E+02  0.19999986300E+02 0.  0.
        -12    1    1    2    0    0 -0.35595886198E+02 -0.18569358936E+02  0.16484396537E+02  0.43400731960E+02  0.00000000000E+00 0.  1.
         11    1    3    3    0    0  0.21105154070E+01  0.85243960608E+01 -0.34867670018E+01  0.94486585223E+01  0.51100000000E-03 0. -1.
        -11    1    3    3    0    0  0.53554245699E+01  0.46484066171E+01 -0.56520521827E+00  0.71139098674E+01  0.51100000000E-03 0.  1.
         12    1    3    3    0    0  0.28129946221E+02  0.53965562579E+01 -0.12432424317E+02  0.31224699650E+02  0.00000000000E+00 0. -1.
</event>
<event>
 7    1  0.2740409E-010  0.4778727E+02  0.7816164E-02  0.1312668E+00
        -11   -1    0    0    0    0  0.00000000000E+00  0.00000000000E+00  0.45593999997E+02  0.45594000000E+02  0.51100000000E-03 0.  1.
         11   -1    0    0    0    0 -0.00000000000E+00 -0.00000000000E+00 -0.45593999997E+02  0.45594000000E+02  0.51100000000E-03 0. -1.
    9900012    2    1    2    0    0 -0.22631088729E+02  0.24336499347E+02 -0.27914007286E+02  0.47787272123E+02  0.20000004915E+02 0.  0.
        -12    1    1    2    0    0  0.22631088729E+02 -0.24336499347E+02  0.27914007286E+02  0.43400727877E+02  0.00000000000E+00 0.  1.
         11    1    3    3    0    0 -0.16398224979E+02  0.93043398959E+01 -0.24718165775E+02  0.31087943690E+02  0.51100000000E-03 0. -1.
        -11    1    3    3    0    0 -0.19387815352E+01  0.69997747919E+01 -0.18198693851E+01  0.74878331858E+01  0.51100000000E-03 0.  1.
         12    1    3    3    0    0 -0.42940822156E+01  0.80323846589E+01 -0.13759721258E+01  0.92114952464E+01  0.00000000000E+00 0. -1.
</event>
<event>
 7    1  0.2740409E-010  0.4778727E+02  0.7816164E-02  0.1312668E+00
        -11   -1    0    0    0    0  0.00000000000E+00  0.00000000000E+00  0.45593999997E+02  0.45594000000E+02  0.51100000000E-03 0.  1.
         11   -1    0    0    0    0 -0.00000000000E+00 -0.00000000000E+00 -0.45593999997E+02  0.45594000000E+02  0.51100000000E-03 0. -1.
    9900012    2    1    2    0    0  0.17521512855E+02 -0.33585196917E+01 -0.39564382449E+02  0.47787269294E+02  0.19999992017E+02 0.  0.
        -12    1    1    2    0    0 -0.17521512855E+02  0.33585196917E+01  0.39564382449E+02  0.43400730706E+02  0.00000000000E+00 0.  1.
         11    1    3    3    0    0  0.15893558000E+02 -0.38532700966E+01 -0.41473246113E+02  0.44581195809E+02  0.51100000000E-03 0. -1.
        -11    1    3    3    0    0  0.11102770049E+01  0.58287623087E+00  0.22528370775E+01  0.25783201677E+01  0.51100000000E-03 0.  1.
         12    1    3    3    0    0  0.51767785033E+00 -0.88125825923E-01 -0.34397341411E+00  0.62775331742E+00  0.00000000000E+00 0. -1.
</event>
<event>
 7    1  0.2740409E-010  0.4778727E+02  0.7816164E-02  0.1312668E+00
        -11   -1    0    0    0    0  0.00000000000E+00  0.00000000000E+00  0.45593999997E+02  0.45594000000E+02  0.51100000000E-03 0.  1.
         11   -1    0    0    0    0 -0.00000000000E+00 -0.00000000000E+00 -0.45593999997E+02  0.45594000000E+02  0.51100000000E-03 0. -1.
    9900012    2    1    2    0    0  0.82302009927E+00 -0.40216721302E+01 -0.43206156108E+02  0.47787272651E+02  0.20000007323E+02 0.  0.
        -12    1    1    2    0    0 -0.82302009927E+00  0.40216721302E+01  0.43206156108E+02  0.43400727349E+02  0.00000000000E+00 0.  1.
         11    1    3    3    0    0 -0.38903836962E+01  0.57642280038E+00 -0.28378912199E+02  0.28650131002E+02  0.51100000000E-03 0. -1.
        -11    1    3    3    0    0  0.15748818092E+01 -0.74807957219E+01 -0.78209511924E+01  0.10936628144E+02  0.51100000000E-03 0.  1.
        -12    1    3    3    0    0  0.31385219863E+01  0.28827007914E+01 -0.70062927165E+01  0.82005135047E+01  0.00000000000E+00 0.  1.
</event>
<event>
 7    1  0.2740409E-010  0.4778727E+02  0.7816164E-02  0.1312668E+00
        -11   -1    0    0    0    0  0.00000000000E+00  0.00000000000E+00  0.45593999997E+02  0.45594000000E+02  0.51100000000E-03 0. -1.
         11   -1    0    0    0    0 -0.00000000000E+00 -0.00000000000E+00 -0.45593999997E+02  0.45594000000E+02  0.51100000000E-03 0.  1.
    9900012    2    1    2    0    0  0.28558537899E+02 -0.76001083819E+01 -0.31784769076E+02  0.47787270978E+02  0.19999999699E+02 0.  0.
        -12    1    1    2    0    0 -0.28558537899E+02  0.76001083819E+01  0.31784769076E+02  0.43400729022E+02  0.00000000000E+00 0.  1.
         11    1    3    3    0    0  0.27720247980E+02 -0.12106390925E+02 -0.28241617690E+02  0.41383158643E+02  0.51100000000E-03 0. -1.
        -11    1    3    3    0    0  0.94707973956E+00  0.26345457977E+01 -0.35602396838E+01  0.45291388210E+01  0.51100000000E-03 0.  1.
         12    1    3    3    0    0 -0.10878982050E+00  0.18717367452E+01  0.17088296947E-01  0.18749735141E+01  0.00000000000E+00 0. -1.
</event>
<event>
 7    1  0.2740409E-010  0.4778727E+02  0.7816164E-02  0.1312668E+00
        -11   -1    0    0    0    0  0.00000000000E+00  0.00000000000E+00  0.45593999997E+02  0.45594000000E+02  0.51100000000E-03 0.  1.
         11   -1    0    0    0    0 -0.00000000000E+00 -0.00000000000E+00 -0.45593999997E+02  0.45594000000E+02  0.51100000000E-03 0. -1.
    9900012    2    1    2    0    0 -0.62176019221E+01  0.21552699538E+02 -0.37154349223E+02  0.47787273079E+02  0.20000009278E+02 0.  0.
        -12    1    1    2    0    0  0.62176019221E+01 -0.21552699538E+02  0.37154349223E+02  0.43400726921E+02  0.00000000000E+00 0.  1.
         11    1    3    3    0    0 -0.43005105152E+01  0.70068686858E+01 -0.18651883266E+02  0.20383408672E+02  0.51100000000E-03 0. -1.
        -11    1    3    3    0    0  0.55569538439E+01  0.47722868779E+01 -0.38646414441E+01  0.82819026692E+01  0.51100000000E-03 0.  1.
        -12    1    3    3    0    0 -0.74740452509E+01  0.97735439741E+01 -0.14637824514E+02  0.19121961738E+02  0.00000000000E+00 0.  1.
</event>
<event>
 7    1  0.2740409E-010  0.4778727E+02  0.7816164E-02  0.1312668E+00
        -11   -1    0    0    0    0  0.00000000000E+00  0.00000000000E+00  0.45593999997E+02  0.45594000000E+02  0.51100000000E-03 0.  1.
         11   -1    0    0    0    0 -0.00000000000E+00 -0.00000000000E+00 -0.45593999997E+02  0.45594000000E+02  0.51100000000E-03 0. -1.
    9900012    2    1    2    0    0  0.26770942881E+02  0.29868327222E+02 -0.16577788775E+02  0.47787269195E+02  0.19999991568E+02 0.  0.
        -12    1    1    2    0    0 -0.26770942881E+02 -0.29868327222E+02  0.16577788775E+02  0.43400730805E+02  0.00000000000E+00 0.  1.
         11    1    3    3    0    0  0.23728220318E+01 -0.52565721486E+00 -0.38598905749E+01  0.45612887886E+01  0.51100000000E-03 0.  1.
        -11    1    3    3    0    0  0.24919937730E+02  0.28018475964E+02 -0.14508111127E+02  0.40206014234E+02  0.51100000000E-03 0. -1.
        -12    1    3    3    0    0 -0.52181688055E+00  0.23755084724E+01  0.17902129275E+01  0.30199661729E+01  0.00000000000E+00 0.  1.
</event>
<event>
 7    1  0.2740409E-010  0.4778727E+02  0.7816164E-02  0.1312668E+00
        -11   -1    0    0    0    0  0.00000000000E+00  0.00000000000E+00  0.45593999997E+02  0.45594000000E+02  0.51100000000E-03 0.  1.
         11   -1    0    0    0    0 -0.00000000000E+00 -0.00000000000E+00 -0.45593999997E+02  0.45594000000E+02  0.51100000000E-03 0. -1.
    9900012    2    1    2    0    0  0.87491371664E+00  0.27824205589E+02 -0.33296718057E+02  0.47787270467E+02  0.19999997365E+02 0.  0.
        -12    1    1    2    0    0 -0.87491371664E+00 -0.27824205589E+02  0.33296718057E+02  0.43400729533E+02  0.00000000000E+00 0.  1.
         11    1    3    3    0    0 -0.22699721098E+01  0.32567153039E+01 -0.78106486012E+01  0.87615751884E+01  0.51100000000E-03 0. -1.
        -11    1    3    3    0    0  0.21282163780E+01  0.17229264366E+02 -0.26363100157E+02  0.31565644389E+02  0.51100000000E-03 0.  1.
        -12    1    3    3    0    0  0.10166694484E+01  0.73382259195E+01  0.87703070176E+00  0.74600508889E+01  0.00000000000E+00 0.  1.
</event>
<event>
 7    1  0.2740409E-010  0.4778727E+02  0.7816164E-02  0.1312668E+00
        -11   -1    0    0    0    0  0.00000000000E+00  0.00000000000E+00  0.45593999997E+02  0.45594000000E+02  0.51100000000E-03 0.  1.
         11   -1    0    0    0    0 -0.00000000000E+00 -0.00000000000E+00 -0.45593999997E+02  0.45594000000E+02  0.51100000000E-03 0. -1.
    9900012    2    1    2    0    0 -0.13077285662E+02 -0.33960104362E+02 -0.23649925393E+02  0.47787273512E+02  0.20000011251E+02 0.  0.
        -12    1    1    2    0    0  0.13077285662E+02  0.33960104362E+02  0.23649925393E+02  0.43400726488E+02  0.00000000000E+00 0.  1.
         11    1    3    3    0    0 -0.10244058381E+02 -0.67392548096E+01 -0.28992646836E+01  0.12600159660E+02  0.51100000000E-03 0. -1.
        -11    1    3    3    0    0 -0.18559668335E+00 -0.23410910454E+02 -0.15027528746E+02  0.27819629669E+02  0.51100000000E-03 0.  1.
         12    1    3    3    0    0 -0.26476305982E+01 -0.38099390983E+01 -0.57231319635E+01  0.73674841831E+01  0.00000000000E+00 0. -1.
</event>
<event>
 7    1  0.2740409E-010  0.4778727E+02  0.7816164E-02  0.1312668E+00
        -11   -1    0    0    0    0  0.00000000000E+00  0.00000000000E+00  0.45593999997E+02  0.45594000000E+02  0.51100000000E-03 0. -1.
         11   -1    0    0    0    0 -0.00000000000E+00 -0.00000000000E+00 -0.45593999997E+02  0.45594000000E+02  0.51100000000E-03 0.  1.
    9900012    2    1    2    0    0 -0.20220749805E+02 -0.18963008245E+02  0.33393845698E+02  0.47787270342E+02  0.19999996797E+02 0.  0.
        -12    1    1    2    0    0  0.20220749805E+02  0.18963008245E+02 -0.33393845698E+02  0.43400729658E+02  0.00000000000E+00 0.  1.
         11    1    3    3    0    0 -0.11256292530E+02 -0.30453658606E+01  0.48274326695E+01  0.12620716350E+02  0.51100000000E-03 0. -1.
        -11    1    3    3    0    0 -0.72399774713E+01 -0.15319520060E+02  0.19129319110E+02  0.25554565512E+02  0.51100000000E-03 0.  1.
         12    1    3    3    0    0 -0.17244798035E+01 -0.59812232414E+00  0.94370939188E+01  0.96119884800E+01  0.00000000000E+00 0. -1.
</event>
<event>
 7    1  0.2740409E-010  0.4778727E+02  0.7816164E-02  0.1312668E+00
        -11   -1    0    0    0    0  0.00000000000E+00  0.00000000000E+00  0.45593999997E+02  0.45594000000E+02  0.51100000000E-03 0.  1.
         11   -1    0    0    0    0 -0.00000000000E+00 -0.00000000000E+00 -0.45593999997E+02  0.45594000000E+02  0.51100000000E-03 0. -1.
    9900012    2    1    2    0    0  0.33715535944E+02 -0.13338646296E+02 -0.23853013854E+02  0.47787272829E+02  0.20000008138E+02 0.  0.
        -12    1    1    2    0    0 -0.33715535944E+02  0.13338646296E+02  0.23853013854E+02  0.43400727171E+02  0.00000000000E+00 0.  1.
         11    1    3    3    0    0  0.29652219057E+02 -0.80883580741E+01 -0.18946139942E+02  0.36105842329E+02  0.51100000000E-03 0. -1.
        -11    1    3    3    0    0 -0.21583936843E+00  0.16029516456E+01 -0.29562904876E+01  0.33698211109E+01  0.51100000000E-03 0.  1.
         12    1    3    3    0    0  0.42791562559E+01 -0.68532398679E+01 -0.19505834251E+01  0.83116093897E+01  0.00000000000E+00 0. -1.
</event>
<event>
 7    1  0.2740409E-010  0.4778727E+02  0.7816164E-02  0.1312668E+00
        -11   -1    0    0    0    0  0.00000000000E+00  0.00000000000E+00  0.45593999997E+02  0.45594000000E+02  0.51100000000E-03 0. -1.
         11   -1    0    0    0    0 -0.00000000000E+00 -0.00000000000E+00 -0.45593999997E+02  0.45594000000E+02  0.51100000000E-03 0.  1.
    9900012    2    1    2    0    0  0.14683643853E+02 -0.39850540027E+02 -0.89413783484E+01  0.47787272080E+02  0.20000004721E+02 0.  0.
        -12    1    1    2    0    0 -0.14683643853E+02  0.39850540027E+02  0.89413783484E+01  0.43400727920E+02  0.00000000000E+00 0.  1.
         11    1    3    3    0    0  0.11955423454E+02 -0.24280086048E+02 -0.12058625942E+02  0.29628789856E+02  0.51100000000E-03 0. -1.
        -11    1    3    3    0    0  0.69456647096E+00 -0.51719842628E+00 -0.19596943688E+01  0.21425029930E+01  0.51100000000E-03 0.  1.
         12    1    3    3    0    0  0.20336539286E+01 -0.15053255553E+02  0.50769419625E+01  0.16015979231E+02  0.00000000000E+00 0. -1.
</event>
<event>
 7    1  0.2740409E-010  0.4778727E+02  0.7816164E-02  0.1312668E+00
        -11   -1    0    0    0    0  0.00000000000E+00  0.00000000000E+00  0.45593999997E+02  0.45594000000E+02  0.51100000000E-03 0.  1.
         11   -1    0    0    0    0 -0.00000000000E+00 -0.00000000000E+00 -0.45593999997E+02  0.45594000000E+02  0.51100000000E-03 0. -1.
    9900012    2    1    2    0    0  0.83189134033E+01  0.51067324711E+01 -0.42288771738E+02  0.47787271299E+02  0.20000001159E+02 0.  0.
        -12    1    1    2    0    0 -0.83189134033E+01 -0.51067324711E+01  0.42288771738E+02  0.43400728701E+02  0.00000000000E+00 0.  1.
         11    1    3    3    0    0  0.74050426583E+01 -0.12039840414E+01 -0.36391866467E+02  0.37157128247E+02  0.51100000000E-03 0. -1.
        -11    1    3    3    0    0 -0.10297631791E+01  0.67579281194E+01 -0.48119401401E+01  0.83597112895E+01  0.51100000000E-03 0.  1.
         12    1    3    3    0    0  0.19436339241E+01 -0.44721160682E+00 -0.10849651304E+01  0.22704317621E+01  0.00000000000E+00 0. -1.
</event>
<event>
 7    1  0.2740409E-010  0.4778727E+02  0.7816164E-02  0.1312668E+00
        -11   -1    0    0    0    0  0.00000000000E+00  0.00000000000E+00  0.45593999997E+02  0.45594000000E+02  0.51100000000E-03 0. -1.
         11   -1    0    0    0    0 -0.00000000000E+00 -0.00000000000E+00 -0.45593999997E+02  0.45594000000E+02  0.51100000000E-03 0.  1.
    9900012    2    1    2    0    0 -0.19985171057E+02 -0.33554119161E+02 -0.18929796287E+02  0.47787272330E+02  0.20000005863E+02 0.  0.
        -12    1    1    2    0    0  0.19985171057E+02  0.33554119161E+02  0.18929796287E+02  0.43400727670E+02  0.00000000000E+00 0.  1.
         11    1    3    3    0    0 -0.10689116948E+02 -0.23486941616E+02 -0.10935026475E+02  0.28026210087E+02  0.51100000000E-03 0. -1.
        -11    1    3    3    0    0 -0.23767410777E+01 -0.28146249869E+01  0.30957616559E+01  0.48119385344E+01  0.51100000000E-03 0.  1.
         12    1    3    3    0    0 -0.69193130307E+01 -0.72525525580E+01 -0.11090531468E+02  0.14949123709E+02  0.00000000000E+00 0. -1.
</event>
<event>
 7    1  0.2740409E-010  0.4778727E+02  0.7816164E-02  0.1312668E+00
        -11   -1    0    0    0    0  0.00000000000E+00  0.00000000000E+00  0.45593999997E+02  0.45594000000E+02  0.51100000000E-03 0. -1.
         11   -1    0    0    0    0 -0.00000000000E+00 -0.00000000000E+00 -0.45593999997E+02  0.45594000000E+02  0.51100000000E-03 0.  1.
    9900012    2    1    2    0    0  0.12842336413E+02 -0.22738024826E+01  0.41394779621E+02  0.47787267724E+02  0.19999984859E+02 0.  0.
        -12    1    1    2    0    0 -0.12842336413E+02  0.22738024826E+01 -0.41394779621E+02  0.43400732276E+02  0.00000000000E+00 0.  1.
         11    1    3    3    0    0  0.48596597291E+01 -0.52900048641E+01  0.26548114781E+02  0.27502778820E+02  0.51100000000E-03 0. -1.
        -11    1    3    3    0    0  0.13586023345E+01 -0.14362740036E+01 -0.12350436797E+01  0.23310976960E+01  0.51100000000E-03 0.  1.
         12    1    3    3    0    0  0.66240743498E+01  0.44524763850E+01  0.16081708519E+02  0.17953391207E+02  0.00000000000E+00 0. -1.
</event>
<event>
 7    1  0.2740409E-010  0.4778727E+02  0.7816164E-02  0.1312668E+00
        -11   -1    0    0    0    0  0.00000000000E+00  0.00000000000E+00  0.45593999997E+02  0.45594000000E+02  0.51100000000E-03 0.  1.
         11   -1    0    0    0    0 -0.00000000000E+00 -0.00000000000E+00 -0.45593999997E+02  0.45594000000E+02  0.51100000000E-03 0. -1.
    9900012    2    1    2    0    0  0.20860994353E+02  0.15962930761E+02 -0.34548909415E+02  0.47787269757E+02  0.19999994129E+02 0.  0.
        -12    1    1    2    0    0 -0.20860994353E+02 -0.15962930761E+02  0.34548909415E+02  0.43400730243E+02  0.00000000000E+00 0.  1.
         11    1    3    3    0    0 -0.63707575258E+00  0.54616860176E+01 -0.90732212359E+00  0.55730703716E+01  0.51100000000E-03 0. -1.
        -11    1    3    3    0    0  0.19992735144E+02  0.61822045598E+01 -0.27586237730E+02  0.34625563159E+02  0.51100000000E-03 0.  1.
         12    1    3    3    0    0  0.15053349618E+01  0.43190401836E+01 -0.60553495618E+01  0.75886362260E+01  0.00000000000E+00 0. -1.
</event>
<event>
 7    1  0.2740409E-010  0.4778726E+02  0.7816164E-02  0.1312668E+00
        -11   -1    0    0    0    0  0.00000000000E+00  0.00000000000E+00  0.45593999997E+02  0.45594000000E+02  0.51100000000E-03 0. -1.
         11   -1    0    0    0    0 -0.00000000000E+00 -0.00000000000E+00 -0.45593999997E+02  0.45594000000E+02  0.51100000000E-03 0.  1.
    9900012    2    1    2    0    0 -0.38136836778E+02 -0.20200364984E+02  0.45990052591E+01  0.47787263667E+02  0.19999966361E+02 0.  0.
        -12    1    1    2    0    0  0.38136836778E+02  0.20200364984E+02 -0.45990052591E+01  0.43400736333E+02  0.00000000000E+00 0.  1.
         11    1    3    3    0    0 -0.43709723082E+01 -0.24834958039E+01 -0.49151065446E+01  0.70307483907E+01  0.51100000000E-03 0. -1.
        -11    1    3    3    0    0 -0.14848102065E+02 -0.91393926937E+01 -0.10225462638E+01  0.17465401080E+02  0.51100000000E-03 0.  1.
         12    1    3    3    0    0 -0.18917762404E+02 -0.85774764869E+01  0.10536658068E+02  0.23291114196E+02  0.00000000000E+00 0. -1.
</event>
<event>
 7    1  0.2740409E-010  0.4778727E+02  0.7816164E-02  0.1312668E+00
        -11   -1    0    0    0    0  0.00000000000E+00  0.00000000000E+00  0.45593999997E+02  0.45594000000E+02  0.51100000000E-03 0.  1.
         11   -1    0    0    0    0 -0.00000000000E+00 -0.00000000000E+00 -0.45593999997E+02  0.45594000000E+02  0.51100000000E-03 0. -1.
    9900012    2    1    2    0    0 -0.35648163618E+02 -0.12571293079E+02 -0.21325907462E+02  0.47787270650E+02  0.19999998201E+02 0.  0.
        -12    1    1    2    0    0  0.35648163618E+02  0.12571293079E+02  0.21325907462E+02  0.43400729350E+02  0.00000000000E+00 0.  1.
         11    1    3    3    0    0  0.40317275168E+00  0.89600739944E+00  0.19089552833E+01  0.21469718354E+01  0.51100000000E-03 0. -1.
        -11    1    3    3    0    0 -0.17466248004E+01  0.38929142903E+00  0.26702144929E+00  0.18092945381E+01  0.51100000000E-03 0.  1.
         12    1    3    3    0    0 -0.34304711569E+02 -0.13856591908E+02 -0.23501884195E+02  0.43831004276E+02  0.00000000000E+00 0. -1.
</event>
<event>
 7    1  0.2740409E-010  0.4778727E+02  0.7816164E-02  0.1312668E+00
        -11   -1    0    0    0    0  0.00000000000E+00  0.00000000000E+00  0.45593999997E+02  0.45594000000E+02  0.51100000000E-03 0.  1.
         11   -1    0    0    0    0 -0.00000000000E+00 -0.00000000000E+00 -0.45593999997E+02  0.45594000000E+02  0.51100000000E-03 0. -1.
    9900012    2    1    2    0    0  0.20146182768E+02 -0.12356636496E+02 -0.36401485352E+02  0.47787270957E+02  0.19999999602E+02 0.  0.
        -12    1    1    2    0    0 -0.20146182768E+02  0.12356636496E+02  0.36401485352E+02  0.43400729043E+02  0.00000000000E+00 0.  1.
         11    1    3    3    0    0  0.15074549829E+02 -0.77030225563E+00 -0.20081466469E+02  0.25121717973E+02  0.51100000000E-03 0. -1.
        -11    1    3    3    0    0  0.23856522124E+01 -0.80117995429E+01 -0.16156897094E+02  0.18191360377E+02  0.51100000000E-03 0.  1.
         12    1    3    3    0    0  0.26859807263E+01 -0.35745346978E+01 -0.16312178889E+00  0.44741926072E+01  0.00000000000E+00 0. -1.
</event>
<event>
 7    1  0.2740409E-010  0.4778727E+02  0.7816164E-02  0.1312668E+00
        -11   -1    0    0    0    0  0.00000000000E+00  0.00000000000E+00  0.45593999997E+02  0.45594000000E+02  0.51100000000E-03 0.  1.
         11   -1    0    0    0    0 -0.00000000000E+00 -0.00000000000E+00 -0.45593999997E+02  0.45594000000E+02  0.51100000000E-03 0. -1.
    9900012    2    1    2    0    0 -0.16118556826E+02  0.19303109205E+02 -0.35372381231E+02  0.47787271284E+02  0.20000001093E+02 0.  0.
        -12    1    1    2    0    0  0.16118556826E+02 -0.19303109205E+02  0.35372381231E+02  0.43400728716E+02  0.00000000000E+00 0.  1.
         11    1    3    3    0    0 -0.14357773493E+02  0.75017683387E+01 -0.27151969926E+02  0.31617268367E+02  0.51100000000E-03 0. -1.
        -11    1    3    3    0    0  0.22272343833E+01  0.57599402140E+01 -0.59696454494E+01  0.85891880478E+01  0.51100000000E-03 0.  1.
         12    1    3    3    0    0 -0.39880177161E+01  0.60414006524E+01 -0.22507658557E+01  0.75808148694E+01  0.00000000000E+00 0. -1.
</event>
<event>
 7    1  0.2740409E-010  0.4778727E+02  0.7816164E-02  0.1312668E+00
        -11   -1    0    0    0    0  0.00000000000E+00  0.00000000000E+00  0.45593999997E+02  0.45594000000E+02  0.51100000000E-03 0.  1.
         11   -1    0    0    0    0 -0.00000000000E+00 -0.00000000000E+00 -0.45593999997E+02  0.45594000000E+02  0.51100000000E-03 0. -1.
    9900012    2    1    2    0    0  0.24200643963E+02  0.16365601585E+02 -0.32095469522E+02  0.47787271350E+02  0.20000001393E+02 0.  0.
        -12    1    1    2    0    0 -0.24200643963E+02 -0.16365601585E+02  0.32095469522E+02  0.43400728650E+02  0.00000000000E+00 0.  1.
         11    1    3    3    0    0  0.29940376749E-01  0.76863324384E+01 -0.41046748096E+01  0.87137224155E+01  0.51100000000E-03 0. -1.
        -11    1    3    3    0    0  0.18875770773E+02  0.62489115910E+01 -0.15230658198E+02  0.25046288502E+02  0.51100000000E-03 0.  1.
        -12    1    3    3    0    0  0.52949328138E+01  0.24303575554E+01 -0.12760136515E+02  0.14027260432E+02  0.00000000000E+00 0.  1.
</event>
<event>
 7    1  0.2740409E-010  0.4778727E+02  0.7816164E-02  0.1312668E+00
        -11   -1    0    0    0    0  0.00000000000E+00  0.00000000000E+00  0.45593999997E+02  0.45594000000E+02  0.51100000000E-03 0. -1.
         11   -1    0    0    0    0 -0.00000000000E+00 -0.00000000000E+00 -0.45593999997E+02  0.45594000000E+02  0.51100000000E-03 0.  1.
    9900012    2    1    2    0    0  0.36905616800E+02 -0.15692272889E+02  0.16593719730E+02  0.47787268274E+02  0.19999987371E+02 0.  0.
        -12    1    1    2    0    0 -0.36905616800E+02  0.15692272889E+02 -0.16593719730E+02  0.43400731726E+02  0.00000000000E+00 0.  1.
         11    1    3    3    0    0  0.30697973658E+02 -0.14527442502E+02  0.15209038155E+02  0.37211920324E+02  0.51100000000E-03 0. -1.
        -11    1    3    3    0    0  0.33034258942E+01 -0.37717101834E+01 -0.20111576251E+01  0.54021454627E+01  0.51100000000E-03 0.  1.
         12    1    3    3    0    0  0.29042172488E+01  0.26068797973E+01  0.33958392004E+01  0.51732024879E+01  0.00000000000E+00 0. -1.
</event>
<event>
 7    1  0.2740409E-010  0.4778724E+02  0.7816164E-02  0.1312668E+00
        -11   -1    0    0    0    0  0.00000000000E+00  0.00000000000E+00  0.45593999997E+02  0.45594000000E+02  0.51100000000E-03 0.  1.
         11   -1    0    0    0    0 -0.00000000000E+00 -0.00000000000E+00 -0.45593999997E+02  0.45594000000E+02  0.51100000000E-03 0. -1.
    9900012    2    1    2    0    0  0.37151960930E+02  0.17978745750E+02 -0.13420959199E+02  0.47787243722E+02  0.19999875427E+02 0.  0.
        -12    1    1    2    0    0 -0.37151960930E+02 -0.17978745750E+02  0.13420959199E+02  0.43400756278E+02  0.00000000000E+00 0.  1.
         11    1    3    3    0    0  0.40113145437E+01  0.56776202409E+00 -0.35332692490E+01  0.53755920540E+01  0.51100000000E-03 0. -1.
        -11    1    3    3    0    0  0.19559556761E+02  0.83275552031E+01 -0.14136263749E+02  0.25529559130E+02  0.51100000000E-03 0.  1.
        -12    1    3    3    0    0  0.13581089625E+02  0.90834285231E+01  0.42485737992E+01  0.16882092538E+02  0.00000000000E+00 0.  1.
</event>
<event>
 7    1  0.2740409E-010  0.4778726E+02  0.7816164E-02  0.1312668E+00
        -11   -1    0    0    0    0  0.00000000000E+00  0.00000000000E+00  0.45593999997E+02  0.45594000000E+02  0.51100000000E-03 0.  1.
         11   -1    0    0    0    0 -0.00000000000E+00 -0.00000000000E+00 -0.45593999997E+02  0.45594000000E+02  0.51100000000E-03 0. -1.
    9900012    2    1    2    0    0 -0.53448395000E+01 -0.27788743693E+01 -0.42980630845E+02  0.47787261759E+02  0.19999957665E+02 0.  0.
        -12    1    1    2    0    0  0.53448395000E+01  0.27788743693E+01  0.42980630845E+02  0.43400738241E+02  0.00000000000E+00 0.  1.
         11    1    3    3    0    0 -0.11811482405E+02 -0.44776680203E+01 -0.33121816175E+02  0.35448770564E+02  0.51100000000E-03 0. -1.
        -11    1    3    3    0    0  0.25419518732E+01  0.20403989058E+01 -0.59757768356E+01  0.68069564469E+01  0.51100000000E-03 0.  1.
         12    1    3    3    0    0  0.39246910323E+01 -0.34160525481E+00 -0.38830378336E+01  0.55315347478E+01  0.00000000000E+00 0. -1.
</event>
<event>
 7    1  0.2740409E-010  0.4778729E+02  0.7816164E-02  0.1312668E+00
        -11   -1    0    0    0    0  0.00000000000E+00  0.00000000000E+00  0.45593999997E+02  0.45594000000E+02  0.51100000000E-03 0. -1.
         11   -1    0    0    0    0 -0.00000000000E+00 -0.00000000000E+00 -0.45593999997E+02  0.45594000000E+02  0.51100000000E-03 0.  1.
    9900012    2    1    2    0    0 -0.28123905340E+02 -0.16077535468E+02  0.28882187546E+02  0.47787286231E+02  0.20000069240E+02 0.  0.
        -12    1    1    2    0    0  0.28123905340E+02  0.16077535468E+02 -0.28882187546E+02  0.43400713769E+02  0.00000000000E+00 0.  1.
         11    1    3    3    0    0 -0.12319541675E+01 -0.42326621088E+01  0.12617478126E+02  0.13365399138E+02  0.51100000000E-03 0. -1.
        -11    1    3    3    0    0 -0.19180983821E+02 -0.50446846027E+01  0.86995535949E+01  0.21657359398E+02  0.51100000000E-03 0.  1.
         12    1    3    3    0    0 -0.77109673509E+01 -0.68001887562E+01  0.75651558247E+01  0.12764527694E+02  0.00000000000E+00 0. -1.
</event>
<event>
 7    1  0.2740409E-010  0.4778727E+02  0.7816164E-02  0.1312668E+00
        -11   -1    0    0    0    0  0.00000000000E+00  0.00000000000E+00  0.45593999997E+02  0.45594000000E+02  0.51100000000E-03 0.  1.
         11   -1    0    0    0    0 -0.00000000000E+00 -0.00000000000E+00 -0.45593999997E+02  0.45594000000E+02  0.51100000000E-03 0. -1.
    9900012    2    1    2    0    0  0.13333259708E+02  0.19227798466E+02 -0.36553236633E+02  0.47787272395E+02  0.20000006159E+02 0.  0.
        -12    1    1    2    0    0 -0.13333259708E+02 -0.19227798466E+02  0.36553236633E+02  0.43400727605E+02  0.00000000000E+00 0.  1.
         11    1    3    3    0    0 -0.11344254647E+01  0.13301104115E+02 -0.24129126045E+02  0.27575732371E+02  0.51100000000E-03 0. -1.
        -11    1    3    3    0    0  0.11474650818E+02  0.40938123464E+01 -0.11032592405E+02  0.16436088536E+02  0.51100000000E-03 0.  1.
         12    1    3    3    0    0  0.29930343546E+01  0.18328820043E+01 -0.13915181827E+01  0.37754514885E+01  0.00000000000E+00 0. -1.
</event>
<event>
 7    1  0.2740409E-010  0.4778727E+02  0.7816164E-02  0.1312668E+00
        -11   -1    0    0    0    0  0.00000000000E+00  0.00000000000E+00  0.45593999997E+02  0.45594000000E+02  0.51100000000E-03 0.  1.
         11   -1    0    0    0    0 -0.00000000000E+00 -0.00000000000E+00 -0.45593999997E+02  0.45594000000E+02  0.51100000000E-03 0. -1.
    9900012    2    1    2    0    0 -0.33721611787E+02  0.26748097746E+02 -0.55691417655E+01  0.47787272189E+02  0.20000005220E+02 0.  0.
        -12    1    1    2    0    0  0.33721611787E+02 -0.26748097746E+02  0.55691417655E+01  0.43400727811E+02  0.00000000000E+00 0.  1.
         11    1    3    3    0    0 -0.31515852874E+02  0.27608015088E+02 -0.42566307740E+01  0.42113779043E+02  0.51100000000E-03 0. -1.
        -11    1    3    3    0    0 -0.27878999579E+01 -0.23799323929E+01 -0.16358110942E+01  0.40140182569E+01  0.51100000000E-03 0.  1.
         12    1    3    3    0    0  0.58214104580E+00  0.15200150504E+01  0.32330010268E+00  0.16594748889E+01  0.00000000000E+00 0. -1.
</event>
<event>
 7    1  0.2740409E-010  0.4778727E+02  0.7816164E-02  0.1312668E+00
        -11   -1    0    0    0    0  0.00000000000E+00  0.00000000000E+00  0.45593999997E+02  0.45594000000E+02  0.51100000000E-03 0. -1.
         11   -1    0    0    0    0 -0.00000000000E+00 -0.00000000000E+00 -0.45593999997E+02  0.45594000000E+02  0.51100000000E-03 0.  1.
    9900012    2    1    2    0    0 -0.20234984942E+02 -0.37146519173E+02  0.97110819287E+01  0.47787267120E+02  0.19999982109E+02 0.  0.
        -12    1    1    2    0    0  0.20234984942E+02  0.37146519173E+02 -0.97110819287E+01  0.43400732880E+02  0.00000000000E+00 0.  1.
         11    1    3    3    0    0 -0.22618087656E+02 -0.29538729773E+02  0.92321836842E+01  0.38332070928E+02  0.51100000000E-03 0. -1.
        -11    1    3    3    0    0  0.14046528381E+01 -0.79802505612E+01  0.11896414382E+01  0.81897921603E+01  0.51100000000E-03 0.  1.
         12    1    3    3    0    0  0.97844987633E+00  0.37246116095E+00 -0.71074319365E+00  0.12654040320E+01  0.00000000000E+00 0. -1.
</event>
<event>
 7    1  0.2740409E-010  0.4778728E+02  0.7816164E-02  0.1312668E+00
        -11   -1    0    0    0    0  0.00000000000E+00  0.00000000000E+00  0.45593999997E+02  0.45594000000E+02  0.51100000000E-03 0.  1.
         11   -1    0    0    0    0 -0.00000000000E+00 -0.00000000000E+00 -0.45593999997E+02  0.45594000000E+02  0.51100000000E-03 0. -1.
    9900012    2    1    2    0    0 -0.30334186053E+02  0.30734038873E+02  0.43448970387E+01  0.47787284346E+02  0.20000060649E+02 0.  0.
        -12    1    1    2    0    0  0.30334186053E+02 -0.30734038873E+02 -0.43448970387E+01  0.43400715654E+02  0.00000000000E+00 0.  1.
         11    1    3    3    0    0 -0.65886239573E+01  0.91397012046E+01 -0.12286328003E+01  0.11333739126E+02  0.51100000000E-03 0. -1.
        -11    1    3    3    0    0 -0.12784583500E+02  0.21362933726E+02  0.54680962229E+01  0.25489617283E+02  0.51100000000E-03 0.  1.
        -12    1    3    3    0    0 -0.10960978596E+02  0.23140394198E+00  0.10543361612E+00  0.10963927937E+02  0.00000000000E+00 0.  1.
</event>
<event>
 7    1  0.2740409E-010  0.4778727E+02  0.7816164E-02  0.1312668E+00
        -11   -1    0    0    0    0  0.00000000000E+00  0.00000000000E+00  0.45593999997E+02  0.45594000000E+02  0.51100000000E-03 0. -1.
         11   -1    0    0    0    0 -0.00000000000E+00 -0.00000000000E+00 -0.45593999997E+02  0.45594000000E+02  0.51100000000E-03 0.  1.
    9900012    2    1    2    0    0 -0.23352038327E+02  0.11119818899E+02  0.34851900937E+02  0.47787273447E+02  0.20000010956E+02 0.  0.
        -12    1    1    2    0    0  0.23352038327E+02 -0.11119818899E+02 -0.34851900937E+02  0.43400726553E+02  0.00000000000E+00 0.  1.
         11    1    3    3    0    0 -0.59352060688E+01  0.54499209254E+01  0.22402949541E+02  0.23807991465E+02  0.51100000000E-03 0. -1.
        -11    1    3    3    0    0 -0.81009526404E+01  0.67199830087E+01  0.37017498447E+01  0.11157354413E+02  0.51100000000E-03 0.  1.
         12    1    3    3    0    0 -0.93158796175E+01 -0.10500850356E+01  0.87472015512E+01  0.12821927570E+02  0.00000000000E+00 0. -1.
</event>
<event>
 7    1  0.2740409E-010  0.4778727E+02  0.7816164E-02  0.1312668E+00
        -11   -1    0    0    0    0  0.00000000000E+00  0.00000000000E+00  0.45593999997E+02  0.45594000000E+02  0.51100000000E-03 0.  1.
         11   -1    0    0    0    0 -0.00000000000E+00 -0.00000000000E+00 -0.45593999997E+02  0.45594000000E+02  0.51100000000E-03 0. -1.
    9900012    2    1    2    0    0  0.24761244118E+02 -0.23656134218E+02 -0.26662545027E+02  0.47787271853E+02  0.20000003686E+02 0.  0.
        -12    1    1    2    0    0 -0.24761244118E+02  0.23656134218E+02  0.26662545027E+02  0.43400728147E+02  0.00000000000E+00 0.  1.
         11    1    3    3    0    0  0.16343162791E+02 -0.16808200662E+02 -0.65871699745E+01  0.24351701954E+02  0.51100000000E-03 0. -1.
        -11    1    3    3    0    0  0.56589916139E+01 -0.12159569673E+01 -0.87878448458E+01  0.10522782651E+02  0.51100000000E-03 0.  1.
         12    1    3    3    0    0  0.27590897126E+01 -0.56319765879E+01 -0.11287530207E+02  0.12912787248E+02  0.00000000000E+00 0. -1.
</event>
<event>
 7    1  0.2740409E-010  0.4778727E+02  0.7816164E-02  0.1312668E+00
        -11   -1    0    0    0    0  0.00000000000E+00  0.00000000000E+00  0.45593999997E+02  0.45594000000E+02  0.51100000000E-03 0.  1.
         11   -1    0    0    0    0 -0.00000000000E+00 -0.00000000000E+00 -0.45593999997E+02  0.45594000000E+02  0.51100000000E-03 0. -1.
    9900012    2    1    2    0    0 -0.46219275052E+01  0.36271216246E+02 -0.23380766388E+02  0.47787267532E+02  0.19999983985E+02 0.  0.
        -12    1    1    2    0    0  0.46219275052E+01 -0.36271216246E+02  0.23380766388E+02  0.43400732468E+02  0.00000000000E+00 0.  1.
         11    1    3    3    0    0 -0.45091920906E+01  0.25195981843E+02 -0.13578630079E+02  0.28974980749E+02  0.51100000000E-03 0. -1.
        -11    1    3    3    0    0 -0.20314942292E+01  0.99025051600E+00 -0.80960805656E+01  0.84055984720E+01  0.51100000000E-03 0.  1.
         12    1    3    3    0    0  0.19187588146E+01  0.10084983888E+02 -0.17060557442E+01  0.10406688311E+02  0.00000000000E+00 0. -1.
</event>
<event>
 7    1  0.2740409E-010  0.4778726E+02  0.7816164E-02  0.1312668E+00
        -11   -1    0    0    0    0  0.00000000000E+00  0.00000000000E+00  0.45593999997E+02  0.45594000000E+02  0.51100000000E-03 0. -1.
         11   -1    0    0    0    0 -0.00000000000E+00 -0.00000000000E+00 -0.45593999997E+02  0.45594000000E+02  0.51100000000E-03 0.  1.
    9900012    2    1    2    0    0 -0.84863781784E+01 -0.42259006710E+02  0.50775590598E+01  0.47787264192E+02  0.19999968755E+02 0.  0.
        -12    1    1    2    0    0  0.84863781784E+01  0.42259006710E+02 -0.50775590598E+01  0.43400735808E+02  0.00000000000E+00 0.  1.
         11    1    3    3    0    0 -0.24500496038E+01 -0.38196686227E+02  0.49830656883E+01  0.38598193295E+02  0.51100000000E-03 0. -1.
        -11    1    3    3    0    0 -0.14308949869E+01 -0.10692914628E+01 -0.25337130613E+01  0.31000881978E+01  0.51100000000E-03 0.  1.
         12    1    3    3    0    0 -0.46054335877E+01 -0.29930290206E+01  0.26282064328E+01  0.60889826985E+01  0.00000000000E+00 0. -1.
</event>
<event>
 7    1  0.2740409E-010  0.4778727E+02  0.7816164E-02  0.1312668E+00
        -11   -1    0    0    0    0  0.00000000000E+00  0.00000000000E+00  0.45593999997E+02  0.45594000000E+02  0.51100000000E-03 0.  1.
         11   -1    0    0    0    0 -0.00000000000E+00 -0.00000000000E+00 -0.45593999997E+02  0.45594000000E+02  0.51100000000E-03 0. -1.
    9900012    2    1    2    0    0 -0.14078726468E+02  0.36939374971E+02 -0.17913556656E+02  0.47787268736E+02  0.19999989476E+02 0.  0.
        -12    1    1    2    0    0  0.14078726468E+02 -0.36939374971E+02  0.17913556656E+02  0.43400731264E+02  0.00000000000E+00 0.  1.
         11    1    3    3    0    0 -0.34848042339E+01  0.19328126561E+02 -0.93811410894E+01  0.21765250867E+02  0.51100000000E-03 0. -1.
        -11    1    3    3    0    0 -0.76631195176E+01  0.18776421417E+01 -0.94374272547E-02  0.78898054526E+01  0.51100000000E-03 0.  1.
        -12    1    3    3    0    0 -0.29308027164E+01  0.15733606268E+02 -0.85229781393E+01  0.18132212417E+02  0.00000000000E+00 0.  1.
</event>
<event>
 7    1  0.2740409E-010  0.4778727E+02  0.7816164E-02  0.1312668E+00
        -11   -1    0    0    0    0  0.00000000000E+00  0.00000000000E+00  0.45593999997E+02  0.45594000000E+02  0.51100000000E-03 0.  1.
         11   -1    0    0    0    0 -0.00000000000E+00 -0.00000000000E+00 -0.45593999997E+02  0.45594000000E+02  0.51100000000E-03 0. -1.
    9900012    2    1    2    0    0 -0.40275235254E+02 -0.53155234894E+01  0.15273305225E+02  0.47787271697E+02  0.20000002975E+02 0.  0.
        -12    1    1    2    0    0  0.40275235254E+02  0.53155234894E+01 -0.15273305225E+02  0.43400728303E+02  0.00000000000E+00 0.  1.
         11    1    3    3    0    0 -0.19119041282E+02 -0.68432066478E+01  0.13908635012E+02  0.24613357043E+02  0.51100000000E-03 0. -1.
        -11    1    3    3    0    0 -0.18688750911E+02  0.38200598989E+01  0.31947262835E+01  0.19340851701E+02  0.51100000000E-03 0.  1.
        -12    1    3    3    0    0 -0.24674430618E+01 -0.22923767404E+01 -0.18300560705E+01  0.38330629534E+01  0.00000000000E+00 0.  1.
</event>
<event>
 7    1  0.2740409E-010  0.4778727E+02  0.7816164E-02  0.1312668E+00
        -11   -1    0    0    0    0  0.00000000000E+00  0.00000000000E+00  0.45593999997E+02  0.45594000000E+02  0.51100000000E-03 0.  1.
         11   -1    0    0    0    0 -0.00000000000E+00 -0.00000000000E+00 -0.45593999997E+02  0.45594000000E+02  0.51100000000E-03 0. -1.
    9900012    2    1    2    0    0 -0.32173519838E+02  0.45321561244E+00 -0.29125295147E+02  0.47787267281E+02  0.19999982841E+02 0.  0.
        -12    1    1    2    0    0  0.32173519838E+02 -0.45321561244E+00  0.29125295147E+02  0.43400732719E+02  0.00000000000E+00 0.  1.
         11    1    3    3    0    0 -0.23847684943E+01  0.28155701203E+01 -0.10015325780E+02  0.10673392461E+02  0.51100000000E-03 0. -1.
        -11    1    3    3    0    0 -0.29157165415E+02 -0.10945515784E+01 -0.20060125280E+02  0.35408289492E+02  0.51100000000E-03 0.  1.
        -12    1    3    3    0    0 -0.63158592847E+00 -0.12678029295E+01  0.95015591350E+00  0.17055853286E+01  0.00000000000E+00 0.  1.
</event>
<event>
 7    1  0.2740409E-010  0.4778727E+02  0.7816164E-02  0.1312668E+00
        -11   -1    0    0    0    0  0.00000000000E+00  0.00000000000E+00  0.45593999997E+02  0.45594000000E+02  0.51100000000E-03 0. -1.
         11   -1    0    0    0    0 -0.00000000000E+00 -0.00000000000E+00 -0.45593999997E+02  0.45594000000E+02  0.51100000000E-03 0.  1.
    9900012    2    1    2    0    0  0.17494161288E+02 -0.38479786531E+02  0.98429433966E+01  0.47787272064E+02  0.20000004650E+02 0.  0.
        -12    1    1    2    0    0 -0.17494161288E+02  0.38479786531E+02 -0.98429433966E+01  0.43400727936E+02  0.00000000000E+00 0.  1.
         11    1    3    3    0    0  0.19670801870E+01 -0.99627788437E+01  0.81273033107E+01  0.13006899174E+02  0.51100000000E-03 0. -1.
        -11    1    3    3    0    0  0.29088509426E+00 -0.12791290532E+02 -0.24231413400E+00  0.12796891967E+02  0.51100000000E-03 0.  1.
         12    1    3    3    0    0  0.15236196007E+02 -0.15725717155E+02  0.19579542199E+01  0.21983480924E+02  0.00000000000E+00 0. -1.
</event>
<event>
 7    1  0.2740409E-010  0.4778727E+02  0.7816164E-02  0.1312668E+00
        -11   -1    0    0    0    0  0.00000000000E+00  0.00000000000E+00  0.45593999997E+02  0.45594000000E+02  0.51100000000E-03 0.  1.
         11   -1    0    0    0    0 -0.00000000000E+00 -0.00000000000E+00 -0.45593999997E+02  0.45594000000E+02  0.51100000000E-03 0. -1.
    9900012    2    1    2    0    0 -0.25812457786E+02  0.29846742528E+02 -0.18069654190E+02  0.47787269372E+02  0.19999992374E+02 0.  0.
        -12    1    1    2    0    0  0.25812457786E+02 -0.29846742528E+02  0.18069654190E+02  0.43400730628E+02  0.00000000000E+00 0.  1.
         11    1    3    3    0    0 -0.12139771666E+01 -0.28065784128E+01 -0.17251564752E+01  0.35109525877E+01  0.51100000000E-03 0. -1.
        -11    1    3    3    0    0 -0.80020335658E+00  0.16795800586E+01  0.16970838561E+00  0.18681851575E+01  0.51100000000E-03 0.  1.
         12    1    3    3    0    0 -0.23798277263E+02  0.30973740883E+02 -0.16514206100E+02  0.42408131627E+02  0.00000000000E+00 0. -1.
</event>
<event>
 7    1  0.2740409E-010  0.4778727E+02  0.7816164E-02  0.1312668E+00
        -11   -1    0    0    0    0  0.00000000000E+00  0.00000000000E+00  0.45593999997E+02  0.45594000000E+02  0.51100000000E-03 0. -1.
         11   -1    0    0    0    0 -0.00000000000E+00 -0.00000000000E+00 -0.45593999997E+02  0.45594000000E+02  0.51100000000E-03 0.  1.
    9900012    2    1    2    0    0 -0.40891187976E+02  0.13681169313E+02  0.49355742685E+01  0.47787267964E+02  0.19999985956E+02 0.  0.
        -12    1    1    2    0    0  0.40891187976E+02 -0.13681169313E+02 -0.49355742685E+01  0.43400732036E+02  0.00000000000E+00 0.  1.
         11    1    3    3    0    0 -0.45366226025E+01  0.18498162784E+01 -0.29341660889E+01  0.57107001147E+01  0.51100000000E-03 0.  1.
        -11    1    3    3    0    0 -0.33313771740E+02  0.57878923107E+01  0.34340754984E+01  0.33986761536E+02  0.51100000000E-03 0. -1.
        -12    1    3    3    0    0 -0.30407936338E+01  0.60434607238E+01  0.44356648590E+01  0.80898063132E+01  0.00000000000E+00 0.  1.
</event>
<event>
 7    1  0.2740409E-010  0.4778727E+02  0.7816164E-02  0.1312668E+00
        -11   -1    0    0    0    0  0.00000000000E+00  0.00000000000E+00  0.45593999997E+02  0.45594000000E+02  0.51100000000E-03 0.  1.
         11   -1    0    0    0    0 -0.00000000000E+00 -0.00000000000E+00 -0.45593999997E+02  0.45594000000E+02  0.51100000000E-03 0. -1.
    9900012    2    1    2    0    0 -0.33910310984E+02 -0.24800115550E+02 -0.10893500586E+02  0.47787271005E+02  0.19999999818E+02 0.  0.
        -12    1    1    2    0    0  0.33910310984E+02  0.24800115550E+02  0.10893500586E+02  0.43400728995E+02  0.00000000000E+00 0.  1.
         11    1    3    3    0    0 -0.29418796111E+02 -0.26416106250E+02 -0.70305883055E+01  0.40158503536E+02  0.51100000000E-03 0. -1.
        -11    1    3    3    0    0 -0.36103062398E+01  0.21317625620E+01 -0.63163972156E+00  0.42400108213E+01  0.51100000000E-03 0.  1.
         12    1    3    3    0    0 -0.88120863311E+00 -0.51577186195E+00 -0.32312725587E+01  0.33887566477E+01  0.00000000000E+00 0. -1.
</event>
<event>
 7    1  0.2740409E-010  0.4778727E+02  0.7816164E-02  0.1312668E+00
        -11   -1    0    0    0    0  0.00000000000E+00  0.00000000000E+00  0.45593999997E+02  0.45594000000E+02  0.51100000000E-03 0.  1.
         11   -1    0    0    0    0 -0.00000000000E+00 -0.00000000000E+00 -0.45593999997E+02  0.45594000000E+02  0.51100000000E-03 0. -1.
    9900012    2    1    2    0    0  0.57637736427E+01 -0.32310707209E+02 -0.28397541398E+02  0.47787271384E+02  0.20000001549E+02 0.  0.
        -12    1    1    2    0    0 -0.57637736427E+01  0.32310707209E+02  0.28397541398E+02  0.43400728616E+02  0.00000000000E+00 0.  1.
         11    1    3    3    0    0  0.16935627171E+01 -0.96649066762E+01 -0.17377901641E+02  0.19956704173E+02  0.51100000000E-03 0. -1.
        -11    1    3    3    0    0  0.12846881949E+01 -0.34256643305E+01  0.22628940359E+01  0.43018937158E+01  0.51100000000E-03 0.  1.
        -12    1    3    3    0    0  0.27855227307E+01 -0.19220136202E+02 -0.13282533793E+02  0.23528673496E+02  0.00000000000E+00 0.  1.
</event>
<event>
 7    1  0.2740409E-010  0.4778725E+02  0.7816164E-02  0.1312668E+00
        -11   -1    0    0    0    0  0.00000000000E+00  0.00000000000E+00  0.45593999997E+02  0.45594000000E+02  0.51100000000E-03 0.  1.
         11   -1    0    0    0    0 -0.00000000000E+00 -0.00000000000E+00 -0.45593999997E+02  0.45594000000E+02  0.51100000000E-03 0. -1.
    9900012    2    1    2    0    0  0.16402096873E+02  0.41773935956E+00 -0.40179866339E+02  0.47787251769E+02  0.19999912115E+02 0.  0.
        -12    1    1    2    0    0 -0.16402096873E+02 -0.41773935956E+00  0.40179866339E+02  0.43400748231E+02  0.00000000000E+00 0.  1.
         11    1    3    3    0    0  0.30627589363E+01  0.43808676453E+00 -0.21222732857E+02  0.21447069788E+02  0.51100000000E-03 0. -1.
        -11    1    3    3    0    0  0.12321525931E+02  0.48976319628E+01 -0.13443359126E+02  0.18882020680E+02  0.51100000000E-03 0.  1.
         12    1    3    3    0    0  0.10178120056E+01 -0.49179793678E+01 -0.55137743559E+01  0.74581613008E+01  0.00000000000E+00 0. -1.
</event>
<event>
 7    1  0.2740409E-010  0.4778727E+02  0.7816164E-02  0.1312668E+00
        -11   -1    0    0    0    0  0.00000000000E+00  0.00000000000E+00  0.45593999997E+02  0.45594000000E+02  0.51100000000E-03 0.  1.
         11   -1    0    0    0    0 -0.00000000000E+00 -0.00000000000E+00 -0.45593999997E+02  0.45594000000E+02  0.51100000000E-03 0. -1.
    9900012    2    1    2    0    0 -0.35960006133E+02 -0.17393032843E+02 -0.16970083789E+02  0.47787269863E+02  0.19999994614E+02 0.  0.
        -12    1    1    2    0    0  0.35960006133E+02  0.17393032843E+02  0.16970083789E+02  0.43400730137E+02  0.00000000000E+00 0.  1.
         11    1    3    3    0    0 -0.12213592239E+02  0.29580547013E+01 -0.34159914586E+01  0.13022707894E+02  0.51100000000E-03 0. -1.
        -11    1    3    3    0    0 -0.38482167723E+01 -0.65266919811E+01 -0.49625724496E+01  0.90572405357E+01  0.51100000000E-03 0.  1.
         12    1    3    3    0    0 -0.19898197122E+02 -0.13824395563E+02 -0.85915198812E+01  0.25707321433E+02  0.00000000000E+00 0. -1.
</event>
<event>
 7    1  0.2740409E-010  0.4778728E+02  0.7816164E-02  0.1312668E+00
        -11   -1    0    0    0    0  0.00000000000E+00  0.00000000000E+00  0.45593999997E+02  0.45594000000E+02  0.51100000000E-03 0. -1.
         11   -1    0    0    0    0 -0.00000000000E+00 -0.00000000000E+00 -0.45593999997E+02  0.45594000000E+02  0.51100000000E-03 0.  1.
    9900012    2    1    2    0    0 -0.19784437592E+02 -0.14676692315E+02  0.35732242881E+02  0.47787280543E+02  0.20000043306E+02 0.  0.
        -12    1    1    2    0    0  0.19784437592E+02  0.14676692315E+02 -0.35732242881E+02  0.43400719457E+02  0.00000000000E+00 0.  1.
         11    1    3    3    0    0 -0.15671271211E+02 -0.20370389154E+01  0.19228926910E+02  0.24889554020E+02  0.51100000000E-03 0. -1.
        -11    1    3    3    0    0  0.50670369786E+00 -0.25146112105E+01  0.92844566797E+01  0.96322974558E+01  0.51100000000E-03 0.  1.
         12    1    3    3    0    0 -0.46198700788E+01 -0.10125042190E+02  0.72188592905E+01  0.13265429067E+02  0.00000000000E+00 0. -1.
</event>
<event>
 7    1  0.2740409E-010  0.4778727E+02  0.7816164E-02  0.1312668E+00
        -11   -1    0    0    0    0  0.00000000000E+00  0.00000000000E+00  0.45593999997E+02  0.45594000000E+02  0.51100000000E-03 0. -1.
         11   -1    0    0    0    0 -0.00000000000E+00 -0.00000000000E+00 -0.45593999997E+02  0.45594000000E+02  0.51100000000E-03 0.  1.
    9900012    2    1    2    0    0  0.14689974478E+02  0.37529389099E+02  0.16105061414E+02  0.47787269598E+02  0.19999993405E+02 0.  0.
        -12    1    1    2    0    0 -0.14689974478E+02 -0.37529389099E+02 -0.16105061414E+02  0.43400730402E+02  0.00000000000E+00 0.  1.
         11    1    3    3    0    0 -0.18936750103E+00  0.98168763285E+01 -0.29056446713E+01  0.10239613866E+02  0.51100000000E-03 0. -1.
        -11    1    3    3    0    0 -0.66921453748E+00  0.13186267762E+01  0.20647618912E+01  0.25396587567E+01  0.51100000000E-03 0.  1.
         12    1    3    3    0    0  0.15548556516E+02  0.26393885994E+02  0.16945944194E+02  0.35007996976E+02  0.00000000000E+00 0. -1.
</event>
<event>
 7    1  0.2740409E-010  0.4778727E+02  0.7816164E-02  0.1312668E+00
        -11   -1    0    0    0    0  0.00000000000E+00  0.00000000000E+00  0.45593999997E+02  0.45594000000E+02  0.51100000000E-03 0.  1.
         11   -1    0    0    0    0 -0.00000000000E+00 -0.00000000000E+00 -0.45593999997E+02  0.45594000000E+02  0.51100000000E-03 0. -1.
    9900012    2    1    2    0    0 -0.18042344127E+02  0.29456147754E+02 -0.26276078727E+02  0.47787272640E+02  0.20000007274E+02 0.  0.
        -12    1    1    2    0    0  0.18042344127E+02 -0.29456147754E+02  0.26276078727E+02  0.43400727360E+02  0.00000000000E+00 0.  1.
         11    1    3    3    0    0 -0.10071547519E+01 -0.63242879353E+00 -0.54079147389E+01  0.55371354469E+01  0.51100000000E-03 0. -1.
        -11    1    3    3    0    0 -0.38145861354E+01  0.14624820659E+02 -0.35331186775E+01  0.15521577708E+02  0.51100000000E-03 0.  1.
        -12    1    3    3    0    0 -0.13220603240E+02  0.15463755888E+02 -0.17335045311E+02  0.26728559485E+02  0.00000000000E+00 0.  1.
</event>
<event>
 7    1  0.2740409E-010  0.4778727E+02  0.7816164E-02  0.1312668E+00
        -11   -1    0    0    0    0  0.00000000000E+00  0.00000000000E+00  0.45593999997E+02  0.45594000000E+02  0.51100000000E-03 0.  1.
         11   -1    0    0    0    0 -0.00000000000E+00 -0.00000000000E+00 -0.45593999997E+02  0.45594000000E+02  0.51100000000E-03 0. -1.
    9900012    2    1    2    0    0 -0.34060896185E+02 -0.33244816097E+01 -0.26691316707E+02  0.47787271729E+02  0.20000003120E+02 0.  0.
        -12    1    1    2    0    0  0.34060896185E+02  0.33244816097E+01  0.26691316707E+02  0.43400728271E+02  0.00000000000E+00 0.  1.
         11    1    3    3    0    0 -0.97661264328E+01  0.12388747073E+01 -0.18324838510E+02  0.20801724513E+02  0.51100000000E-03 0. -1.
        -11    1    3    3    0    0 -0.70247904913E+01 -0.44643562593E+01 -0.18477873383E+01  0.85259883043E+01  0.51100000000E-03 0.  1.
         12    1    3    3    0    0 -0.17269979261E+02 -0.99000057653E-01 -0.65186908590E+01  0.18459558912E+02  0.00000000000E+00 0. -1.
</event>
<event>
 7    1  0.2740409E-010  0.4778728E+02  0.7816164E-02  0.1312668E+00
        -11   -1    0    0    0    0  0.00000000000E+00  0.00000000000E+00  0.45593999997E+02  0.45594000000E+02  0.51100000000E-03 0.  1.
         11   -1    0    0    0    0 -0.00000000000E+00 -0.00000000000E+00 -0.45593999997E+02  0.45594000000E+02  0.51100000000E-03 0. -1.
    9900012    2    1    2    0    0  0.11308112832E+02  0.11792227551E+02 -0.40208117313E+02  0.47787277146E+02  0.20000027818E+02 0.  0.
        -12    1    1    2    0    0 -0.11308112832E+02 -0.11792227551E+02  0.40208117313E+02  0.43400722854E+02  0.00000000000E+00 0.  1.
         11    1    3    3    0    0  0.36260920054E+01  0.88907506034E+01 -0.31096050978E+02  0.32544713491E+02  0.51100000000E-03 0. -1.
        -11    1    3    3    0    0 -0.76079799813E+00  0.22247555008E+01 -0.55996503998E+01  0.60732557573E+01  0.51100000000E-03 0.  1.
         12    1    3    3    0    0  0.84428188245E+01  0.67672144685E+00 -0.35124159356E+01  0.91693078978E+01  0.00000000000E+00 0. -1.
</event>
<event>
 7    1  0.2740409E-010  0.4778727E+02  0.7816164E-02  0.1312668E+00
        -11   -1    0    0    0    0  0.00000000000E+00  0.00000000000E+00  0.45593999997E+02  0.45594000000E+02  0.51100000000E-03 0. -1.
         11   -1    0    0    0    0 -0.00000000000E+00 -0.00000000000E+00 -0.45593999997E+02  0.45594000000E+02  0.51100000000E-03 0.  1.
    9900012    2    1    2    0    0 -0.36295141633E+02 -0.83656009652E+00  0.23782051708E+02  0.47787272790E+02  0.20000007958E+02 0.  0.
        -12    1    1    2    0    0  0.36295141633E+02  0.83656009652E+00 -0.23782051708E+02  0.43400727210E+02  0.00000000000E+00 0.  1.
         11    1    3    3    0    0 -0.23555418689E+02 -0.35214149750E+01  0.79751129800E+01  0.25116937321E+02  0.51100000000E-03 0. -1.
        -11    1    3    3    0    0 -0.77380363876E+01 -0.23237045608E+01  0.12436629821E+02  0.14830595793E+02  0.51100000000E-03 0.  1.
         12    1    3    3    0    0 -0.50016865560E+01  0.50085594393E+01  0.33703089067E+01  0.78397396761E+01  0.00000000000E+00 0. -1.
</event>
<event>
 7    1  0.2740409E-010  0.4778727E+02  0.7816164E-02  0.1312668E+00
        -11   -1    0    0    0    0  0.00000000000E+00  0.00000000000E+00  0.45593999997E+02  0.45594000000E+02  0.51100000000E-03 0.  1.
         11   -1    0    0    0    0 -0.00000000000E+00 -0.00000000000E+00 -0.45593999997E+02  0.45594000000E+02  0.51100000000E-03 0. -1.
    9900012    2    1    2    0    0  0.72220208889E+01  0.24303662108E+02 -0.35224961527E+02  0.47787268530E+02  0.19999988534E+02 0.  0.
        -12    1    1    2    0    0 -0.72220208889E+01 -0.24303662108E+02  0.35224961527E+02  0.43400731470E+02  0.00000000000E+00 0.  1.
         11    1    3    3    0    0 -0.24836967760E+00  0.11976613951E+02 -0.12743326413E+02  0.17489806676E+02  0.51100000000E-03 0. -1.
        -11    1    3    3    0    0  0.36395223810E+01 -0.19407962728E+01 -0.10305954528E+01  0.42514633460E+01  0.51100000000E-03 0.  1.
        -12    1    3    3    0    0  0.38308681856E+01  0.14267844430E+02 -0.21451039661E+02  0.26045998508E+02  0.00000000000E+00 0.  1.
</event>
<event>
 7    1  0.2740409E-010  0.4778727E+02  0.7816164E-02  0.1312668E+00
        -11   -1    0    0    0    0  0.00000000000E+00  0.00000000000E+00  0.45593999997E+02  0.45594000000E+02  0.51100000000E-03 0.  1.
         11   -1    0    0    0    0 -0.00000000000E+00 -0.00000000000E+00 -0.45593999997E+02  0.45594000000E+02  0.51100000000E-03 0. -1.
    9900012    2    1    2    0    0  0.19509840404E+02  0.32811211589E+02 -0.20649785868E+02  0.47787272646E+02  0.20000007300E+02 0.  0.
        -12    1    1    2    0    0 -0.19509840404E+02 -0.32811211589E+02  0.20649785868E+02  0.43400727354E+02  0.00000000000E+00 0.  1.
         11    1    3    3    0    0  0.16597437679E+02  0.12845330557E+02 -0.94588313441E+01  0.23020576563E+02  0.51100000000E-03 0. -1.
        -11    1    3    3    0    0  0.54541748047E+01  0.69683694669E+01 -0.43476327726E+01  0.98594171640E+01  0.51100000000E-03 0.  1.
         12    1    3    3    0    0 -0.25417720795E+01  0.12997511564E+02 -0.68433217510E+01  0.14907278919E+02  0.00000000000E+00 0. -1.
</event>
<event>
 7    1  0.2740409E-010  0.4778727E+02  0.7816164E-02  0.1312668E+00
        -11   -1    0    0    0    0  0.00000000000E+00  0.00000000000E+00  0.45593999997E+02  0.45594000000E+02  0.51100000000E-03 0. -1.
         11   -1    0    0    0    0 -0.00000000000E+00 -0.00000000000E+00 -0.45593999997E+02  0.45594000000E+02  0.51100000000E-03 0.  1.
    9900012    2    1    2    0    0 -0.13040908267E+02  0.13525176665E+02  0.39123235851E+02  0.47787271023E+02  0.19999999902E+02 0.  0.
        -12    1    1    2    0    0  0.13040908267E+02 -0.13525176665E+02 -0.39123235851E+02  0.43400728977E+02  0.00000000000E+00 0.  1.
         11    1    3    3    0    0 -0.11518001183E+02  0.23893711339E+01  0.22527443025E+02  0.25413758777E+02  0.51100000000E-03 0. -1.
        -11    1    3    3    0    0  0.29275286307E+01 -0.65424135913E-01  0.37609665283E+01  0.47665053959E+01  0.51100000000E-03 0.  1.
         12    1    3    3    0    0 -0.44504357148E+01  0.11201229667E+02  0.12834826298E+02  0.17607006850E+02  0.00000000000E+00 0. -1.
</event>
<event>
 7    1  0.2740409E-010  0.4778727E+02  0.7816164E-02  0.1312668E+00
        -11   -1    0    0    0    0  0.00000000000E+00  0.00000000000E+00  0.45593999997E+02  0.45594000000E+02  0.51100000000E-03 0.  1.
         11   -1    0    0    0    0 -0.00000000000E+00 -0.00000000000E+00 -0.45593999997E+02  0.45594000000E+02  0.51100000000E-03 0. -1.
    9900012    2    1    2    0    0  0.10709763861E+02  0.19540812404E+02 -0.37243533819E+02  0.47787271865E+02  0.20000003739E+02 0.  0.
        -12    1    1    2    0    0 -0.10709763861E+02 -0.19540812404E+02  0.37243533819E+02  0.43400728135E+02  0.00000000000E+00 0.  1.
         11    1    3    3    0    0  0.24443986938E+01  0.11512040859E+02 -0.26125925066E+02  0.28654251526E+02  0.51100000000E-03 0. -1.
        -11    1    3    3    0    0  0.17663546046E+01  0.64423298284E+01 -0.65184081621E+00  0.67118193449E+01  0.51100000000E-03 0.  1.
         12    1    3    3    0    0  0.64990105626E+01  0.15864417164E+01 -0.10465767937E+02  0.12421200993E+02  0.00000000000E+00 0. -1.
</event>
<event>
 7    1  0.2740409E-010  0.4778729E+02  0.7816164E-02  0.1312668E+00
        -11   -1    0    0    0    0  0.00000000000E+00  0.00000000000E+00  0.45593999997E+02  0.45594000000E+02  0.51100000000E-03 0.  1.
         11   -1    0    0    0    0 -0.00000000000E+00 -0.00000000000E+00 -0.45593999997E+02  0.45594000000E+02  0.51100000000E-03 0. -1.
    9900012    2    1    2    0    0  0.53548990106E+00  0.33143706131E+02 -0.28014818082E+02  0.47787285286E+02  0.20000064931E+02 0.  0.
        -12    1    1    2    0    0 -0.53548990106E+00 -0.33143706131E+02  0.28014818082E+02  0.43400714714E+02  0.00000000000E+00 0.  1.
         11    1    3    3    0    0  0.78897187968E+01  0.24179617861E+02 -0.22422829757E+02  0.33907003365E+02  0.51100000000E-03 0. -1.
        -11    1    3    3    0    0 -0.33603168059E+01  0.87233513488E+00 -0.27206201807E+01  0.44107223958E+01  0.51100000000E-03 0.  1.
         12    1    3    3    0    0 -0.39939120898E+01  0.80917531349E+01 -0.28713681444E+01  0.94695595250E+01  0.00000000000E+00 0. -1.
</event>
<event>
 7    1  0.2740409E-010  0.4778727E+02  0.7816164E-02  0.1312668E+00
        -11   -1    0    0    0    0  0.00000000000E+00  0.00000000000E+00  0.45593999997E+02  0.45594000000E+02  0.51100000000E-03 0.  1.
         11   -1    0    0    0    0 -0.00000000000E+00 -0.00000000000E+00 -0.45593999997E+02  0.45594000000E+02  0.51100000000E-03 0. -1.
    9900012    2    1    2    0    0  0.30013371998E+02  0.27634817526E+02  0.14803304700E+02  0.47787268803E+02  0.19999989780E+02 0.  0.
        -12    1    1    2    0    0 -0.30013371998E+02 -0.27634817526E+02 -0.14803304700E+02  0.43400731197E+02  0.00000000000E+00 0.  1.
         11    1    3    3    0    0  0.24534668188E+02  0.29372121493E+02  0.11701848044E+02  0.40020053873E+02  0.51100000000E-03 0. -1.
        -11    1    3    3    0    0  0.53492840898E+01 -0.15994196670E+01  0.39876468900E+01  0.68610721848E+01  0.51100000000E-03 0.  1.
         12    1    3    3    0    0  0.12941972009E+00 -0.13788429961E+00 -0.88619023394E+00  0.90614274525E+00  0.00000000000E+00 0. -1.
</event>
<event>
 7    1  0.2740409E-010  0.4778729E+02  0.7816164E-02  0.1312668E+00
        -11   -1    0    0    0    0  0.00000000000E+00  0.00000000000E+00  0.45593999997E+02  0.45594000000E+02  0.51100000000E-03 0.  1.
         11   -1    0    0    0    0 -0.00000000000E+00 -0.00000000000E+00 -0.45593999997E+02  0.45594000000E+02  0.51100000000E-03 0. -1.
    9900012    2    1    2    0    0 -0.17256247940E+02  0.16041819967E+02 -0.36448639739E+02  0.47787292406E+02  0.20000097397E+02 0.  0.
        -12    1    1    2    0    0  0.17256247940E+02 -0.16041819967E+02  0.36448639739E+02  0.43400707594E+02  0.00000000000E+00 0.  1.
         11    1    3    3    0    0 -0.13790866224E+02  0.99314457477E-01 -0.12470424307E+02  0.18593260533E+02  0.51100000000E-03 0. -1.
        -11    1    3    3    0    0 -0.21809955896E+01  0.68101432104E+01 -0.13169298159E+02  0.14985499877E+02  0.51100000000E-03 0.  1.
         12    1    3    3    0    0 -0.12843861260E+01  0.91323622991E+01 -0.10808917272E+02  0.14208531996E+02  0.00000000000E+00 0. -1.
</event>
<event>
 7    1  0.2740409E-010  0.4778727E+02  0.7816164E-02  0.1312668E+00
        -11   -1    0    0    0    0  0.00000000000E+00  0.00000000000E+00  0.45593999997E+02  0.45594000000E+02  0.51100000000E-03 0. -1.
         11   -1    0    0    0    0 -0.00000000000E+00 -0.00000000000E+00 -0.45593999997E+02  0.45594000000E+02  0.51100000000E-03 0.  1.
    9900012    2    1    2    0    0 -0.36063491314E+02 -0.21548739181E+02  0.10894942716E+02  0.47787270250E+02  0.19999996380E+02 0.  0.
        -12    1    1    2    0    0  0.36063491314E+02  0.21548739181E+02 -0.10894942716E+02  0.43400729750E+02  0.00000000000E+00 0.  1.
         11    1    3    3    0    0 -0.85929262823E+01 -0.15236427239E+02 -0.56922041139E-01  0.17492579498E+02  0.51100000000E-03 0. -1.
        -11    1    3    3    0    0 -0.24683651767E+02 -0.55285696956E+01  0.10388534292E+02  0.27345372414E+02  0.51100000000E-03 0.  1.
         12    1    3    3    0    0 -0.27869132643E+01 -0.78374224569E+00  0.56333046549E+00  0.29493183388E+01  0.00000000000E+00 0. -1.
</event>
<event>
 7    1  0.2740409E-010  0.4778727E+02  0.7816164E-02  0.1312668E+00
        -11   -1    0    0    0    0  0.00000000000E+00  0.00000000000E+00  0.45593999997E+02  0.45594000000E+02  0.51100000000E-03 0. -1.
         11   -1    0    0    0    0 -0.00000000000E+00 -0.00000000000E+00 -0.45593999997E+02  0.45594000000E+02  0.51100000000E-03 0.  1.
    9900012    2    1    2    0    0  0.39923609857E+02  0.76215889618E+01  0.15219724349E+02  0.47787271301E+02  0.20000001172E+02 0.  0.
        -12    1    1    2    0    0 -0.39923609857E+02 -0.76215889618E+01 -0.15219724349E+02  0.43400728699E+02  0.00000000000E+00 0.  1.
         11    1    3    3    0    0  0.24586768192E+02  0.11929664464E+02  0.35677091159E+01  0.27560018377E+02  0.51100000000E-03 0. -1.
        -11    1    3    3    0    0  0.92941056101E+01 -0.57679580805E+00  0.78048704909E+01  0.12150271443E+02  0.51100000000E-03 0.  1.
         12    1    3    3    0    0  0.60427360543E+01 -0.37312796941E+01  0.38471447424E+01  0.80769814811E+01  0.00000000000E+00 0. -1.
</event>
<event>
 7    1  0.2740409E-010  0.4778727E+02  0.7816164E-02  0.1312668E+00
        -11   -1    0    0    0    0  0.00000000000E+00  0.00000000000E+00  0.45593999997E+02  0.45594000000E+02  0.51100000000E-03 0. -1.
         11   -1    0    0    0    0 -0.00000000000E+00 -0.00000000000E+00 -0.45593999997E+02  0.45594000000E+02  0.51100000000E-03 0.  1.
    9900012    2    1    2    0    0 -0.18853811939E+01 -0.42517078271E+02 -0.85068685419E+01  0.47787269368E+02  0.19999992358E+02 0.  0.
        -12    1    1    2    0    0  0.18853811939E+01  0.42517078271E+02  0.85068685419E+01  0.43400730632E+02  0.00000000000E+00 0.  1.
         11    1    3    3    0    0  0.59789627733E+01 -0.20910931579E+02 -0.58842395831E+01  0.22530852871E+02  0.51100000000E-03 0. -1.
        -11    1    3    3    0    0  0.19574708432E+01 -0.51598718531E+01 -0.26000633683E+01  0.61005163243E+01  0.51100000000E-03 0.  1.
         12    1    3    3    0    0 -0.98218148103E+01 -0.16446274839E+02 -0.22565590518E-01  0.19155900173E+02  0.00000000000E+00 0. -1.
</event>
<event>
 7    1  0.2740409E-010  0.4778727E+02  0.7816164E-02  0.1312668E+00
        -11   -1    0    0    0    0  0.00000000000E+00  0.00000000000E+00  0.45593999997E+02  0.45594000000E+02  0.51100000000E-03 0.  1.
         11   -1    0    0    0    0 -0.00000000000E+00 -0.00000000000E+00 -0.45593999997E+02  0.45594000000E+02  0.51100000000E-03 0. -1.
    9900012    2    1    2    0    0 -0.17162683945E+02  0.26437502837E+02 -0.29834945422E+02  0.47787271380E+02  0.20000001530E+02 0.  0.
        -12    1    1    2    0    0  0.17162683945E+02 -0.26437502837E+02  0.29834945422E+02  0.43400728620E+02  0.00000000000E+00 0.  1.
         11    1    3    3    0    0 -0.74151612263E+01  0.15184027742E+02 -0.15809767348E+02  0.23140614908E+02  0.51100000000E-03 0. -1.
        -11    1    3    3    0    0  0.20169857279E+01 -0.17813036323E+01 -0.15263921831E+01  0.30937271073E+01  0.51100000000E-03 0.  1.
        -12    1    3    3    0    0 -0.11764508447E+02  0.13034778727E+02 -0.12498785890E+02  0.21552929364E+02  0.00000000000E+00 0.  1.
</event>
<event>
 7    1  0.2740409E-010  0.4778727E+02  0.7816164E-02  0.1312668E+00
        -11   -1    0    0    0    0  0.00000000000E+00  0.00000000000E+00  0.45593999997E+02  0.45594000000E+02  0.51100000000E-03 0.  1.
         11   -1    0    0    0    0 -0.00000000000E+00 -0.00000000000E+00 -0.45593999997E+02  0.45594000000E+02  0.51100000000E-03 0. -1.
    9900012    2    1    2    0    0 -0.33100964593E+02 -0.25479560188E+02 -0.11778866194E+02  0.47787268057E+02  0.19999986381E+02 0.  0.
        -12    1    1    2    0    0  0.33100964593E+02  0.25479560188E+02  0.11778866194E+02  0.43400731943E+02  0.00000000000E+00 0.  1.
         11    1    3    3    0    0 -0.62379786403E+01 -0.10939188104E+02 -0.74214664256E+01  0.14616989364E+02  0.51100000000E-03 0. -1.
        -11    1    3    3    0    0 -0.11421020151E+02 -0.60919228883E+01  0.41864044381E+01  0.13604308441E+02  0.51100000000E-03 0.  1.
         12    1    3    3    0    0 -0.15441965802E+02 -0.84484491957E+01 -0.85438042066E+01  0.19565970253E+02  0.00000000000E+00 0. -1.
</event>
<event>
 7    1  0.2740409E-010  0.4778727E+02  0.7816164E-02  0.1312668E+00
        -11   -1    0    0    0    0  0.00000000000E+00  0.00000000000E+00  0.45593999997E+02  0.45594000000E+02  0.51100000000E-03 0.  1.
         11   -1    0    0    0    0 -0.00000000000E+00 -0.00000000000E+00 -0.45593999997E+02  0.45594000000E+02  0.51100000000E-03 0. -1.
    9900012    2    1    2    0    0 -0.22804859884E+02  0.15251493404E+02 -0.33629654180E+02  0.47787270448E+02  0.19999997282E+02 0.  0.
        -12    1    1    2    0    0  0.22804859884E+02 -0.15251493404E+02  0.33629654180E+02  0.43400729552E+02  0.00000000000E+00 0.  1.
         11    1    3    3    0    0 -0.14443457708E+02  0.65206247109E+00 -0.14566611327E+02  0.20523762370E+02  0.51100000000E-03 0. -1.
        -11    1    3    3    0    0 -0.14059027416E+01  0.50504373224E+01 -0.50819970906E+00  0.52670434659E+01  0.51100000000E-03 0.  1.
         12    1    3    3    0    0 -0.69554994344E+01  0.95489936103E+01 -0.18554843143E+02  0.21996464612E+02  0.00000000000E+00 0. -1.
</event>
<event>
 7    1  0.2740409E-010  0.4778727E+02  0.7816164E-02  0.1312668E+00
        -11   -1    0    0    0    0  0.00000000000E+00  0.00000000000E+00  0.45593999997E+02  0.45594000000E+02  0.51100000000E-03 0.  1.
         11   -1    0    0    0    0 -0.00000000000E+00 -0.00000000000E+00 -0.45593999997E+02  0.45594000000E+02  0.51100000000E-03 0. -1.
    9900012    2    1    2    0    0  0.25038104962E+02  0.45809080780E+01 -0.35152983560E+02  0.47787266457E+02  0.19999979082E+02 0.  0.
        -12    1    1    2    0    0 -0.25038104962E+02 -0.45809080780E+01  0.35152983560E+02  0.43400733543E+02  0.00000000000E+00 0.  1.
         11    1    3    3    0    0  0.21818016930E+02 -0.70953544215E+00 -0.23551237107E+02  0.32112148368E+02  0.51100000000E-03 0. -1.
        -11    1    3    3    0    0 -0.24248386586E+01  0.13715539029E+01 -0.84589579488E+00  0.29114502548E+01  0.51100000000E-03 0.  1.
         12    1    3    3    0    0  0.56449266906E+01  0.39188896172E+01 -0.10755850658E+02  0.12763667833E+02  0.00000000000E+00 0. -1.
</event>
<event>
 7    1  0.2740409E-010  0.4778727E+02  0.7816164E-02  0.1312668E+00
        -11   -1    0    0    0    0  0.00000000000E+00  0.00000000000E+00  0.45593999997E+02  0.45594000000E+02  0.51100000000E-03 0. -1.
         11   -1    0    0    0    0 -0.00000000000E+00 -0.00000000000E+00 -0.45593999997E+02  0.45594000000E+02  0.51100000000E-03 0.  1.
    9900012    2    1    2    0    0 -0.19508913876E+02  0.17689347833E+02  0.34498006148E+02  0.47787272178E+02  0.20000005166E+02 0.  0.
        -12    1    1    2    0    0  0.19508913876E+02 -0.17689347833E+02 -0.34498006148E+02  0.43400727822E+02  0.00000000000E+00 0.  1.
         11    1    3    3    0    0 -0.96292468900E+01  0.17098523020E+02  0.15963308514E+02  0.25296424730E+02  0.51100000000E-03 0. -1.
        -11    1    3    3    0    0 -0.39831000675E+01 -0.30657096875E+01  0.41419402796E+01  0.65130124809E+01  0.51100000000E-03 0.  1.
        -12    1    3    3    0    0 -0.58965669184E+01  0.36565344998E+01  0.14392757354E+02  0.15977834966E+02  0.00000000000E+00 0.  1.
</event>
<event>
 7    1  0.2740409E-010  0.4778728E+02  0.7816164E-02  0.1312668E+00
        -11   -1    0    0    0    0  0.00000000000E+00  0.00000000000E+00  0.45593999997E+02  0.45594000000E+02  0.51100000000E-03 0. -1.
         11   -1    0    0    0    0 -0.00000000000E+00 -0.00000000000E+00 -0.45593999997E+02  0.45594000000E+02  0.51100000000E-03 0.  1.
    9900012    2    1    2    0    0 -0.45680557448E+01  0.33493433661E+02  0.27220313361E+02  0.47787277757E+02  0.20000030607E+02 0.  0.
        -12    1    1    2    0    0  0.45680557448E+01 -0.33493433661E+02 -0.27220313361E+02  0.43400722243E+02  0.00000000000E+00 0.  1.
         11    1    3    3    0    0 -0.21101590213E+01  0.15310091560E+02  0.23538815285E+02  0.28158968375E+02  0.51100000000E-03 0. -1.
        -11    1    3    3    0    0  0.10716224419E+01  0.88635309937E+01 -0.20782569070E+00  0.89304954014E+01  0.51100000000E-03 0.  1.
         12    1    3    3    0    0 -0.35295191653E+01  0.93198111071E+01  0.38893237674E+01  0.10697813981E+02  0.00000000000E+00 0. -1.
</event>
<event>
 7    1  0.2740409E-010  0.4778727E+02  0.7816164E-02  0.1312668E+00
        -11   -1    0    0    0    0  0.00000000000E+00  0.00000000000E+00  0.45593999997E+02  0.45594000000E+02  0.51100000000E-03 0.  1.
         11   -1    0    0    0    0 -0.00000000000E+00 -0.00000000000E+00 -0.45593999997E+02  0.45594000000E+02  0.51100000000E-03 0. -1.
    9900012    2    1    2    0    0  0.62548489363E+01 -0.32270063966E+02 -0.28339777483E+02  0.47787272456E+02  0.20000006436E+02 0.  0.
        -12    1    1    2    0    0 -0.62548489363E+01  0.32270063966E+02  0.28339777483E+02  0.43400727544E+02  0.00000000000E+00 0.  1.
         11    1    3    3    0    0  0.43322080551E+01 -0.16763026093E+02 -0.20577440178E+02  0.26892343055E+02  0.51100000000E-03 0. -1.
        -11    1    3    3    0    0 -0.72691871887E+00 -0.14127732350E+02 -0.18447872127E+01  0.14266200346E+02  0.51100000000E-03 0.  1.
        -12    1    3    3    0    0  0.26495596000E+01 -0.13793055226E+01 -0.59175500921E+01  0.66287290555E+01  0.00000000000E+00 0.  1.
</event>
<event>
 7    1  0.2740409E-010  0.4778727E+02  0.7816164E-02  0.1312668E+00
        -11   -1    0    0    0    0  0.00000000000E+00  0.00000000000E+00  0.45593999997E+02  0.45594000000E+02  0.51100000000E-03 0. -1.
         11   -1    0    0    0    0 -0.00000000000E+00 -0.00000000000E+00 -0.45593999997E+02  0.45594000000E+02  0.51100000000E-03 0.  1.
    9900012    2    1    2    0    0 -0.39206851349E+02  0.16667864977E+02  0.82842223481E+01  0.47787271256E+02  0.20000000965E+02 0.  0.
        -12    1    1    2    0    0  0.39206851349E+02 -0.16667864977E+02 -0.82842223481E+01  0.43400728744E+02  0.00000000000E+00 0.  1.
         11    1    3    3    0    0 -0.12997307066E+02  0.44886129352E+01 -0.19937450642E+01  0.13894339016E+02  0.51100000000E-03 0. -1.
        -11    1    3    3    0    0 -0.12186646812E+02  0.85226554525E+01  0.12250898345E+02  0.19267447340E+02  0.51100000000E-03 0.  1.
        -12    1    3    3    0    0 -0.14022897471E+02  0.36565965898E+01 -0.19729309325E+01  0.14625484900E+02  0.00000000000E+00 0.  1.
</event>
<event>
 7    1  0.2740409E-010  0.4778726E+02  0.7816164E-02  0.1312668E+00
        -11   -1    0    0    0    0  0.00000000000E+00  0.00000000000E+00  0.45593999997E+02  0.45594000000E+02  0.51100000000E-03 0.  1.
         11   -1    0    0    0    0 -0.00000000000E+00 -0.00000000000E+00 -0.45593999997E+02  0.45594000000E+02  0.51100000000E-03 0. -1.
    9900012    2    1    2    0    0  0.22485344512E+02 -0.34209540628E+02 -0.14413207628E+02  0.47787263348E+02  0.19999964909E+02 0.  0.
        -12    1    1    2    0    0 -0.22485344512E+02  0.34209540628E+02  0.14413207628E+02  0.43400736652E+02  0.00000000000E+00 0.  1.
         11    1    3    3    0    0 -0.23570202393E+01 -0.43356373087E+01 -0.21697905286E+00  0.49396736180E+01  0.51100000000E-03 0. -1.
        -11    1    3    3    0    0  0.16568588949E+02 -0.25061296426E+02 -0.14305921246E+02  0.33275307682E+02  0.51100000000E-03 0.  1.
        -12    1    3    3    0    0  0.82737758024E+01 -0.48126068927E+01  0.10969267107E+00  0.95722820484E+01  0.00000000000E+00 0.  1.
</event>
<event>
 7    1  0.2740409E-010  0.4778727E+02  0.7816164E-02  0.1312668E+00
        -11   -1    0    0    0    0  0.00000000000E+00  0.00000000000E+00  0.45593999997E+02  0.45594000000E+02  0.51100000000E-03 0. -1.
         11   -1    0    0    0    0 -0.00000000000E+00 -0.00000000000E+00 -0.45593999997E+02  0.45594000000E+02  0.51100000000E-03 0.  1.
    9900012    2    1    2    0    0  0.16992958425E+02 -0.18767591974E+02 -0.35251103260E+02  0.47787269296E+02  0.19999992029E+02 0.  0.
        -12    1    1    2    0    0 -0.16992958425E+02  0.18767591974E+02  0.35251103260E+02  0.43400730704E+02  0.00000000000E+00 0.  1.
         11    1    3    3    0    0  0.60858906330E+01 -0.90971318168E+01 -0.19603452962E+02  0.22451976314E+02  0.51100000000E-03 0. -1.
        -11    1    3    3    0    0  0.75712192153E+01 -0.11269688111E+02 -0.57049889543E+01  0.14726714832E+02  0.51100000000E-03 0.  1.
        -12    1    3    3    0    0  0.33358485766E+01  0.15992279533E+01 -0.99426613440E+01  0.10608578150E+02  0.00000000000E+00 0.  1.
</event>
<event>
 7    1  0.2740409E-010  0.4778728E+02  0.7816164E-02  0.1312668E+00
        -11   -1    0    0    0    0  0.00000000000E+00  0.00000000000E+00  0.45593999997E+02  0.45594000000E+02  0.51100000000E-03 0. -1.
         11   -1    0    0    0    0 -0.00000000000E+00 -0.00000000000E+00 -0.45593999997E+02  0.45594000000E+02  0.51100000000E-03 0.  1.
    9900012    2    1    2    0    0 -0.22484060881E+02  0.27317776513E+02  0.25136208650E+02  0.47787275437E+02  0.20000020028E+02 0.  0.
        -12    1    1    2    0    0  0.22484060881E+02 -0.27317776513E+02 -0.25136208650E+02  0.43400724563E+02  0.00000000000E+00 0.  1.
         11    1    3    3    0    0 -0.53798598243E+01  0.28783478882E-01  0.11355039901E+02  0.12565056770E+02  0.51100000000E-03 0. -1.
        -11    1    3    3    0    0 -0.11492004035E+02  0.18185418519E+02  0.11051205034E+02  0.24184803833E+02  0.51100000000E-03 0.  1.
         12    1    3    3    0    0 -0.56121970210E+01  0.91035745144E+01  0.27299637155E+01  0.11037414835E+02  0.00000000000E+00 0. -1.
</event>
<event>
 7    1  0.2740409E-010  0.4778727E+02  0.7816164E-02  0.1312668E+00
        -11   -1    0    0    0    0  0.00000000000E+00  0.00000000000E+00  0.45593999997E+02  0.45594000000E+02  0.51100000000E-03 0.  1.
         11   -1    0    0    0    0 -0.00000000000E+00 -0.00000000000E+00 -0.45593999997E+02  0.45594000000E+02  0.51100000000E-03 0. -1.
    9900012    2    1    2    0    0  0.20808709222E+02  0.28235701332E+02 -0.25561026172E+02  0.47787271111E+02  0.20000000303E+02 0.  0.
        -12    1    1    2    0    0 -0.20808709222E+02 -0.28235701332E+02  0.25561026172E+02  0.43400728889E+02  0.00000000000E+00 0.  1.
         11    1    3    3    0    0  0.20312297111E+02  0.20124324226E+02 -0.16149873673E+02  0.32838944249E+02  0.51100000000E-03 0. -1.
        -11    1    3    3    0    0 -0.20194160012E+01 -0.93115468032E+00 -0.16473117587E+01  0.27674403907E+01  0.51100000000E-03 0.  1.
         12    1    3    3    0    0  0.25158281118E+01  0.90425317859E+01 -0.77638407399E+01  0.12180886471E+02  0.00000000000E+00 0. -1.
</event>
<event>
 7    1  0.2740409E-010  0.4778727E+02  0.7816164E-02  0.1312668E+00
        -11   -1    0    0    0    0  0.00000000000E+00  0.00000000000E+00  0.45593999997E+02  0.45594000000E+02  0.51100000000E-03 0.  1.
         11   -1    0    0    0    0 -0.00000000000E+00 -0.00000000000E+00 -0.45593999997E+02  0.45594000000E+02  0.51100000000E-03 0. -1.
    9900012    2    1    2    0    0  0.32465100272E+02  0.31082974796E+01  0.28635281040E+02  0.47787267643E+02  0.19999984492E+02 0.  0.
        -12    1    1    2    0    0 -0.32465100272E+02 -0.31082974796E+01 -0.28635281040E+02  0.43400732357E+02  0.00000000000E+00 0.  1.
         11    1    3    3    0    0  0.58403660230E+01  0.72631594073E+01  0.46213758627E+01  0.10402907045E+02  0.51100000000E-03 0. -1.
        -11    1    3    3    0    0  0.68360000339E+01 -0.34309816587E+01  0.22777458864E+01  0.79806427179E+01  0.51100000000E-03 0.  1.
         12    1    3    3    0    0  0.19788734215E+02 -0.72388026893E+00  0.21736159291E+02  0.29403717880E+02  0.00000000000E+00 0. -1.
</event>
<event>
 7    1  0.2740409E-010  0.4778727E+02  0.7816164E-02  0.1312668E+00
        -11   -1    0    0    0    0  0.00000000000E+00  0.00000000000E+00  0.45593999997E+02  0.45594000000E+02  0.51100000000E-03 0.  1.
         11   -1    0    0    0    0 -0.00000000000E+00 -0.00000000000E+00 -0.45593999997E+02  0.45594000000E+02  0.51100000000E-03 0. -1.
    9900012    2    1    2    0    0  0.17354942789E+02  0.27999398872E+02 -0.28257089923E+02  0.47787268355E+02  0.19999987736E+02 0.  0.
        -12    1    1    2    0    0 -0.17354942789E+02 -0.27999398872E+02  0.28257089923E+02  0.43400731645E+02  0.00000000000E+00 0.  1.
         11    1    3    3    0    0  0.39295333584E+01  0.45754016884E+01 -0.74498396281E+01  0.95851783380E+01  0.51100000000E-03 0. -1.
        -11    1    3    3    0    0 -0.99850110347E+00  0.49727492982E+01 -0.12265820779E+02  0.13273115673E+02  0.51100000000E-03 0.  1.
        -12    1    3    3    0    0  0.14423910534E+02  0.18451247886E+02 -0.85414295165E+01  0.24928974343E+02  0.00000000000E+00 0.  1.
</event>
<event>
 7    1  0.2740409E-010  0.4778727E+02  0.7816164E-02  0.1312668E+00
        -11   -1    0    0    0    0  0.00000000000E+00  0.00000000000E+00  0.45593999997E+02  0.45594000000E+02  0.51100000000E-03 0.  1.
         11   -1    0    0    0    0 -0.00000000000E+00 -0.00000000000E+00 -0.45593999997E+02  0.45594000000E+02  0.51100000000E-03 0. -1.
    9900012    2    1    2    0    0  0.72328263131E+01 -0.10337839713E+02 -0.41526362411E+02  0.47787268653E+02  0.19999989096E+02 0.  0.
        -12    1    1    2    0    0 -0.72328263131E+01  0.10337839713E+02  0.41526362411E+02  0.43400731347E+02  0.00000000000E+00 0.  1.
         11    1    3    3    0    0  0.10369321225E+02 -0.31250960959E+01 -0.13053273027E+02  0.16961043165E+02  0.51100000000E-03 0. -1.
        -11    1    3    3    0    0 -0.26054322423E+01 -0.84708601485E+01 -0.16100629668E+02  0.18378629568E+02  0.51100000000E-03 0.  1.
         12    1    3    3    0    0 -0.53106266961E+00  0.12581165312E+01 -0.12372459716E+02  0.12447595920E+02  0.00000000000E+00 0. -1.
</event>
<event>
 7    1  0.2740409E-010  0.4778728E+02  0.7816164E-02  0.1312668E+00
        -11   -1    0    0    0    0  0.00000000000E+00  0.00000000000E+00  0.45593999997E+02  0.45594000000E+02  0.51100000000E-03 0. -1.
         11   -1    0    0    0    0 -0.00000000000E+00 -0.00000000000E+00 -0.45593999997E+02  0.45594000000E+02  0.51100000000E-03 0.  1.
    9900012    2    1    2    0    0  0.22380239578E+02 -0.17577385380E+02  0.32768622291E+02  0.47787283333E+02  0.20000056028E+02 0.  0.
        -12    1    1    2    0    0 -0.22380239578E+02  0.17577385380E+02 -0.32768622291E+02  0.43400716667E+02  0.00000000000E+00 0.  1.
         11    1    3    3    0    0  0.16328209343E+02 -0.17027853240E+02  0.25510288638E+02  0.34746698159E+02  0.51100000000E-03 0. -1.
        -11    1    3    3    0    0  0.11095825518E+01  0.36967279506E+01  0.45959309122E+01  0.60016291280E+01  0.51100000000E-03 0.  1.
        -12    1    3    3    0    0  0.49424476833E+01 -0.42462600903E+01  0.26624027411E+01  0.70389560456E+01  0.00000000000E+00 0.  1.
</event>
<event>
 7    1  0.2740409E-010  0.4778727E+02  0.7816164E-02  0.1312668E+00
        -11   -1    0    0    0    0  0.00000000000E+00  0.00000000000E+00  0.45593999997E+02  0.45594000000E+02  0.51100000000E-03 0. -1.
         11   -1    0    0    0    0 -0.00000000000E+00 -0.00000000000E+00 -0.45593999997E+02  0.45594000000E+02  0.51100000000E-03 0.  1.
    9900012    2    1    2    0    0  0.16769573157E+02  0.39906038832E+02  0.31484481501E+01  0.47787271378E+02  0.20000001523E+02 0.  0.
        -12    1    1    2    0    0 -0.16769573157E+02 -0.39906038832E+02 -0.31484481501E+01  0.43400728622E+02  0.00000000000E+00 0.  1.
         11    1    3    3    0    0  0.90972070508E+01  0.29442840126E+02  0.99130552589E+01  0.32371417572E+02  0.51100000000E-03 0. -1.
        -11    1    3    3    0    0  0.52950812940E+01  0.36806137447E+01 -0.45606768059E+01  0.78983907625E+01  0.51100000000E-03 0.  1.
         12    1    3    3    0    0  0.23772848126E+01  0.67825849614E+01 -0.22039303028E+01  0.75174630440E+01  0.00000000000E+00 0. -1.
</event>
<event>
 7    1  0.2740409E-010  0.4778727E+02  0.7816164E-02  0.1312668E+00
        -11   -1    0    0    0    0  0.00000000000E+00  0.00000000000E+00  0.45593999997E+02  0.45594000000E+02  0.51100000000E-03 0.  1.
         11   -1    0    0    0    0 -0.00000000000E+00 -0.00000000000E+00 -0.45593999997E+02  0.45594000000E+02  0.51100000000E-03 0. -1.
    9900012    2    1    2    0    0 -0.35220770896E+02  0.96259275257E+01 -0.23461927303E+02  0.47787271711E+02  0.20000003040E+02 0.  0.
        -12    1    1    2    0    0  0.35220770896E+02 -0.96259275257E+01  0.23461927303E+02  0.43400728289E+02  0.00000000000E+00 0.  1.
         11    1    3    3    0    0 -0.10324480576E+02 -0.60097089537E+01 -0.79202210788E+01  0.14333227239E+02  0.51100000000E-03 0. -1.
        -11    1    3    3    0    0 -0.13795246253E+02  0.98843642275E+01 -0.10607353175E+02  0.20013131114E+02  0.51100000000E-03 0.  1.
         12    1    3    3    0    0 -0.11101044067E+02  0.57512722519E+01 -0.49343530492E+01  0.13440913358E+02  0.00000000000E+00 0. -1.
</event>
<event>
 7    1  0.2740409E-010  0.4778727E+02  0.7816164E-02  0.1312668E+00
        -11   -1    0    0    0    0  0.00000000000E+00  0.00000000000E+00  0.45593999997E+02  0.45594000000E+02  0.51100000000E-03 0.  1.
         11   -1    0    0    0    0 -0.00000000000E+00 -0.00000000000E+00 -0.45593999997E+02  0.45594000000E+02  0.51100000000E-03 0. -1.
    9900012    2    1    2    0    0 -0.21070988821E+02 -0.36813213749E+02 -0.91882759508E+01  0.47787266235E+02  0.19999978072E+02 0.  0.
        -12    1    1    2    0    0  0.21070988821E+02  0.36813213749E+02  0.91882759508E+01  0.43400733765E+02  0.00000000000E+00 0.  1.
         11    1    3    3    0    0 -0.18599982626E+02 -0.13851488498E+02 -0.24038648968E+01  0.23315266544E+02  0.51100000000E-03 0. -1.
        -11    1    3    3    0    0 -0.22483904998E+01 -0.14112155993E+02 -0.20600817092E+01  0.14437871849E+02  0.51100000000E-03 0.  1.
         12    1    3    3    0    0 -0.22261569469E+00 -0.88495692579E+01 -0.47243293448E+01  0.10034127842E+02  0.00000000000E+00 0. -1.
</event>
<event>
 7    1  0.2740409E-010  0.4778726E+02  0.7816164E-02  0.1312668E+00
        -11   -1    0    0    0    0  0.00000000000E+00  0.00000000000E+00  0.45593999997E+02  0.45594000000E+02  0.51100000000E-03 0.  1.
         11   -1    0    0    0    0 -0.00000000000E+00 -0.00000000000E+00 -0.45593999997E+02  0.45594000000E+02  0.51100000000E-03 0. -1.
    9900012    2    1    2    0    0 -0.38311092145E+02 -0.19473466402E+02 -0.60554226741E+01  0.47787264767E+02  0.19999971378E+02 0.  0.
        -12    1    1    2    0    0  0.38311092145E+02  0.19473466402E+02  0.60554226741E+01  0.43400735233E+02  0.00000000000E+00 0.  1.
         11    1    3    3    0    0 -0.15645415879E+02 -0.12861541041E+02 -0.11025072597E+02  0.23059716000E+02  0.51100000000E-03 0. -1.
        -11    1    3    3    0    0 -0.88122161290E+01 -0.18397755082E+01  0.45081074021E+01  0.10067917343E+02  0.51100000000E-03 0.  1.
         12    1    3    3    0    0 -0.13853460136E+02 -0.47721498527E+01  0.46154252059E+00  0.14659631423E+02  0.00000000000E+00 0. -1.
</event>
<event>
 7    1  0.2740409E-010  0.4778731E+02  0.7816164E-02  0.1312668E+00
        -11   -1    0    0    0    0  0.00000000000E+00  0.00000000000E+00  0.45593999997E+02  0.45594000000E+02  0.51100000000E-03 0. -1.
         11   -1    0    0    0    0 -0.00000000000E+00 -0.00000000000E+00 -0.45593999997E+02  0.45594000000E+02  0.51100000000E-03 0.  1.
    9900012    2    1    2    0    0  0.39856688602E+02 -0.13096001514E+02 -0.11115713253E+02  0.47787309187E+02  0.20000173906E+02 0.  0.
        -12    1    1    2    0    0 -0.39856688602E+02  0.13096001514E+02  0.11115713253E+02  0.43400690813E+02  0.00000000000E+00 0.  1.
         11    1    3    3    0    0  0.32031335375E+02 -0.16428947571E+02 -0.12116595964E+02  0.37983268188E+02  0.51100000000E-03 0. -1.
        -11    1    3    3    0    0  0.58134868249E+01  0.14846247302E+01  0.27076503859E+01  0.65827130065E+01  0.51100000000E-03 0.  1.
         12    1    3    3    0    0  0.20118664016E+01  0.18483213266E+01 -0.17067676742E+01  0.32213279929E+01  0.00000000000E+00 0. -1.
</event>
<event>
 7    1  0.2740409E-010  0.4778727E+02  0.7816164E-02  0.1312668E+00
        -11   -1    0    0    0    0  0.00000000000E+00  0.00000000000E+00  0.45593999997E+02  0.45594000000E+02  0.51100000000E-03 0.  1.
         11   -1    0    0    0    0 -0.00000000000E+00 -0.00000000000E+00 -0.45593999997E+02  0.45594000000E+02  0.51100000000E-03 0. -1.
    9900012    2    1    2    0    0 -0.16796419464E+02  0.30632126429E+02  0.25752212086E+02  0.47787270701E+02  0.19999998433E+02 0.  0.
        -12    1    1    2    0    0  0.16796419464E+02 -0.30632126429E+02 -0.25752212086E+02  0.43400729299E+02  0.00000000000E+00 0.  1.
         11    1    3    3    0    0 -0.10835879253E+02  0.25166689020E+02  0.21030088323E+02  0.34540456432E+02  0.51100000000E-03 0. -1.
        -11    1    3    3    0    0 -0.72680511098E+01  0.89311882760E+00  0.42528687936E+01  0.84681238425E+01  0.51100000000E-03 0.  1.
         12    1    3    3    0    0  0.13075108988E+01  0.45723185818E+01  0.46925496961E+00  0.47786904263E+01  0.00000000000E+00 0. -1.
</event>
<event>
 7    1  0.2740409E-010  0.4778726E+02  0.7816164E-02  0.1312668E+00
        -11   -1    0    0    0    0  0.00000000000E+00  0.00000000000E+00  0.45593999997E+02  0.45594000000E+02  0.51100000000E-03 0.  1.
         11   -1    0    0    0    0 -0.00000000000E+00 -0.00000000000E+00 -0.45593999997E+02  0.45594000000E+02  0.51100000000E-03 0. -1.
    9900012    2    1    2    0    0  0.41640735659E+02 -0.49425247197E+00 -0.12224107926E+02  0.47787263067E+02  0.19999963629E+02 0.  0.
        -12    1    1    2    0    0 -0.41640735659E+02  0.49425247197E+00  0.12224107926E+02  0.43400736933E+02  0.00000000000E+00 0.  1.
         11    1    3    3    0    0  0.24457080614E+02  0.24199349971E+01 -0.14827233084E+02  0.28702817261E+02  0.51100000000E-03 0. -1.
        -11    1    3    3    0    0  0.81046667157E+01 -0.45172231891E+01  0.32775471564E+01  0.98403883834E+01  0.51100000000E-03 0.  1.
         12    1    3    3    0    0  0.90789883296E+01  0.16030357200E+01 -0.67442199917E+00  0.92440574231E+01  0.00000000000E+00 0. -1.
</event>
<event>
 7    1  0.2740409E-010  0.4778732E+02  0.7816164E-02  0.1312668E+00
        -11   -1    0    0    0    0  0.00000000000E+00  0.00000000000E+00  0.45593999997E+02  0.45594000000E+02  0.51100000000E-03 0. -1.
         11   -1    0    0    0    0 -0.00000000000E+00 -0.00000000000E+00 -0.45593999997E+02  0.45594000000E+02  0.51100000000E-03 0.  1.
    9900012    2    1    2    0    0  0.26127945718E+02  0.31496349241E+02  0.14454397810E+02  0.47787318219E+02  0.20000215087E+02 0.  0.
        -12    1    1    2    0    0 -0.26127945718E+02 -0.31496349241E+02 -0.14454397810E+02  0.43400681781E+02  0.00000000000E+00 0.  1.
         11    1    3    3    0    0 -0.30945568082E+01  0.39769093820E+01  0.17208225593E+01  0.53247836213E+01  0.51100000000E-03 0. -1.
        -11    1    3    3    0    0  0.23883244449E+02  0.24649615244E+02  0.11986410833E+02  0.36355012612E+02  0.51100000000E-03 0.  1.
         12    1    3    3    0    0  0.53392580776E+01  0.28698246151E+01  0.74716441765E+00  0.61075219858E+01  0.00000000000E+00 0. -1.
</event>
<event>
 7    1  0.2740409E-010  0.4778728E+02  0.7816164E-02  0.1312668E+00
        -11   -1    0    0    0    0  0.00000000000E+00  0.00000000000E+00  0.45593999997E+02  0.45594000000E+02  0.51100000000E-03 0. -1.
         11   -1    0    0    0    0 -0.00000000000E+00 -0.00000000000E+00 -0.45593999997E+02  0.45594000000E+02  0.51100000000E-03 0.  1.
    9900012    2    1    2    0    0  0.24605573780E+02 -0.32849387671E+02  0.14110505175E+02  0.47787275493E+02  0.20000020285E+02 0.  0.
        -12    1    1    2    0    0 -0.24605573780E+02  0.32849387671E+02 -0.14110505175E+02  0.43400724507E+02  0.00000000000E+00 0.  1.
         11    1    3    3    0    0  0.17436326425E+02 -0.18785568127E+02  0.96786706412E+00  0.25648778060E+02  0.51100000000E-03 0. -1.
        -11    1    3    3    0    0  0.68191671509E+01 -0.15180354176E+02  0.12385885260E+02  0.20744983670E+02  0.51100000000E-03 0.  1.
        -12    1    3    3    0    0  0.35008020420E+00  0.11165346316E+01  0.75675285009E+00  0.13935137635E+01  0.00000000000E+00 0.  1.
</event>
<event>
 7    1  0.2740409E-010  0.4778727E+02  0.7816164E-02  0.1312668E+00
        -11   -1    0    0    0    0  0.00000000000E+00  0.00000000000E+00  0.45593999997E+02  0.45594000000E+02  0.51100000000E-03 0. -1.
         11   -1    0    0    0    0 -0.00000000000E+00 -0.00000000000E+00 -0.45593999997E+02  0.45594000000E+02  0.51100000000E-03 0.  1.
    9900012    2    1    2    0    0  0.25505010269E+02  0.34328097463E+02  0.73959245382E+01  0.47787268162E+02  0.19999986860E+02 0.  0.
        -12    1    1    2    0    0 -0.25505010269E+02 -0.34328097463E+02 -0.73959245382E+01  0.43400731838E+02  0.00000000000E+00 0.  1.
         11    1    3    3    0    0  0.17295062554E+01  0.77620624336E+01 -0.10551000302E+01  0.80220970728E+01  0.51100000000E-03 0.  1.
        -11    1    3    3    0    0  0.20824721857E+02  0.19848047086E+02  0.26158310017E+00  0.28769470616E+02  0.51100000000E-03 0. -1.
        -12    1    3    3    0    0  0.29507821568E+01  0.67179879435E+01  0.81894414682E+01  0.10995700474E+02  0.00000000000E+00 0.  1.
</event>
<event>
 7    1  0.2740409E-010  0.4778728E+02  0.7816164E-02  0.1312668E+00
        -11   -1    0    0    0    0  0.00000000000E+00  0.00000000000E+00  0.45593999997E+02  0.45594000000E+02  0.51100000000E-03 0.  1.
         11   -1    0    0    0    0 -0.00000000000E+00 -0.00000000000E+00 -0.45593999997E+02  0.45594000000E+02  0.51100000000E-03 0. -1.
    9900012    2    1    2    0    0 -0.23106896778E+02  0.22851063401E+01 -0.36667048283E+02  0.47787276279E+02  0.20000023867E+02 0.  0.
        -12    1    1    2    0    0  0.23106896778E+02 -0.22851063401E+01  0.36667048283E+02  0.43400723721E+02  0.00000000000E+00 0.  1.
         11    1    3    3    0    0 -0.10678312052E+02 -0.78240588594E+01 -0.22315103537E+02  0.25946215359E+02  0.51100000000E-03 0. -1.
        -11    1    3    3    0    0 -0.70051917606E+01  0.47060898500E+01 -0.52133075500E+01  0.99196052921E+01  0.51100000000E-03 0.  1.
         12    1    3    3    0    0 -0.54233929656E+01  0.54030753495E+01 -0.91386371965E+01  0.11921455628E+02  0.00000000000E+00 0. -1.
</event>
<event>
 7    1  0.2740409E-010  0.4778727E+02  0.7816164E-02  0.1312668E+00
        -11   -1    0    0    0    0  0.00000000000E+00  0.00000000000E+00  0.45593999997E+02  0.45594000000E+02  0.51100000000E-03 0.  1.
         11   -1    0    0    0    0 -0.00000000000E+00 -0.00000000000E+00 -0.45593999997E+02  0.45594000000E+02  0.51100000000E-03 0. -1.
    9900012    2    1    2    0    0 -0.15219328764E+02 -0.27816281123E+02 -0.29635283503E+02  0.47787268534E+02  0.19999988552E+02 0.  0.
        -12    1    1    2    0    0  0.15219328764E+02  0.27816281123E+02  0.29635283503E+02  0.43400731466E+02  0.00000000000E+00 0.  1.
         11    1    3    3    0    0 -0.21174987702E+01 -0.10839583867E+02 -0.13425061981E+02  0.17384264980E+02  0.51100000000E-03 0. -1.
        -11    1    3    3    0    0 -0.12965054416E+02 -0.18219423730E+02 -0.10768224130E+02  0.24819240283E+02  0.51100000000E-03 0.  1.
        -12    1    3    3    0    0 -0.13677557835E+00  0.12427264742E+01 -0.54419973916E+01  0.55837632702E+01  0.00000000000E+00 0.  1.
</event>
<event>
 7    1  0.2740409E-010  0.4778727E+02  0.7816164E-02  0.1312668E+00
        -11   -1    0    0    0    0  0.00000000000E+00  0.00000000000E+00  0.45593999997E+02  0.45594000000E+02  0.51100000000E-03 0.  1.
         11   -1    0    0    0    0 -0.00000000000E+00 -0.00000000000E+00 -0.45593999997E+02  0.45594000000E+02  0.51100000000E-03 0. -1.
    9900012    2    1    2    0    0 -0.31622312344E+02 -0.72746777822E+01 -0.28822418172E+02  0.47787270005E+02  0.19999995261E+02 0.  0.
        -12    1    1    2    0    0  0.31622312344E+02  0.72746777822E+01  0.28822418172E+02  0.43400729995E+02  0.00000000000E+00 0.  1.
         11    1    3    3    0    0 -0.18639617846E+02 -0.19893272339E+01 -0.70418420209E+01  0.20024492892E+02  0.51100000000E-03 0. -1.
        -11    1    3    3    0    0 -0.20249628659E+00  0.19131630970E+01 -0.56099599660E+01  0.59306701866E+01  0.51100000000E-03 0.  1.
         12    1    3    3    0    0 -0.12780198212E+02 -0.71985136452E+01 -0.16170616185E+02  0.21832106926E+02  0.00000000000E+00 0. -1.
</event>
<event>
 7    1  0.2740409E-010  0.4778727E+02  0.7816164E-02  0.1312668E+00
        -11   -1    0    0    0    0  0.00000000000E+00  0.00000000000E+00  0.45593999997E+02  0.45594000000E+02  0.51100000000E-03 0.  1.
         11   -1    0    0    0    0 -0.00000000000E+00 -0.00000000000E+00 -0.45593999997E+02  0.45594000000E+02  0.51100000000E-03 0. -1.
    9900012    2    1    2    0    0 -0.36519875642E+02  0.19820235800E+02 -0.12533175948E+02  0.47787267709E+02  0.19999984790E+02 0.  0.
        -12    1    1    2    0    0  0.36519875642E+02 -0.19820235800E+02  0.12533175948E+02  0.43400732291E+02  0.00000000000E+00 0.  1.
         11    1    3    3    0    0 -0.16033090523E+02  0.71475818089E+01 -0.14039332423E+02  0.22477783978E+02  0.51100000000E-03 0. -1.
        -11    1    3    3    0    0 -0.11390173659E+02  0.44486271809E+01  0.38593487962E+01  0.12822671842E+02  0.51100000000E-03 0.  1.
         12    1    3    3    0    0 -0.90966114598E+01  0.82240268098E+01 -0.23531923211E+01  0.12486811888E+02  0.00000000000E+00 0. -1.
</event>
<event>
 7    1  0.2740409E-010  0.4778727E+02  0.7816164E-02  0.1312668E+00
        -11   -1    0    0    0    0  0.00000000000E+00  0.00000000000E+00  0.45593999997E+02  0.45594000000E+02  0.51100000000E-03 0. -1.
         11   -1    0    0    0    0 -0.00000000000E+00 -0.00000000000E+00 -0.45593999997E+02  0.45594000000E+02  0.51100000000E-03 0.  1.
    9900012    2    1    2    0    0  0.33330901937E+02 -0.77645218803E+01  0.26690567382E+02  0.47787271767E+02  0.20000003295E+02 0.  0.
        -12    1    1    2    0    0 -0.33330901937E+02  0.77645218803E+01 -0.26690567382E+02  0.43400728233E+02  0.00000000000E+00 0.  1.
         11    1    3    3    0    0  0.21412389434E+01  0.15445183106E+01  0.28970685837E+01  0.39196234084E+01  0.51100000000E-03 0. -1.
        -11    1    3    3    0    0 -0.12793644394E+01  0.14254563738E+01 -0.42624700224E+00  0.19622400491E+01  0.51100000000E-03 0.  1.
        -12    1    3    3    0    0  0.32469027433E+02 -0.10734496565E+02  0.24219745801E+02  0.41905408310E+02  0.00000000000E+00 0.  1.
</event>
<event>
 7    1  0.2740409E-010  0.4778727E+02  0.7816164E-02  0.1312668E+00
        -11   -1    0    0    0    0  0.00000000000E+00  0.00000000000E+00  0.45593999997E+02  0.45594000000E+02  0.51100000000E-03 0. -1.
         11   -1    0    0    0    0 -0.00000000000E+00 -0.00000000000E+00 -0.45593999997E+02  0.45594000000E+02  0.51100000000E-03 0.  1.
    9900012    2    1    2    0    0  0.83679611806E+01  0.23036187645E+02  0.35818078790E+02  0.47787268626E+02  0.19999988975E+02 0.  0.
        -12    1    1    2    0    0 -0.83679611806E+01 -0.23036187645E+02 -0.35818078790E+02  0.43400731374E+02  0.00000000000E+00 0.  1.
         11    1    3    3    0    0  0.70792512072E+01  0.25033121951E+01  0.14048640662E+02  0.15929427934E+02  0.51100000000E-03 0. -1.
        -11    1    3    3    0    0  0.26210975808E+01  0.19842883466E+02  0.22562379003E+02  0.30160754688E+02  0.51100000000E-03 0.  1.
        -12    1    3    3    0    0 -0.13323876074E+01  0.68999198349E+00 -0.79294087536E+00  0.16970860041E+01  0.00000000000E+00 0.  1.
</event>
<event>
 7    1  0.2740409E-010  0.4778727E+02  0.7816164E-02  0.1312668E+00
        -11   -1    0    0    0    0  0.00000000000E+00  0.00000000000E+00  0.45593999997E+02  0.45594000000E+02  0.51100000000E-03 0. -1.
         11   -1    0    0    0    0 -0.00000000000E+00 -0.00000000000E+00 -0.45593999997E+02  0.45594000000E+02  0.51100000000E-03 0.  1.
    9900012    2    1    2    0    0 -0.65820408434E+01 -0.21337736078E+02  0.37215599795E+02  0.47787272924E+02  0.20000008569E+02 0.  0.
        -12    1    1    2    0    0  0.65820408434E+01  0.21337736078E+02 -0.37215599795E+02  0.43400727076E+02  0.00000000000E+00 0.  1.
         11    1    3    3    0    0 -0.19695069992E+01 -0.17791086082E+02  0.23088556317E+02  0.29214433673E+02  0.51100000000E-03 0. -1.
        -11    1    3    3    0    0  0.13159869606E+01  0.28629892008E+01  0.52405141668E+01  0.61148604104E+01  0.51100000000E-03 0.  1.
        -12    1    3    3    0    0 -0.59285208048E+01 -0.64096391973E+01  0.88865293119E+01  0.12457978840E+02  0.00000000000E+00 0.  1.
</event>
<event>
 7    1  0.2740409E-010  0.4778727E+02  0.7816164E-02  0.1312668E+00
        -11   -1    0    0    0    0  0.00000000000E+00  0.00000000000E+00  0.45593999997E+02  0.45594000000E+02  0.51100000000E-03 0.  1.
         11   -1    0    0    0    0 -0.00000000000E+00 -0.00000000000E+00 -0.45593999997E+02  0.45594000000E+02  0.51100000000E-03 0. -1.
    9900012    2    1    2    0    0  0.13751542152E+02  0.52299618965E+01 -0.40830945213E+02  0.47787268440E+02  0.19999988123E+02 0.  0.
        -12    1    1    2    0    0 -0.13751542152E+02 -0.52299618965E+01  0.40830945213E+02  0.43400731560E+02  0.00000000000E+00 0.  1.
         11    1    3    3    0    0  0.45850726561E+01 -0.65192414917E+01 -0.22893409225E+02  0.24241113570E+02  0.51100000000E-03 0. -1.
        -11    1    3    3    0    0  0.72958097889E+01  0.97666510596E+01 -0.16340547507E+02  0.20387000919E+02  0.51100000000E-03 0.  1.
         12    1    3    3    0    0  0.18706597068E+01  0.19825523286E+01 -0.15969884808E+01  0.31591539504E+01  0.00000000000E+00 0. -1.
</event>
<event>
 7    1  0.2740409E-010  0.4778728E+02  0.7816164E-02  0.1312668E+00
        -11   -1    0    0    0    0  0.00000000000E+00  0.00000000000E+00  0.45593999997E+02  0.45594000000E+02  0.51100000000E-03 0.  1.
         11   -1    0    0    0    0 -0.00000000000E+00 -0.00000000000E+00 -0.45593999997E+02  0.45594000000E+02  0.51100000000E-03 0. -1.
    9900012    2    1    2    0    0  0.85020044115E+01 -0.14974993438E+02 -0.39838278265E+02  0.47787275091E+02  0.20000018451E+02 0.  0.
        -12    1    1    2    0    0 -0.85020044115E+01  0.14974993438E+02  0.39838278265E+02  0.43400724909E+02  0.00000000000E+00 0.  1.
         11    1    3    3    0    0  0.86224097085E+01 -0.87008254317E+01 -0.34952283767E+02  0.37036636634E+02  0.51100000000E-03 0. -1.
        -11    1    3    3    0    0  0.19738756666E+00  0.14082449933E+01  0.32949542795E+00  0.14596860316E+01  0.51100000000E-03 0.  1.
         12    1    3    3    0    0 -0.31779286366E+00 -0.76824129997E+01 -0.52154899260E+01  0.92909524254E+01  0.00000000000E+00 0. -1.
</event>
<event>
 7    1  0.2740409E-010  0.4778727E+02  0.7816164E-02  0.1312668E+00
        -11   -1    0    0    0    0  0.00000000000E+00  0.00000000000E+00  0.45593999997E+02  0.45594000000E+02  0.51100000000E-03 0.  1.
         11   -1    0    0    0    0 -0.00000000000E+00 -0.00000000000E+00 -0.45593999997E+02  0.45594000000E+02  0.51100000000E-03 0. -1.
    9900012    2    1    2    0    0 -0.10485773098E+02  0.23401062768E+02 -0.35015165911E+02  0.47787273970E+02  0.20000013339E+02 0.  0.
        -12    1    1    2    0    0  0.10485773098E+02 -0.23401062768E+02  0.35015165911E+02  0.43400726030E+02  0.00000000000E+00 0.  1.
         11    1    3    3    0    0  0.39010158278E+00  0.13757157750E+02 -0.11675236350E+02  0.18047789690E+02  0.51100000000E-03 0.  1.
        -11    1    3    3    0    0 -0.29644501226E+01  0.15051914355E+01 -0.15722104345E+02  0.16069789391E+02  0.51100000000E-03 0. -1.
         12    1    3    3    0    0 -0.79114245586E+01  0.81387135825E+01 -0.76178252161E+01  0.13669694889E+02  0.00000000000E+00 0. -1.
</event>
<event>
 7    1  0.2740409E-010  0.4778727E+02  0.7816164E-02  0.1312668E+00
        -11   -1    0    0    0    0  0.00000000000E+00  0.00000000000E+00  0.45593999997E+02  0.45594000000E+02  0.51100000000E-03 0.  1.
         11   -1    0    0    0    0 -0.00000000000E+00 -0.00000000000E+00 -0.45593999997E+02  0.45594000000E+02  0.51100000000E-03 0. -1.
    9900012    2    1    2    0    0 -0.10062265889E+02 -0.20508714416E+02 -0.36902126560E+02  0.47787268365E+02  0.19999987783E+02 0.  0.
        -12    1    1    2    0    0  0.10062265889E+02  0.20508714416E+02  0.36902126560E+02  0.43400731635E+02  0.00000000000E+00 0.  1.
         11    1    3    3    0    0 -0.38624151651E+01 -0.21798631346E+02 -0.21245995083E+02  0.30683723484E+02  0.51100000000E-03 0. -1.
        -11    1    3    3    0    0 -0.49877988218E+01  0.19025268437E+01 -0.13854515431E+02  0.14847401913E+02  0.51100000000E-03 0.  1.
         12    1    3    3    0    0 -0.12120519017E+01 -0.61260991330E+00 -0.18016160460E+01  0.22561429687E+01  0.00000000000E+00 0. -1.
</event>
<event>
 7    1  0.2740409E-010  0.4778728E+02  0.7816164E-02  0.1312668E+00
        -11   -1    0    0    0    0  0.00000000000E+00  0.00000000000E+00  0.45593999997E+02  0.45594000000E+02  0.51100000000E-03 0. -1.
         11   -1    0    0    0    0 -0.00000000000E+00 -0.00000000000E+00 -0.45593999997E+02  0.45594000000E+02  0.51100000000E-03 0.  1.
    9900012    2    1    2    0    0 -0.27792286409E+02 -0.31901489589E+02  0.96698619128E+01  0.47787280521E+02  0.20000043207E+02 0.  0.
        -12    1    1    2    0    0  0.27792286409E+02  0.31901489589E+02 -0.96698619128E+01  0.43400719479E+02  0.00000000000E+00 0.  1.
         11    1    3    3    0    0 -0.61371585568E+01 -0.19436283864E+02  0.96788718117E+01  0.22563563668E+02  0.51100000000E-03 0. -1.
        -11    1    3    3    0    0 -0.12610193732E+02 -0.73562902094E+01 -0.17044662973E+01  0.14698203877E+02  0.51100000000E-03 0.  1.
         12    1    3    3    0    0 -0.90449341209E+01 -0.51089155158E+01  0.16954563984E+01  0.10525512976E+02  0.00000000000E+00 0. -1.
</event>
<event>
 7    1  0.2740409E-010  0.4778727E+02  0.7816164E-02  0.1312668E+00
        -11   -1    0    0    0    0  0.00000000000E+00  0.00000000000E+00  0.45593999997E+02  0.45594000000E+02  0.51100000000E-03 0.  1.
         11   -1    0    0    0    0 -0.00000000000E+00 -0.00000000000E+00 -0.45593999997E+02  0.45594000000E+02  0.51100000000E-03 0. -1.
    9900012    2    1    2    0    0  0.39828964141E+02  0.15995189265E+02 -0.64366773758E+01  0.47787270976E+02  0.19999999688E+02 0.  0.
        -12    1    1    2    0    0 -0.39828964141E+02 -0.15995189265E+02  0.64366773758E+01  0.43400729024E+02  0.00000000000E+00 0.  1.
         11    1    3    3    0    0  0.13609457582E+01 -0.73774115330E+00 -0.15796949787E+01  0.22117576388E+01  0.51100000000E-03 0. -1.
        -11    1    3    3    0    0  0.14344787228E+01  0.67940266836E+01 -0.16801167424E+00  0.69458445108E+01  0.51100000000E-03 0.  1.
        -12    1    3    3    0    0  0.37033539660E+02  0.99389037345E+01 -0.46889707229E+01  0.38629668826E+02  0.00000000000E+00 0.  1.
</event>
<event>
 7    1  0.2740409E-010  0.4778726E+02  0.7816164E-02  0.1312668E+00
        -11   -1    0    0    0    0  0.00000000000E+00  0.00000000000E+00  0.45593999997E+02  0.45594000000E+02  0.51100000000E-03 0.  1.
         11   -1    0    0    0    0 -0.00000000000E+00 -0.00000000000E+00 -0.45593999997E+02  0.45594000000E+02  0.51100000000E-03 0. -1.
    9900012    2    1    2    0    0 -0.18721755265E+02 -0.92176546589E+01 -0.38054627906E+02  0.47787262878E+02  0.19999962768E+02 0.  0.
        -12    1    1    2    0    0  0.18721755265E+02  0.92176546589E+01  0.38054627906E+02  0.43400737122E+02  0.00000000000E+00 0.  1.
         11    1    3    3    0    0 -0.15788060653E+02 -0.11959536595E+02 -0.17109634786E+02  0.26173134652E+02  0.51100000000E-03 0. -1.
        -11    1    3    3    0    0  0.21494849314E+00  0.19766251429E+01 -0.59634848942E+01  0.62862072950E+01  0.51100000000E-03 0.  1.
         12    1    3    3    0    0 -0.31486431055E+01  0.76525679272E+00 -0.14981508226E+02  0.15327920932E+02  0.00000000000E+00 0. -1.
</event>
<event>
 7    1  0.2740409E-010  0.4778727E+02  0.7816164E-02  0.1312668E+00
        -11   -1    0    0    0    0  0.00000000000E+00  0.00000000000E+00  0.45593999997E+02  0.45594000000E+02  0.51100000000E-03 0.  1.
         11   -1    0    0    0    0 -0.00000000000E+00 -0.00000000000E+00 -0.45593999997E+02  0.45594000000E+02  0.51100000000E-03 0. -1.
    9900012    2    1    2    0    0  0.18441579592E+02 -0.12035778753E+02 -0.37398815780E+02  0.47787271322E+02  0.20000001268E+02 0.  0.
        -12    1    1    2    0    0 -0.18441579592E+02  0.12035778753E+02  0.37398815780E+02  0.43400728678E+02  0.00000000000E+00 0.  1.
         11    1    3    3    0    0 -0.29424001228E+01 -0.53557680861E+01 -0.12686650740E+02  0.14081657485E+02  0.51100000000E-03 0. -1.
        -11    1    3    3    0    0  0.15353808308E+02 -0.38124269366E+01 -0.14235572218E+02  0.21282047489E+02  0.51100000000E-03 0.  1.
         12    1    3    3    0    0  0.60301714063E+01 -0.28675837301E+01 -0.10476592822E+02  0.12423566348E+02  0.00000000000E+00 0. -1.
</event>
<event>
 7    1  0.2740409E-010  0.4778727E+02  0.7816164E-02  0.1312668E+00
        -11   -1    0    0    0    0  0.00000000000E+00  0.00000000000E+00  0.45593999997E+02  0.45594000000E+02  0.51100000000E-03 0.  1.
         11   -1    0    0    0    0 -0.00000000000E+00 -0.00000000000E+00 -0.45593999997E+02  0.45594000000E+02  0.51100000000E-03 0. -1.
    9900012    2    1    2    0    0  0.41867329728E+02 -0.17990822444E+01 -0.11292183848E+02  0.47787269458E+02  0.19999992769E+02 0.  0.
        -12    1    1    2    0    0 -0.41867329728E+02  0.17990822444E+01  0.11292183848E+02  0.43400730542E+02  0.00000000000E+00 0.  1.
         11    1    3    3    0    0  0.86327942443E+01  0.40411880778E+01  0.16503815368E+01  0.96736806348E+01  0.51100000000E-03 0. -1.
        -11    1    3    3    0    0  0.17237162205E+02 -0.85197526630E+01 -0.41763620802E+01  0.19676075493E+02  0.51100000000E-03 0.  1.
         12    1    3    3    0    0  0.15997373279E+02  0.26794823407E+01 -0.87662033049E+01  0.18437513330E+02  0.00000000000E+00 0. -1.
</event>
<event>
 7    1  0.2740409E-010  0.4778727E+02  0.7816164E-02  0.1312668E+00
        -11   -1    0    0    0    0  0.00000000000E+00  0.00000000000E+00  0.45593999997E+02  0.45594000000E+02  0.51100000000E-03 0. -1.
         11   -1    0    0    0    0 -0.00000000000E+00 -0.00000000000E+00 -0.45593999997E+02  0.45594000000E+02  0.51100000000E-03 0.  1.
    9900012    2    1    2    0    0 -0.30074769162E+02  0.28268503265E+02 -0.13417267697E+02  0.47787273169E+02  0.20000009687E+02 0.  0.
        -12    1    1    2    0    0  0.30074769162E+02 -0.28268503265E+02  0.13417267697E+02  0.43400726831E+02  0.00000000000E+00 0.  1.
         11    1    3    3    0    0 -0.22598468433E+02  0.16403778009E+02 -0.12067143705E+02  0.30420234483E+02  0.51100000000E-03 0. -1.
        -11    1    3    3    0    0 -0.46420362911E+01  0.68866399682E+01  0.42730973821E+01  0.93398968130E+01  0.51100000000E-03 0.  1.
        -12    1    3    3    0    0 -0.28342644375E+01  0.49780852878E+01 -0.56232213741E+01  0.80271418734E+01  0.00000000000E+00 0.  1.
</event>
<event>
 7    1  0.2740409E-010  0.4778727E+02  0.7816164E-02  0.1312668E+00
        -11   -1    0    0    0    0  0.00000000000E+00  0.00000000000E+00  0.45593999997E+02  0.45594000000E+02  0.51100000000E-03 0.  1.
         11   -1    0    0    0    0 -0.00000000000E+00 -0.00000000000E+00 -0.45593999997E+02  0.45594000000E+02  0.51100000000E-03 0. -1.
    9900012    2    1    2    0    0  0.29418429386E+02  0.31279251063E+02 -0.63077643971E+01  0.47787269289E+02  0.19999991994E+02 0.  0.
        -12    1    1    2    0    0 -0.29418429386E+02 -0.31279251063E+02  0.63077643971E+01  0.43400730711E+02  0.00000000000E+00 0.  1.
         11    1    3    3    0    0  0.15205596455E+02  0.58801594814E+01 -0.23719572377E+01  0.16474605321E+02  0.51100000000E-03 0. -1.
        -11    1    3    3    0    0  0.55598434533E+01  0.30542455730E+01 -0.37121473239E+01  0.73498512407E+01  0.51100000000E-03 0.  1.
        -12    1    3    3    0    0  0.86529894771E+01  0.22344846009E+02 -0.22365983550E+00  0.23962812727E+02  0.00000000000E+00 0.  1.
</event>
<event>
 7    1  0.2740409E-010  0.4778727E+02  0.7816164E-02  0.1312668E+00
        -11   -1    0    0    0    0  0.00000000000E+00  0.00000000000E+00  0.45593999997E+02  0.45594000000E+02  0.51100000000E-03 0. -1.
         11   -1    0    0    0    0 -0.00000000000E+00 -0.00000000000E+00 -0.45593999997E+02  0.45594000000E+02  0.51100000000E-03 0.  1.
    9900012    2    1    2    0    0 -0.43093488096E+02  0.48764872992E+01 -0.16716906074E+01  0.47787269659E+02  0.19999993682E+02 0.  0.
        -12    1    1    2    0    0  0.43093488096E+02 -0.48764872992E+01  0.16716906074E+01  0.43400730341E+02  0.00000000000E+00 0.  1.
         11    1    3    3    0    0 -0.15402579644E+02 -0.35576079688E+01 -0.21652907146E+00  0.15809583146E+02  0.51100000000E-03 0. -1.
        -11    1    3    3    0    0 -0.26695867640E+02  0.88166008951E+01  0.21712803157E+01  0.28197805923E+02  0.51100000000E-03 0.  1.
        -12    1    3    3    0    0 -0.99504081229E+00 -0.38250562708E+00 -0.36264418517E+01  0.37798805902E+01  0.00000000000E+00 0.  1.
</event>
<event>
 7    1  0.2740409E-010  0.4778727E+02  0.7816164E-02  0.1312668E+00
        -11   -1    0    0    0    0  0.00000000000E+00  0.00000000000E+00  0.45593999997E+02  0.45594000000E+02  0.51100000000E-03 0.  1.
         11   -1    0    0    0    0 -0.00000000000E+00 -0.00000000000E+00 -0.45593999997E+02  0.45594000000E+02  0.51100000000E-03 0. -1.
    9900012    2    1    2    0    0 -0.37701628978E+02 -0.19515980488E+02  0.90187042924E+01  0.47787270177E+02  0.19999996047E+02 0.  0.
        -12    1    1    2    0    0  0.37701628978E+02  0.19515980488E+02 -0.90187042924E+01  0.43400729823E+02  0.00000000000E+00 0.  1.
         11    1    3    3    0    0 -0.24512799556E+02 -0.10007596171E+02  0.12700965635E+02  0.29365691742E+02  0.51100000000E-03 0. -1.
        -11    1    3    3    0    0 -0.79795085673E+01 -0.91353761083E+01 -0.17561026799E+00  0.12130890027E+02  0.51100000000E-03 0.  1.
         12    1    3    3    0    0 -0.52093208551E+01 -0.37300820874E+00 -0.35066510742E+01  0.62906884083E+01  0.00000000000E+00 0. -1.
</event>
<event>
 7    1  0.2740409E-010  0.4778726E+02  0.7816164E-02  0.1312668E+00
        -11   -1    0    0    0    0  0.00000000000E+00  0.00000000000E+00  0.45593999997E+02  0.45594000000E+02  0.51100000000E-03 0. -1.
         11   -1    0    0    0    0 -0.00000000000E+00 -0.00000000000E+00 -0.45593999997E+02  0.45594000000E+02  0.51100000000E-03 0.  1.
    9900012    2    1    2    0    0 -0.38850354406E+02 -0.14253943222E+02  0.13080482332E+02  0.47787263222E+02  0.19999964335E+02 0.  0.
        -12    1    1    2    0    0  0.38850354406E+02  0.14253943222E+02 -0.13080482332E+02  0.43400736778E+02  0.00000000000E+00 0.  1.
         11    1    3    3    0    0 -0.16918701812E+02  0.16463781568E+01  0.88333838643E+01  0.19156766501E+02  0.51100000000E-03 0. -1.
        -11    1    3    3    0    0 -0.13213885226E+02 -0.95206272610E+01 -0.15684405930E+01  0.16361818737E+02  0.51100000000E-03 0.  1.
        -12    1    3    3    0    0 -0.87177673677E+01 -0.63796941179E+01  0.58155390609E+01  0.12268677984E+02  0.00000000000E+00 0.  1.
</event>
<event>
 7    1  0.2740409E-010  0.4778728E+02  0.7816164E-02  0.1312668E+00
        -11   -1    0    0    0    0  0.00000000000E+00  0.00000000000E+00  0.45593999997E+02  0.45594000000E+02  0.51100000000E-03 0.  1.
         11   -1    0    0    0    0 -0.00000000000E+00 -0.00000000000E+00 -0.45593999997E+02  0.45594000000E+02  0.51100000000E-03 0. -1.
    9900012    2    1    2    0    0 -0.72036389400E+01  0.11138272284E+02 -0.41323956479E+02  0.47787275323E+02  0.20000019507E+02 0.  0.
        -12    1    1    2    0    0  0.72036389400E+01 -0.11138272284E+02  0.41323956479E+02  0.43400724677E+02  0.00000000000E+00 0.  1.
         11    1    3    3    0    0 -0.16617458673E+01  0.42445634355E+00 -0.31651017323E+01  0.35999210758E+01  0.51100000000E-03 0. -1.
        -11    1    3    3    0    0  0.64433710190E+01  0.31795322889E+01 -0.19387921744E+02  0.20676507575E+02  0.51100000000E-03 0.  1.
        -12    1    3    3    0    0 -0.11985264092E+02  0.75342836511E+01 -0.18770933002E+02  0.23510846673E+02  0.00000000000E+00 0.  1.
</event>
<event>
 7    1  0.2740409E-010  0.4778723E+02  0.7816164E-02  0.1312668E+00
        -11   -1    0    0    0    0  0.00000000000E+00  0.00000000000E+00  0.45593999997E+02  0.45594000000E+02  0.51100000000E-03 0. -1.
         11   -1    0    0    0    0 -0.00000000000E+00 -0.00000000000E+00 -0.45593999997E+02  0.45594000000E+02  0.51100000000E-03 0.  1.
    9900012    2    1    2    0    0  0.14363030827E+02 -0.15864427015E+01  0.40924482404E+02  0.47787231400E+02  0.19999819245E+02 0.  0.
        -12    1    1    2    0    0 -0.14363030827E+02  0.15864427015E+01 -0.40924482404E+02  0.43400768600E+02  0.00000000000E+00 0.  1.
         11    1    3    3    0    0 -0.12187830269E+01 -0.18282427165E+01  0.19095403176E+00  0.22055310473E+01  0.51100000000E-03 0. -1.
        -11    1    3    3    0    0  0.65369985195E+01 -0.46386410439E+01  0.82145807303E+01  0.11477311410E+02  0.51100000000E-03 0.  1.
         12    1    3    3    0    0  0.90448153349E+01  0.48804410589E+01  0.32518947642E+02  0.34104388942E+02  0.00000000000E+00 0. -1.
</event>
<event>
 7    1  0.2740409E-010  0.4778727E+02  0.7816164E-02  0.1312668E+00
        -11   -1    0    0    0    0  0.00000000000E+00  0.00000000000E+00  0.45593999997E+02  0.45594000000E+02  0.51100000000E-03 0.  1.
         11   -1    0    0    0    0 -0.00000000000E+00 -0.00000000000E+00 -0.45593999997E+02  0.45594000000E+02  0.51100000000E-03 0. -1.
    9900012    2    1    2    0    0  0.19931490465E+02 -0.69851059971E+01 -0.37915267940E+02  0.47787267738E+02  0.19999984922E+02 0.  0.
        -12    1    1    2    0    0 -0.19931490465E+02  0.69851059971E+01  0.37915267940E+02  0.43400732262E+02  0.00000000000E+00 0.  1.
         11    1    3    3    0    0 -0.32859311829E+01 -0.14919539925E+01 -0.65306956201E+01  0.74614513332E+01  0.51100000000E-03 0. -1.
        -11    1    3    3    0    0  0.17678098995E+02 -0.44441948684E+01 -0.28892083943E+02  0.34161653457E+02  0.51100000000E-03 0.  1.
        -12    1    3    3    0    0  0.55393226531E+01 -0.10489571362E+01 -0.24924883771E+01  0.61641629471E+01  0.00000000000E+00 0.  1.
</event>
<event>
 7    1  0.2740409E-010  0.4778724E+02  0.7816164E-02  0.1312668E+00
        -11   -1    0    0    0    0  0.00000000000E+00  0.00000000000E+00  0.45593999997E+02  0.45594000000E+02  0.51100000000E-03 0.  1.
         11   -1    0    0    0    0 -0.00000000000E+00 -0.00000000000E+00 -0.45593999997E+02  0.45594000000E+02  0.51100000000E-03 0. -1.
    9900012    2    1    2    0    0  0.31966037696E+01  0.39241384405E+01 -0.43104629245E+02  0.47787237328E+02  0.19999846273E+02 0.  0.
        -12    1    1    2    0    0 -0.31966037696E+01 -0.39241384405E+01  0.43104629245E+02  0.43400762672E+02  0.00000000000E+00 0.  1.
         11    1    3    3    0    0 -0.18364835579E+01  0.61948006994E+01 -0.27330710813E+02  0.28084087690E+02  0.51100000000E-03 0. -1.
        -11    1    3    3    0    0  0.35136004370E+01 -0.62043003383E+01 -0.12395133141E+02  0.14299582391E+02  0.51100000000E-03 0.  1.
         12    1    3    3    0    0  0.15194868906E+01  0.39336380793E+01 -0.33787852910E+01  0.54035672470E+01  0.00000000000E+00 0. -1.
</event>
<event>
 7    1  0.2740409E-010  0.4778727E+02  0.7816164E-02  0.1312668E+00
        -11   -1    0    0    0    0  0.00000000000E+00  0.00000000000E+00  0.45593999997E+02  0.45594000000E+02  0.51100000000E-03 0. -1.
         11   -1    0    0    0    0 -0.00000000000E+00 -0.00000000000E+00 -0.45593999997E+02  0.45594000000E+02  0.51100000000E-03 0.  1.
    9900012    2    1    2    0    0  0.15234803035E+02 -0.10170870587E+02  0.39345618362E+02  0.47787268252E+02  0.19999987268E+02 0.  0.
        -12    1    1    2    0    0 -0.15234803035E+02  0.10170870587E+02 -0.39345618362E+02  0.43400731748E+02  0.00000000000E+00 0.  1.
         11    1    3    3    0    0 -0.27193571017E+01  0.21917567162E+01  0.93363697083E+01  0.99682746823E+01  0.51100000000E-03 0. -1.
        -11    1    3    3    0    0  0.11043186212E+02 -0.31318211352E+01  0.15393167127E+02  0.19201819179E+02  0.51100000000E-03 0.  1.
         12    1    3    3    0    0  0.69109739247E+01 -0.92308061680E+01  0.14616081527E+02  0.18617174391E+02  0.00000000000E+00 0. -1.
</event>
<event>
 7    1  0.2740409E-010  0.4778727E+02  0.7816164E-02  0.1312668E+00
        -11   -1    0    0    0    0  0.00000000000E+00  0.00000000000E+00  0.45593999997E+02  0.45594000000E+02  0.51100000000E-03 0. -1.
         11   -1    0    0    0    0 -0.00000000000E+00 -0.00000000000E+00 -0.45593999997E+02  0.45594000000E+02  0.51100000000E-03 0.  1.
    9900012    2    1    2    0    0 -0.69224694171E+01  0.41523655195E+02 -0.10558827681E+02  0.47787269988E+02  0.19999995183E+02 0.  0.
        -12    1    1    2    0    0  0.69224694171E+01 -0.41523655195E+02  0.10558827681E+02  0.43400730012E+02  0.00000000000E+00 0.  1.
         11    1    3    3    0    0 -0.46978879206E+01  0.13424692528E+02 -0.45967264585E+01  0.14947321325E+02  0.51100000000E-03 0. -1.
        -11    1    3    3    0    0 -0.35700344167E+01  0.47321910162E+01 -0.72911268653E+01  0.93967711890E+01  0.51100000000E-03 0.  1.
        -12    1    3    3    0    0  0.13454529202E+01  0.23366771651E+02  0.13290256428E+01  0.23443177474E+02  0.00000000000E+00 0.  1.
</event>
<event>
 7    1  0.2740409E-010  0.4778727E+02  0.7816164E-02  0.1312668E+00
        -11   -1    0    0    0    0  0.00000000000E+00  0.00000000000E+00  0.45593999997E+02  0.45594000000E+02  0.51100000000E-03 0. -1.
         11   -1    0    0    0    0 -0.00000000000E+00 -0.00000000000E+00 -0.45593999997E+02  0.45594000000E+02  0.51100000000E-03 0.  1.
    9900012    2    1    2    0    0 -0.15967655516E+02 -0.39747365756E+02 -0.69859745184E+01  0.47787274808E+02  0.20000017159E+02 0.  0.
        -12    1    1    2    0    0  0.15967655516E+02  0.39747365756E+02  0.69859745184E+01  0.43400725192E+02  0.00000000000E+00 0.  1.
         11    1    3    3    0    0 -0.43518900133E+01 -0.18890740811E+02  0.61220502287E+00  0.19395201219E+02  0.51100000000E-03 0. -1.
        -11    1    3    3    0    0 -0.21706871028E+01  0.97095199245E+00  0.16279343207E+01  0.28818051085E+01  0.51100000000E-03 0.  1.
        -12    1    3    3    0    0 -0.94450784001E+01 -0.21827576937E+02 -0.92261138620E+01  0.25510268480E+02  0.00000000000E+00 0.  1.
</event>
<event>
 7    1  0.2740409E-010  0.4778727E+02  0.7816164E-02  0.1312668E+00
        -11   -1    0    0    0    0  0.00000000000E+00  0.00000000000E+00  0.45593999997E+02  0.45594000000E+02  0.51100000000E-03 0.  1.
         11   -1    0    0    0    0 -0.00000000000E+00 -0.00000000000E+00 -0.45593999997E+02  0.45594000000E+02  0.51100000000E-03 0. -1.
    9900012    2    1    2    0    0  0.20038790005E+02 -0.29277508887E+02 -0.24997948935E+02  0.47787273249E+02  0.20000010054E+02 0.  0.
        -12    1    1    2    0    0 -0.20038790005E+02  0.29277508887E+02  0.24997948935E+02  0.43400726751E+02  0.00000000000E+00 0.  1.
         11    1    3    3    0    0 -0.16856212976E+01 -0.10814781895E+01 -0.52799761261E+01  0.56470401439E+01  0.51100000000E-03 0. -1.
        -11    1    3    3    0    0 -0.82362292382E+00  0.32319834971E+00 -0.40846927548E+00  0.97450464547E+00  0.51100000000E-03 0.  1.
         12    1    3    3    0    0  0.22548034227E+02 -0.28519229047E+02 -0.19309503534E+02  0.41165728460E+02  0.00000000000E+00 0. -1.
</event>
<event>
 7    1  0.2740409E-010  0.4778727E+02  0.7816164E-02  0.1312668E+00
        -11   -1    0    0    0    0  0.00000000000E+00  0.00000000000E+00  0.45593999997E+02  0.45594000000E+02  0.51100000000E-03 0.  1.
         11   -1    0    0    0    0 -0.00000000000E+00 -0.00000000000E+00 -0.45593999997E+02  0.45594000000E+02  0.51100000000E-03 0. -1.
    9900012    2    1    2    0    0  0.25594778965E+02  0.25373471361E+02 -0.24180934509E+02  0.47787270134E+02  0.19999995849E+02 0.  0.
        -12    1    1    2    0    0 -0.25594778965E+02 -0.25373471361E+02  0.24180934509E+02  0.43400729866E+02  0.00000000000E+00 0.  1.
         11    1    3    3    0    0 -0.14241307933E+01  0.18337043280E+01 -0.18273568881E+01  0.29546325552E+01  0.51100000000E-03 0. -1.
        -11    1    3    3    0    0  0.27286159623E+02  0.17381995638E+02 -0.20848306421E+02  0.38487922264E+02  0.51100000000E-03 0.  1.
        -12    1    3    3    0    0 -0.26724986437E+00  0.61577713948E+01 -0.15052711996E+01  0.63447153148E+01  0.00000000000E+00 0.  1.
</event>
<event>
 7    1  0.2740409E-010  0.4778729E+02  0.7816164E-02  0.1312668E+00
        -11   -1    0    0    0    0  0.00000000000E+00  0.00000000000E+00  0.45593999997E+02  0.45594000000E+02  0.51100000000E-03 0. -1.
         11   -1    0    0    0    0 -0.00000000000E+00 -0.00000000000E+00 -0.45593999997E+02  0.45594000000E+02  0.51100000000E-03 0.  1.
    9900012    2    1    2    0    0 -0.29604863743E+02 -0.16129955619E+02  0.27331271152E+02  0.47787287928E+02  0.20000076980E+02 0.  0.
        -12    1    1    2    0    0  0.29604863743E+02  0.16129955619E+02 -0.27331271152E+02  0.43400712072E+02  0.00000000000E+00 0.  1.
         11    1    3    3    0    0 -0.20103219746E+02 -0.16330089777E+02  0.19578223892E+02  0.32467185392E+02  0.51100000000E-03 0. -1.
        -11    1    3    3    0    0 -0.42692099411E+01  0.46579740459E+01  0.41461672412E+01  0.75573526308E+01  0.51100000000E-03 0.  1.
        -12    1    3    3    0    0 -0.52324340563E+01 -0.44578398882E+01  0.36068800197E+01  0.77627499057E+01  0.00000000000E+00 0.  1.
</event>
<event>
 7    1  0.2740409E-010  0.4778727E+02  0.7816164E-02  0.1312668E+00
        -11   -1    0    0    0    0  0.00000000000E+00  0.00000000000E+00  0.45593999997E+02  0.45594000000E+02  0.51100000000E-03 0.  1.
         11   -1    0    0    0    0 -0.00000000000E+00 -0.00000000000E+00 -0.45593999997E+02  0.45594000000E+02  0.51100000000E-03 0. -1.
    9900012    2    1    2    0    0  0.84154019551E+00 -0.42576173572E+02  0.83776248053E+01  0.47787270245E+02  0.19999996354E+02 0.  0.
        -12    1    1    2    0    0 -0.84154019551E+00  0.42576173572E+02 -0.83776248053E+01  0.43400729755E+02  0.00000000000E+00 0.  1.
         11    1    3    3    0    0  0.81400080463E+01 -0.20853225183E+02  0.50231513354E+01  0.22942292412E+02  0.51100000000E-03 0. -1.
        -11    1    3    3    0    0 -0.23106325714E-01 -0.68605700788E-01  0.19570904054E+01  0.19584289011E+01  0.51100000000E-03 0.  1.
         12    1    3    3    0    0 -0.72753615251E+01 -0.21654342688E+02  0.13973830644E+01  0.22886548931E+02  0.00000000000E+00 0. -1.
</event>
<event>
 7    1  0.2740409E-010  0.4778727E+02  0.7816164E-02  0.1312668E+00
        -11   -1    0    0    0    0  0.00000000000E+00  0.00000000000E+00  0.45593999997E+02  0.45594000000E+02  0.51100000000E-03 0.  1.
         11   -1    0    0    0    0 -0.00000000000E+00 -0.00000000000E+00 -0.45593999997E+02  0.45594000000E+02  0.51100000000E-03 0. -1.
    9900012    2    1    2    0    0  0.21423804311E+02  0.22258089595E+02 -0.30483133425E+02  0.47787269971E+02  0.19999995107E+02 0.  0.
        -12    1    1    2    0    0 -0.21423804311E+02 -0.22258089595E+02  0.30483133425E+02  0.43400730029E+02  0.00000000000E+00 0.  1.
         11    1    3    3    0    0  0.57115984835E+01 -0.15777426887E+01 -0.16696259346E+01  0.61562391321E+01  0.51100000000E-03 0. -1.
        -11    1    3    3    0    0  0.47730154306E+01  0.13389446178E+02 -0.94901551484E+01  0.17091576588E+02  0.51100000000E-03 0.  1.
         12    1    3    3    0    0  0.10939190397E+02  0.10446386106E+02 -0.19323352342E+02  0.24539454252E+02  0.00000000000E+00 0. -1.
</event>
<event>
 7    1  0.2740409E-010  0.4778727E+02  0.7816164E-02  0.1312668E+00
        -11   -1    0    0    0    0  0.00000000000E+00  0.00000000000E+00  0.45593999997E+02  0.45594000000E+02  0.51100000000E-03 0. -1.
         11   -1    0    0    0    0 -0.00000000000E+00 -0.00000000000E+00 -0.45593999997E+02  0.45594000000E+02  0.51100000000E-03 0.  1.
    9900012    2    1    2    0    0  0.16761785831E+02  0.91604222365E+01  0.38971179502E+02  0.47787266924E+02  0.19999981212E+02 0.  0.
        -12    1    1    2    0    0 -0.16761785831E+02 -0.91604222365E+01 -0.38971179502E+02  0.43400733076E+02  0.00000000000E+00 0.  1.
         11    1    3    3    0    0  0.41259555085E+01  0.57440566052E+01  0.26301836404E+02  0.27236084403E+02  0.51100000000E-03 0. -1.
        -11    1    3    3    0    0  0.96381119650E+00 -0.24261119427E+01  0.43485473059E+01  0.50719636349E+01  0.51100000000E-03 0.  1.
         12    1    3    3    0    0  0.11672019126E+02  0.58424775740E+01  0.83207957918E+01  0.15479218885E+02  0.00000000000E+00 0. -1.
</event>
<event>
 7    1  0.2740409E-010  0.4778727E+02  0.7816164E-02  0.1312668E+00
        -11   -1    0    0    0    0  0.00000000000E+00  0.00000000000E+00  0.45593999997E+02  0.45594000000E+02  0.51100000000E-03 0.  1.
         11   -1    0    0    0    0 -0.00000000000E+00 -0.00000000000E+00 -0.45593999997E+02  0.45594000000E+02  0.51100000000E-03 0. -1.
    9900012    2    1    2    0    0  0.33737052110E+02  0.24256475290E+02  0.12532284492E+02  0.47787269210E+02  0.19999991634E+02 0.  0.
        -12    1    1    2    0    0 -0.33737052110E+02 -0.24256475290E+02 -0.12532284492E+02  0.43400730790E+02  0.00000000000E+00 0.  1.
         11    1    3    3    0    0  0.15392424449E+02  0.18514434776E+02 -0.35159268436E-01  0.24077214580E+02  0.51100000000E-03 0. -1.
        -11    1    3    3    0    0  0.12427381245E+02  0.65454524761E+01  0.98114236932E+01  0.17133207169E+02  0.51100000000E-03 0.  1.
         12    1    3    3    0    0  0.59172464153E+01 -0.80341196171E+00  0.27560200671E+01  0.65768474614E+01  0.00000000000E+00 0. -1.
</event>
<event>
 7    1  0.2740409E-010  0.4778727E+02  0.7816164E-02  0.1312668E+00
        -11   -1    0    0    0    0  0.00000000000E+00  0.00000000000E+00  0.45593999997E+02  0.45594000000E+02  0.51100000000E-03 0.  1.
         11   -1    0    0    0    0 -0.00000000000E+00 -0.00000000000E+00 -0.45593999997E+02  0.45594000000E+02  0.51100000000E-03 0. -1.
    9900012    2    1    2    0    0  0.12482827558E+02 -0.29858602853E+02 -0.28918267378E+02  0.47787270325E+02  0.19999996719E+02 0.  0.
        -12    1    1    2    0    0 -0.12482827558E+02  0.29858602853E+02  0.28918267378E+02  0.43400729675E+02  0.00000000000E+00 0.  1.
         11    1    3    3    0    0  0.95973638737E+01 -0.29065645614E+02 -0.28934950680E+02  0.42120689921E+02  0.51100000000E-03 0. -1.
        -11    1    3    3    0    0  0.32067771361E+01  0.91069068410E+00 -0.12060971031E+01  0.35450596054E+01  0.51100000000E-03 0.  1.
         12    1    3    3    0    0 -0.32131345150E+00 -0.17036479231E+01  0.12227804052E+01  0.21215207987E+01  0.00000000000E+00 0. -1.
</event>
<event>
 7    1  0.2740409E-010  0.4778727E+02  0.7816164E-02  0.1312668E+00
        -11   -1    0    0    0    0  0.00000000000E+00  0.00000000000E+00  0.45593999997E+02  0.45594000000E+02  0.51100000000E-03 0. -1.
         11   -1    0    0    0    0 -0.00000000000E+00 -0.00000000000E+00 -0.45593999997E+02  0.45594000000E+02  0.51100000000E-03 0.  1.
    9900012    2    1    2    0    0  0.95296898186E+01 -0.23217198684E+02  0.35408616541E+02  0.47787269267E+02  0.19999991897E+02 0.  0.
        -12    1    1    2    0    0 -0.95296898186E+01  0.23217198684E+02 -0.35408616541E+02  0.43400730733E+02  0.00000000000E+00 0.  1.
         11    1    3    3    0    0 -0.38076646773E+00 -0.57975807735E+01  0.86927439667E+01  0.10455655114E+02  0.51100000000E-03 0. -1.
        -11    1    3    3    0    0  0.67811485636E+01 -0.20231480482E+02  0.24779140007E+02  0.32700192019E+02  0.51100000000E-03 0.  1.
        -12    1    3    3    0    0  0.31293077227E+01  0.28118625716E+01  0.19367325674E+01  0.46314221340E+01  0.00000000000E+00 0.  1.
</event>
<event>
 7    1  0.2740409E-010  0.4778727E+02  0.7816164E-02  0.1312668E+00
        -11   -1    0    0    0    0  0.00000000000E+00  0.00000000000E+00  0.45593999997E+02  0.45594000000E+02  0.51100000000E-03 0. -1.
         11   -1    0    0    0    0 -0.00000000000E+00 -0.00000000000E+00 -0.45593999997E+02  0.45594000000E+02  0.51100000000E-03 0.  1.
    9900012    2    1    2    0    0 -0.77006951116E+01 -0.22373371092E+02  0.36383437841E+02  0.47787274334E+02  0.20000014997E+02 0.  0.
        -12    1    1    2    0    0  0.77006951116E+01  0.22373371092E+02 -0.36383437841E+02  0.43400725666E+02  0.00000000000E+00 0.  1.
         11    1    3    3    0    0 -0.10117501010E+02 -0.10877913509E+02  0.10885531724E+02  0.18417047271E+02  0.51100000000E-03 0. -1.
        -11    1    3    3    0    0  0.25054154342E+01 -0.12423659542E+02  0.25456472857E+02  0.28436885088E+02  0.51100000000E-03 0.  1.
        -12    1    3    3    0    0 -0.88609535291E-01  0.92820195925E+00  0.41433260114E-01  0.93334197482E+00  0.00000000000E+00 0.  1.
</event>
<event>
 7    1  0.2740409E-010  0.4778727E+02  0.7816164E-02  0.1312668E+00
        -11   -1    0    0    0    0  0.00000000000E+00  0.00000000000E+00  0.45593999997E+02  0.45594000000E+02  0.51100000000E-03 0.  1.
         11   -1    0    0    0    0 -0.00000000000E+00 -0.00000000000E+00 -0.45593999997E+02  0.45594000000E+02  0.51100000000E-03 0. -1.
    9900012    2    1    2    0    0 -0.96752661875E+01  0.15981979910E+02 -0.39173830985E+02  0.47787268535E+02  0.19999988559E+02 0.  0.
        -12    1    1    2    0    0  0.96752661875E+01 -0.15981979910E+02  0.39173830985E+02  0.43400731465E+02  0.00000000000E+00 0.  1.
         11    1    3    3    0    0 -0.67622485740E+01  0.16290345431E+02 -0.35804983942E+02  0.39913659759E+02  0.51100000000E-03 0. -1.
        -11    1    3    3    0    0 -0.41484895457E+01 -0.23038239075E+01 -0.25559854138E+01  0.53898638020E+01  0.51100000000E-03 0.  1.
         12    1    3    3    0    0  0.12354719322E+01  0.19954583867E+01 -0.81286162954E+00  0.24837449742E+01  0.00000000000E+00 0. -1.
</event>
<event>
 7    1  0.2740409E-010  0.4778724E+02  0.7816164E-02  0.1312668E+00
        -11   -1    0    0    0    0  0.00000000000E+00  0.00000000000E+00  0.45593999997E+02  0.45594000000E+02  0.51100000000E-03 0.  1.
         11   -1    0    0    0    0 -0.00000000000E+00 -0.00000000000E+00 -0.45593999997E+02  0.45594000000E+02  0.51100000000E-03 0. -1.
    9900012    2    1    2    0    0  0.23852831777E+02  0.68250156265E+01 -0.35610221317E+02  0.47787236362E+02  0.19999841870E+02 0.  0.
        -12    1    1    2    0    0 -0.23852831777E+02 -0.68250156265E+01  0.35610221317E+02  0.43400763638E+02  0.00000000000E+00 0.  1.
         11    1    3    3    0    0 -0.65335527879E+00 -0.79582018729E+00 -0.94736645079E+01  0.95294555123E+01  0.51100000000E-03 0. -1.
        -11    1    3    3    0    0  0.21413929739E+02  0.20883350599E+01 -0.21394802601E+02  0.30342299003E+02  0.51100000000E-03 0.  1.
        -12    1    3    3    0    0  0.30922573175E+01  0.55325007539E+01 -0.47417542072E+01  0.79154818471E+01  0.00000000000E+00 0.  1.
</event>
<event>
 7    1  0.2740409E-010  0.4778727E+02  0.7816164E-02  0.1312668E+00
        -11   -1    0    0    0    0  0.00000000000E+00  0.00000000000E+00  0.45593999997E+02  0.45594000000E+02  0.51100000000E-03 0. -1.
         11   -1    0    0    0    0 -0.00000000000E+00 -0.00000000000E+00 -0.45593999997E+02  0.45594000000E+02  0.51100000000E-03 0.  1.
    9900012    2    1    2    0    0  0.10927321675E+02 -0.40498181211E+02 -0.11140659351E+02  0.47787270384E+02  0.19999996990E+02 0.  0.
        -12    1    1    2    0    0 -0.10927321675E+02  0.40498181211E+02  0.11140659351E+02  0.43400729616E+02  0.00000000000E+00 0.  1.
         11    1    3    3    0    0  0.53651408160E+01 -0.29425970831E+02 -0.53436938469E+01  0.30384659937E+02  0.51100000000E-03 0. -1.
        -11    1    3    3    0    0  0.79645609282E+01 -0.59938319225E+01 -0.62518045904E+01  0.11766278630E+02  0.51100000000E-03 0.  1.
        -12    1    3    3    0    0 -0.24023800694E+01 -0.50783784579E+01  0.45483908635E+00  0.56363318172E+01  0.00000000000E+00 0.  1.
</event>
<event>
 7    1  0.2740409E-010  0.4778727E+02  0.7816164E-02  0.1312668E+00
        -11   -1    0    0    0    0  0.00000000000E+00  0.00000000000E+00  0.45593999997E+02  0.45594000000E+02  0.51100000000E-03 0. -1.
         11   -1    0    0    0    0 -0.00000000000E+00 -0.00000000000E+00 -0.45593999997E+02  0.45594000000E+02  0.51100000000E-03 0.  1.
    9900012    2    1    2    0    0  0.33627768831E+02  0.11419814579E+02  0.24947629367E+02  0.47787271750E+02  0.20000003218E+02 0.  0.
        -12    1    1    2    0    0 -0.33627768831E+02 -0.11419814579E+02 -0.24947629367E+02  0.43400728250E+02  0.00000000000E+00 0.  1.
         11    1    3    3    0    0  0.10871220437E+02  0.47196752768E+01  0.14539037348E+02  0.18757461869E+02  0.51100000000E-03 0. -1.
        -11    1    3    3    0    0  0.14412425514E+02 -0.11638609174E+01  0.15534332636E+01  0.14542549178E+02  0.51100000000E-03 0.  1.
        -12    1    3    3    0    0  0.83441228803E+01  0.78640002195E+01  0.88551587562E+01  0.14487260704E+02  0.00000000000E+00 0.  1.
</event>
<event>
 7    1  0.2740409E-010  0.4778727E+02  0.7816164E-02  0.1312668E+00
        -11   -1    0    0    0    0  0.00000000000E+00  0.00000000000E+00  0.45593999997E+02  0.45594000000E+02  0.51100000000E-03 0.  1.
         11   -1    0    0    0    0 -0.00000000000E+00 -0.00000000000E+00 -0.45593999997E+02  0.45594000000E+02  0.51100000000E-03 0. -1.
    9900012    2    1    2    0    0  0.15331154672E+02 -0.24126411319E+02 -0.32657237405E+02  0.47787272107E+02  0.20000004846E+02 0.  0.
        -12    1    1    2    0    0 -0.15331154672E+02  0.24126411319E+02  0.32657237405E+02  0.43400727893E+02  0.00000000000E+00 0.  1.
         11    1    3    3    0    0  0.61351079811E+00 -0.44248129762E+01 -0.11644370787E+02  0.12471837742E+02  0.51100000000E-03 0. -1.
        -11    1    3    3    0    0  0.95449776464E+01 -0.20165848506E+02 -0.13166735937E+02  0.25906195778E+02  0.51100000000E-03 0.  1.
        -12    1    3    3    0    0  0.51726662274E+01  0.46425016320E+00 -0.78461306811E+01  0.94092385866E+01  0.00000000000E+00 0.  1.
</event>
<event>
 7    1  0.2740409E-010  0.4778727E+02  0.7816164E-02  0.1312668E+00
        -11   -1    0    0    0    0  0.00000000000E+00  0.00000000000E+00  0.45593999997E+02  0.45594000000E+02  0.51100000000E-03 0. -1.
         11   -1    0    0    0    0 -0.00000000000E+00 -0.00000000000E+00 -0.45593999997E+02  0.45594000000E+02  0.51100000000E-03 0.  1.
    9900012    2    1    2    0    0  0.86936543208E+01 -0.51779468973E+00  0.42517943352E+02  0.47787271392E+02  0.20000001586E+02 0.  0.
        -12    1    1    2    0    0 -0.86936543208E+01  0.51779468973E+00 -0.42517943352E+02  0.43400728608E+02  0.00000000000E+00 0.  1.
         11    1    3    3    0    0  0.76708599761E+01 -0.53274495769E+01  0.28332827370E+02  0.29832413895E+02  0.51100000000E-03 0. -1.
        -11    1    3    3    0    0  0.42167536084E+01  0.62023567012E+01  0.91365534065E+01  0.11820611154E+02  0.51100000000E-03 0.  1.
        -12    1    3    3    0    0 -0.31939592638E+01 -0.13927018141E+01  0.50485625759E+01  0.61342463436E+01  0.00000000000E+00 0.  1.
</event>
<event>
 7    1  0.2740409E-010  0.4778731E+02  0.7816164E-02  0.1312668E+00
        -11   -1    0    0    0    0  0.00000000000E+00  0.00000000000E+00  0.45593999997E+02  0.45594000000E+02  0.51100000000E-03 0.  1.
         11   -1    0    0    0    0 -0.00000000000E+00 -0.00000000000E+00 -0.45593999997E+02  0.45594000000E+02  0.51100000000E-03 0. -1.
    9900012    2    1    2    0    0  0.38341155741E+02  0.10019951769E+02 -0.17696795686E+02  0.47787306059E+02  0.20000159646E+02 0.  0.
        -12    1    1    2    0    0 -0.38341155741E+02 -0.10019951769E+02  0.17696795686E+02  0.43400693941E+02  0.00000000000E+00 0.  1.
         11    1    3    3    0    0  0.12491636654E+02  0.56393207879E+00 -0.24611772620E+01  0.12744269279E+02  0.51100000000E-03 0. -1.
        -11    1    3    3    0    0  0.15306460122E+02 -0.96378400667E+00 -0.12892407249E+02  0.20035737222E+02  0.51100000000E-03 0.  1.
        -12    1    3    3    0    0  0.10543058965E+02  0.10419803697E+02 -0.23432111745E+01  0.15007299558E+02  0.00000000000E+00 0.  1.
</event>
<event>
 7    1  0.2740409E-010  0.4778727E+02  0.7816164E-02  0.1312668E+00
        -11   -1    0    0    0    0  0.00000000000E+00  0.00000000000E+00  0.45593999997E+02  0.45594000000E+02  0.51100000000E-03 0.  1.
         11   -1    0    0    0    0 -0.00000000000E+00 -0.00000000000E+00 -0.45593999997E+02  0.45594000000E+02  0.51100000000E-03 0. -1.
    9900012    2    1    2    0    0  0.24769788982E+02 -0.12640476577E+02 -0.33321154139E+02  0.47787269505E+02  0.19999992982E+02 0.  0.
        -12    1    1    2    0    0 -0.24769788982E+02  0.12640476577E+02  0.33321154139E+02  0.43400730495E+02  0.00000000000E+00 0.  1.
         11    1    3    3    0    0  0.48557275556E+01  0.24593823058E+01 -0.72361128401E+01  0.90547214598E+01  0.51100000000E-03 0. -1.
        -11    1    3    3    0    0  0.11176892034E+02 -0.10649860929E+02 -0.63448171182E+01  0.16691289880E+02  0.51100000000E-03 0.  1.
        -12    1    3    3    0    0  0.87371693932E+01 -0.44499979543E+01 -0.19740224181E+02  0.22041258165E+02  0.00000000000E+00 0.  1.
</event>
<event>
 7    1  0.2740409E-010  0.4778726E+02  0.7816164E-02  0.1312668E+00
        -11   -1    0    0    0    0  0.00000000000E+00  0.00000000000E+00  0.45593999997E+02  0.45594000000E+02  0.51100000000E-03 0.  1.
         11   -1    0    0    0    0 -0.00000000000E+00 -0.00000000000E+00 -0.45593999997E+02  0.45594000000E+02  0.51100000000E-03 0. -1.
    9900012    2    1    2    0    0 -0.37402335041E+02  0.16188972661E+02 -0.14920016554E+02  0.47787258113E+02  0.19999941041E+02 0.  0.
        -12    1    1    2    0    0  0.37402335041E+02 -0.16188972661E+02  0.14920016554E+02  0.43400741887E+02  0.00000000000E+00 0.  1.
         11    1    3    3    0    0 -0.15327048212E+02  0.49620659085E+01 -0.72860365796E+01  0.17681256581E+02  0.51100000000E-03 0. -1.
        -11    1    3    3    0    0 -0.20510334389E+02  0.12201294983E+02 -0.17377928036E+01  0.23928337596E+02  0.51100000000E-03 0.  1.
        -12    1    3    3    0    0 -0.15649524399E+01 -0.97438822996E+00 -0.58961871703E+01  0.61776639363E+01  0.00000000000E+00 0.  1.
</event>
<event>
 7    1  0.2740409E-010  0.4778726E+02  0.7816164E-02  0.1312668E+00
        -11   -1    0    0    0    0  0.00000000000E+00  0.00000000000E+00  0.45593999997E+02  0.45594000000E+02  0.51100000000E-03 0. -1.
         11   -1    0    0    0    0 -0.00000000000E+00 -0.00000000000E+00 -0.45593999997E+02  0.45594000000E+02  0.51100000000E-03 0.  1.
    9900012    2    1    2    0    0  0.25440047848E+02  0.32140240124E+02 -0.14262988343E+02  0.47787263760E+02  0.19999966786E+02 0.  0.
        -12    1    1    2    0    0 -0.25440047848E+02 -0.32140240124E+02  0.14262988343E+02  0.43400736240E+02  0.00000000000E+00 0.  1.
         11    1    3    3    0    0  0.12665294900E+02  0.56741716460E+01  0.43073025113E+00  0.13884935995E+02  0.51100000000E-03 0.  1.
        -11    1    3    3    0    0  0.55428760534E+01  0.18305780990E+02 -0.62843577058E+01  0.20132517096E+02  0.51100000000E-03 0. -1.
        -12    1    3    3    0    0  0.72318768951E+01  0.81602874878E+01 -0.84093608880E+01  0.13769810669E+02  0.00000000000E+00 0.  1.
</event>
<event>
 7    1  0.2740409E-010  0.4778727E+02  0.7816164E-02  0.1312668E+00
        -11   -1    0    0    0    0  0.00000000000E+00  0.00000000000E+00  0.45593999997E+02  0.45594000000E+02  0.51100000000E-03 0. -1.
         11   -1    0    0    0    0 -0.00000000000E+00 -0.00000000000E+00 -0.45593999997E+02  0.45594000000E+02  0.51100000000E-03 0.  1.
    9900012    2    1    2    0    0 -0.39755385629E+02 -0.16216238276E+02  0.63376593554E+01  0.47787274241E+02  0.20000014574E+02 0.  0.
        -12    1    1    2    0    0  0.39755385629E+02  0.16216238276E+02 -0.63376593554E+01  0.43400725759E+02  0.00000000000E+00 0.  1.
         11    1    3    3    0    0 -0.14707293791E+02 -0.10768616540E+02  0.23329110718E+01  0.18376889485E+02  0.51100000000E-03 0. -1.
        -11    1    3    3    0    0 -0.80929110594E+01  0.14189762152E+01  0.70981464567E+01  0.10857826039E+02  0.51100000000E-03 0.  1.
        -12    1    3    3    0    0 -0.16955180779E+02 -0.68665979510E+01 -0.30933981731E+01  0.18552558716E+02  0.00000000000E+00 0.  1.
</event>
<event>
 7    1  0.2740409E-010  0.4778726E+02  0.7816164E-02  0.1312668E+00
        -11   -1    0    0    0    0  0.00000000000E+00  0.00000000000E+00  0.45593999997E+02  0.45594000000E+02  0.51100000000E-03 0.  1.
         11   -1    0    0    0    0 -0.00000000000E+00 -0.00000000000E+00 -0.45593999997E+02  0.45594000000E+02  0.51100000000E-03 0. -1.
    9900012    2    1    2    0    0  0.41857076202E+02 -0.25644198095E+01  0.11181820147E+02  0.47787260618E+02  0.19999952461E+02 0.  0.
        -12    1    1    2    0    0 -0.41857076202E+02  0.25644198095E+01 -0.11181820147E+02  0.43400739382E+02  0.00000000000E+00 0.  1.
         11    1    3    3    0    0  0.25358140625E+02 -0.33600209143E+01  0.11297335775E+02  0.27963455301E+02  0.51100000000E-03 0. -1.
        -11    1    3    3    0    0 -0.71710410670E+00 -0.14196201971E+01 -0.17790128952E+01  0.23863040348E+01  0.51100000000E-03 0.  1.
        -12    1    3    3    0    0  0.17216039684E+02  0.22152213019E+01  0.16634972675E+01  0.17437501282E+02  0.00000000000E+00 0.  1.
</event>
<event>
 7    1  0.2740409E-010  0.4778727E+02  0.7816164E-02  0.1312668E+00
        -11   -1    0    0    0    0  0.00000000000E+00  0.00000000000E+00  0.45593999997E+02  0.45594000000E+02  0.51100000000E-03 0. -1.
         11   -1    0    0    0    0 -0.00000000000E+00 -0.00000000000E+00 -0.45593999997E+02  0.45594000000E+02  0.51100000000E-03 0.  1.
    9900012    2    1    2    0    0  0.13563403730E+02 -0.27968620756E+02  0.30288834378E+02  0.47787272405E+02  0.20000006205E+02 0.  0.
        -12    1    1    2    0    0 -0.13563403730E+02  0.27968620756E+02 -0.30288834378E+02  0.43400727595E+02  0.00000000000E+00 0.  1.
         11    1    3    3    0    0  0.74309441469E+00 -0.20297776033E+01  0.12442789275E+02  0.12629140574E+02  0.51100000000E-03 0. -1.
        -11    1    3    3    0    0  0.67082953591E+01 -0.10179034664E+02  0.27546824822E+01  0.12498089820E+02  0.51100000000E-03 0.  1.
         12    1    3    3    0    0  0.61120139567E+01 -0.15759808489E+02  0.15091362621E+02  0.22660042012E+02  0.00000000000E+00 0. -1.
</event>
<event>
 7    1  0.2740409E-010  0.4778726E+02  0.7816164E-02  0.1312668E+00
        -11   -1    0    0    0    0  0.00000000000E+00  0.00000000000E+00  0.45593999997E+02  0.45594000000E+02  0.51100000000E-03 0.  1.
         11   -1    0    0    0    0 -0.00000000000E+00 -0.00000000000E+00 -0.45593999997E+02  0.45594000000E+02  0.51100000000E-03 0. -1.
    9900012    2    1    2    0    0  0.27366106494E+02 -0.16341700146E+02  0.29456220690E+02  0.47787263997E+02  0.19999967868E+02 0.  0.
        -12    1    1    2    0    0 -0.27366106494E+02  0.16341700146E+02 -0.29456220690E+02  0.43400736003E+02  0.00000000000E+00 0.  1.
         11    1    3    3    0    0  0.15034286953E+02 -0.14578317336E+02  0.22099206504E+02  0.30445558772E+02  0.51100000000E-03 0. -1.
        -11    1    3    3    0    0  0.13592785172E+02 -0.11375477616E+00  0.67589916965E+01  0.15180932708E+02  0.51100000000E-03 0.  1.
         12    1    3    3    0    0 -0.12609656315E+01 -0.16496280334E+01  0.59802248881E+00  0.21607725168E+01  0.00000000000E+00 0. -1.
</event>
<event>
 7    1  0.2740409E-010  0.4778727E+02  0.7816164E-02  0.1312668E+00
        -11   -1    0    0    0    0  0.00000000000E+00  0.00000000000E+00  0.45593999997E+02  0.45594000000E+02  0.51100000000E-03 0.  1.
         11   -1    0    0    0    0 -0.00000000000E+00 -0.00000000000E+00 -0.45593999997E+02  0.45594000000E+02  0.51100000000E-03 0. -1.
    9900012    2    1    2    0    0 -0.26990600968E+02  0.75089837365E+01 -0.33147331043E+02  0.47787274975E+02  0.20000017922E+02 0.  0.
        -12    1    1    2    0    0  0.26990600968E+02 -0.75089837365E+01  0.33147331043E+02  0.43400725025E+02  0.00000000000E+00 0.  1.
         11    1    3    3    0    0 -0.12654981452E+02  0.10588783925E+02 -0.26204456458E+02  0.30966828044E+02  0.51100000000E-03 0. -1.
        -11    1    3    3    0    0 -0.11258265474E+02 -0.45103884109E+00 -0.53164309676E+01  0.12458588042E+02  0.51100000000E-03 0.  1.
         12    1    3    3    0    0 -0.30773540423E+01 -0.26287613478E+01 -0.16264436179E+01  0.43618588890E+01  0.00000000000E+00 0. -1.
</event>
<event>
 7    1  0.2740409E-010  0.4778727E+02  0.7816164E-02  0.1312668E+00
        -11   -1    0    0    0    0  0.00000000000E+00  0.00000000000E+00  0.45593999997E+02  0.45594000000E+02  0.51100000000E-03 0. -1.
         11   -1    0    0    0    0 -0.00000000000E+00 -0.00000000000E+00 -0.45593999997E+02  0.45594000000E+02  0.51100000000E-03 0.  1.
    9900012    2    1    2    0    0  0.33128367659E+02  0.32627751334E+01  0.27847600526E+02  0.47787270739E+02  0.19999998607E+02 0.  0.
        -12    1    1    2    0    0 -0.33128367659E+02 -0.32627751334E+01 -0.27847600526E+02  0.43400729261E+02  0.00000000000E+00 0.  1.
         11    1    3    3    0    0  0.15408180728E+02  0.35863677192E+01  0.91349425292E+01  0.18268038812E+02  0.51100000000E-03 0. -1.
        -11    1    3    3    0    0  0.19213287927E+00 -0.36911741335E+01  0.77143549731E+01  0.85541191504E+01  0.51100000000E-03 0.  1.
        -12    1    3    3    0    0  0.17528054052E+02  0.33675815478E+01  0.10998303023E+02  0.20965112777E+02  0.00000000000E+00 0.  1.
</event>
<event>
 7    1  0.2740409E-010  0.4778727E+02  0.7816164E-02  0.1312668E+00
        -11   -1    0    0    0    0  0.00000000000E+00  0.00000000000E+00  0.45593999997E+02  0.45594000000E+02  0.51100000000E-03 0.  1.
         11   -1    0    0    0    0 -0.00000000000E+00 -0.00000000000E+00 -0.45593999997E+02  0.45594000000E+02  0.51100000000E-03 0. -1.
    9900012    2    1    2    0    0  0.13410348510E+02  0.24164328059E+02 -0.33464474272E+02  0.47787271481E+02  0.20000001988E+02 0.  0.
        -12    1    1    2    0    0 -0.13410348510E+02 -0.24164328059E+02  0.33464474272E+02  0.43400728519E+02  0.00000000000E+00 0.  1.
         11    1    3    3    0    0  0.91436913244E+01  0.63645920943E+01 -0.10429752895E+02  0.15260893463E+02  0.51100000000E-03 0. -1.
        -11    1    3    3    0    0 -0.11811808314E+01  0.94607789965E+01 -0.27418061965E+01  0.99206365148E+01  0.51100000000E-03 0.  1.
        -12    1    3    3    0    0  0.54478380165E+01  0.83389569681E+01 -0.20292915181E+02  0.22605741503E+02  0.00000000000E+00 0.  1.
</event>
<event>
 7    1  0.2740409E-010  0.4778725E+02  0.7816164E-02  0.1312668E+00
        -11   -1    0    0    0    0  0.00000000000E+00  0.00000000000E+00  0.45593999997E+02  0.45594000000E+02  0.51100000000E-03 0.  1.
         11   -1    0    0    0    0 -0.00000000000E+00 -0.00000000000E+00 -0.45593999997E+02  0.45594000000E+02  0.51100000000E-03 0. -1.
    9900012    2    1    2    0    0  0.84493282110E+01 -0.42422515009E+02 -0.35445567735E+01  0.47787253352E+02  0.19999919331E+02 0.  0.
        -12    1    1    2    0    0 -0.84493282110E+01  0.42422515009E+02  0.35445567735E+01  0.43400746648E+02  0.00000000000E+00 0.  1.
         11    1    3    3    0    0  0.63582213252E+01 -0.35534321179E+02 -0.53132167603E+01  0.36487603822E+02  0.51100000000E-03 0. -1.
        -11    1    3    3    0    0 -0.31691951074E+01 -0.41611230279E+01  0.66673038156E+00  0.52728808203E+01  0.51100000000E-03 0.  1.
         12    1    3    3    0    0  0.52603019932E+01 -0.27270708026E+01  0.11019296053E+01  0.60267687094E+01  0.00000000000E+00 0. -1.
</event>
<event>
 7    1  0.2740409E-010  0.4778727E+02  0.7816164E-02  0.1312668E+00
        -11   -1    0    0    0    0  0.00000000000E+00  0.00000000000E+00  0.45593999997E+02  0.45594000000E+02  0.51100000000E-03 0.  1.
         11   -1    0    0    0    0 -0.00000000000E+00 -0.00000000000E+00 -0.45593999997E+02  0.45594000000E+02  0.51100000000E-03 0. -1.
    9900012    2    1    2    0    0 -0.30659008675E+02 -0.30654087621E+02 -0.19938022564E+01  0.47787272492E+02  0.20000006599E+02 0.  0.
        -12    1    1    2    0    0  0.30659008675E+02  0.30654087621E+02  0.19938022564E+01  0.43400727508E+02  0.00000000000E+00 0.  1.
         11    1    3    3    0    0 -0.42637532990E+00 -0.18323131647E+01  0.37147338030E+01  0.41639422359E+01  0.51100000000E-03 0. -1.
        -11    1    3    3    0    0 -0.21975580863E+02 -0.13590072509E+02 -0.20817555021E+01  0.25921997054E+02  0.51100000000E-03 0.  1.
         12    1    3    3    0    0 -0.82570524825E+01 -0.15231701947E+02 -0.36267805573E+01  0.17701333202E+02  0.00000000000E+00 0. -1.
</event>
<event>
 7    1  0.2740409E-010  0.4778727E+02  0.7816164E-02  0.1312668E+00
        -11   -1    0    0    0    0  0.00000000000E+00  0.00000000000E+00  0.45593999997E+02  0.45594000000E+02  0.51100000000E-03 0.  1.
         11   -1    0    0    0    0 -0.00000000000E+00 -0.00000000000E+00 -0.45593999997E+02  0.45594000000E+02  0.51100000000E-03 0. -1.
    9900012    2    1    2    0    0  0.28576914441E+02 -0.97490887080E+01 -0.31175926500E+02  0.47787272325E+02  0.20000005837E+02 0.  0.
        -12    1    1    2    0    0 -0.28576914441E+02  0.97490887080E+01  0.31175926500E+02  0.43400727675E+02  0.00000000000E+00 0.  1.
         11    1    3    3    0    0  0.28856117839E+01 -0.38324608033E+01 -0.13719465097E+02  0.14534037085E+02  0.51100000000E-03 0. -1.
        -11    1    3    3    0    0  0.10321980317E+02  0.12769828971E+01 -0.26517675516E+01  0.10733398082E+02  0.51100000000E-03 0.  1.
         12    1    3    3    0    0  0.15369322340E+02 -0.71936108018E+01 -0.14804693851E+02  0.22519837157E+02  0.00000000000E+00 0. -1.
</event>
<event>
 7    1  0.2740409E-010  0.4778727E+02  0.7816164E-02  0.1312668E+00
        -11   -1    0    0    0    0  0.00000000000E+00  0.00000000000E+00  0.45593999997E+02  0.45594000000E+02  0.51100000000E-03 0.  1.
         11   -1    0    0    0    0 -0.00000000000E+00 -0.00000000000E+00 -0.45593999997E+02  0.45594000000E+02  0.51100000000E-03 0. -1.
    9900012    2    1    2    0    0  0.38129653976E+02 -0.14662511559E+02 -0.14654807287E+02  0.47787272654E+02  0.20000007340E+02 0.  0.
        -12    1    1    2    0    0 -0.38129653976E+02  0.14662511559E+02  0.14654807287E+02  0.43400727346E+02  0.00000000000E+00 0.  1.
         11    1    3    3    0    0  0.28307841058E+02 -0.16344150803E+02 -0.41244123245E+01  0.32946561401E+02  0.51100000000E-03 0. -1.
        -11    1    3    3    0    0  0.45212399492E+01  0.51509722932E+00 -0.70572936801E+01  0.83971620315E+01  0.51100000000E-03 0.  1.
         12    1    3    3    0    0  0.53005729681E+01  0.11665420146E+01 -0.34731012821E+01  0.64435492221E+01  0.00000000000E+00 0. -1.
</event>
<event>
 7    1  0.2740409E-010  0.4778727E+02  0.7816164E-02  0.1312668E+00
        -11   -1    0    0    0    0  0.00000000000E+00  0.00000000000E+00  0.45593999997E+02  0.45594000000E+02  0.51100000000E-03 0. -1.
         11   -1    0    0    0    0 -0.00000000000E+00 -0.00000000000E+00 -0.45593999997E+02  0.45594000000E+02  0.51100000000E-03 0.  1.
    9900012    2    1    2    0    0  0.13111926711E+02 -0.32448094750E+02  0.25667528559E+02  0.47787268471E+02  0.19999988266E+02 0.  0.
        -12    1    1    2    0    0 -0.13111926711E+02  0.32448094750E+02 -0.25667528559E+02  0.43400731529E+02  0.00000000000E+00 0.  1.
         11    1    3    3    0    0 -0.35523192248E+01 -0.10436314102E+02  0.70144126352E+01  0.13066660200E+02  0.51100000000E-03 0. -1.
        -11    1    3    3    0    0  0.37222229004E+01 -0.12813037470E+02  0.73808103603E+01  0.15248122322E+02  0.51100000000E-03 0.  1.
         12    1    3    3    0    0  0.12942023035E+02 -0.91987431785E+01  0.11272305563E+02  0.19472485949E+02  0.00000000000E+00 0. -1.
</event>
<event>
 7    1  0.2740409E-010  0.4778727E+02  0.7816164E-02  0.1312668E+00
        -11   -1    0    0    0    0  0.00000000000E+00  0.00000000000E+00  0.45593999997E+02  0.45594000000E+02  0.51100000000E-03 0.  1.
         11   -1    0    0    0    0 -0.00000000000E+00 -0.00000000000E+00 -0.45593999997E+02  0.45594000000E+02  0.51100000000E-03 0. -1.
    9900012    2    1    2    0    0  0.11444772597E+02 -0.36031395943E+02 -0.21316167896E+02  0.47787270431E+02  0.19999997202E+02 0.  0.
        -12    1    1    2    0    0 -0.11444772597E+02  0.36031395943E+02  0.21316167896E+02  0.43400729569E+02  0.00000000000E+00 0.  1.
         11    1    3    3    0    0 -0.14443172905E+01 -0.19842354799E+02 -0.17667927154E+02  0.26607531764E+02  0.51100000000E-03 0. -1.
        -11    1    3    3    0    0  0.93743266403E+00 -0.11912730920E+01  0.42528445413E+00  0.15744137663E+01  0.51100000000E-03 0.  1.
         12    1    3    3    0    0  0.11951657223E+02 -0.14997768052E+02 -0.40735251956E+01  0.19605324900E+02  0.00000000000E+00 0. -1.
</event>
<event>
 7    1  0.2740409E-010  0.4778727E+02  0.7816164E-02  0.1312668E+00
        -11   -1    0    0    0    0  0.00000000000E+00  0.00000000000E+00  0.45593999997E+02  0.45594000000E+02  0.51100000000E-03 0.  1.
         11   -1    0    0    0    0 -0.00000000000E+00 -0.00000000000E+00 -0.45593999997E+02  0.45594000000E+02  0.51100000000E-03 0. -1.
    9900012    2    1    2    0    0  0.36115463784E+02 -0.23556099503E+02 -0.49403317693E+01  0.47787269291E+02  0.19999992005E+02 0.  0.
        -12    1    1    2    0    0 -0.36115463784E+02  0.23556099503E+02  0.49403317693E+01  0.43400730709E+02  0.00000000000E+00 0.  1.
         11    1    3    3    0    0  0.11448943079E+02 -0.12378811274E+02 -0.53668726559E+01  0.17695100693E+02  0.51100000000E-03 0. -1.
        -11    1    3    3    0    0  0.20329057537E+02 -0.65491993341E+01  0.54021474525E+01  0.22030564895E+02  0.51100000000E-03 0.  1.
        -12    1    3    3    0    0  0.43374631681E+01 -0.46280888949E+01 -0.49756065659E+01  0.80616037023E+01  0.00000000000E+00 0.  1.
</event>
<event>
 7    1  0.2740409E-010  0.4778728E+02  0.7816164E-02  0.1312668E+00
        -11   -1    0    0    0    0  0.00000000000E+00  0.00000000000E+00  0.45593999997E+02  0.45594000000E+02  0.51100000000E-03 0. -1.
         11   -1    0    0    0    0 -0.00000000000E+00 -0.00000000000E+00 -0.45593999997E+02  0.45594000000E+02  0.51100000000E-03 0.  1.
    9900012    2    1    2    0    0  0.34163067257E+02 -0.13934905773E+02  0.22854448944E+02  0.47787278809E+02  0.20000035402E+02 0.  0.
        -12    1    1    2    0    0 -0.34163067257E+02  0.13934905773E+02 -0.22854448944E+02  0.43400721191E+02  0.00000000000E+00 0.  1.
         11    1    3    3    0    0  0.17835234781E+02 -0.92184685982E+01  0.16255935559E+02  0.25832754483E+02  0.51100000000E-03 0. -1.
        -11    1    3    3    0    0 -0.96833934329E+00  0.75272210679E+00 -0.16261623251E+01  0.20368298462E+01  0.51100000000E-03 0.  1.
         12    1    3    3    0    0  0.17296171819E+02 -0.54691592821E+01  0.82246757101E+01  0.19917694480E+02  0.00000000000E+00 0. -1.
</event>
<event>
 7    1  0.2740409E-010  0.4778725E+02  0.7816164E-02  0.1312668E+00
        -11   -1    0    0    0    0  0.00000000000E+00  0.00000000000E+00  0.45593999997E+02  0.45594000000E+02  0.51100000000E-03 0.  1.
         11   -1    0    0    0    0 -0.00000000000E+00 -0.00000000000E+00 -0.45593999997E+02  0.45594000000E+02  0.51100000000E-03 0. -1.
    9900012    2    1    2    0    0  0.15790540558E+02 -0.26990527774E+02 -0.30096436435E+02  0.47787248316E+02  0.19999896373E+02 0.  0.
        -12    1    1    2    0    0 -0.15790540558E+02  0.26990527774E+02  0.30096436435E+02  0.43400751684E+02  0.00000000000E+00 0.  1.
         11    1    3    3    0    0  0.92745372737E+01 -0.15679953354E+01 -0.80309646517E+01  0.12368186792E+02  0.51100000000E-03 0. -1.
        -11    1    3    3    0    0  0.29278911005E+01 -0.15180521891E+02 -0.73070765096E+01  0.17100121595E+02  0.51100000000E-03 0.  1.
         12    1    3    3    0    0  0.35881121842E+01 -0.10242010547E+02 -0.14758395274E+02  0.18318939929E+02  0.00000000000E+00 0. -1.
</event>
<event>
 7    1  0.2740409E-010  0.4778728E+02  0.7816164E-02  0.1312668E+00
        -11   -1    0    0    0    0  0.00000000000E+00  0.00000000000E+00  0.45593999997E+02  0.45594000000E+02  0.51100000000E-03 0.  1.
         11   -1    0    0    0    0 -0.00000000000E+00 -0.00000000000E+00 -0.45593999997E+02  0.45594000000E+02  0.51100000000E-03 0. -1.
    9900012    2    1    2    0    0 -0.85405314708E+01 -0.13987313831E+02 -0.40187525590E+02  0.47787276054E+02  0.20000022839E+02 0.  0.
        -12    1    1    2    0    0  0.85405314708E+01  0.13987313831E+02  0.40187525590E+02  0.43400723946E+02  0.00000000000E+00 0.  1.
         11    1    3    3    0    0 -0.21470237948E+01 -0.88896152877E+01 -0.27376009780E+02  0.28863140558E+02  0.51100000000E-03 0. -1.
        -11    1    3    3    0    0  0.11093518316E+01 -0.70716745150E-01  0.15810327159E+01  0.19326994216E+01  0.51100000000E-03 0.  1.
        -12    1    3    3    0    0 -0.75028595076E+01 -0.50269817984E+01 -0.14392548526E+02  0.16991436074E+02  0.00000000000E+00 0.  1.
</event>
<event>
 7    1  0.2740409E-010  0.4778729E+02  0.7816164E-02  0.1312668E+00
        -11   -1    0    0    0    0  0.00000000000E+00  0.00000000000E+00  0.45593999997E+02  0.45594000000E+02  0.51100000000E-03 0.  1.
         11   -1    0    0    0    0 -0.00000000000E+00 -0.00000000000E+00 -0.45593999997E+02  0.45594000000E+02  0.51100000000E-03 0. -1.
    9900012    2    1    2    0    0 -0.27751667334E+02  0.25660863595E+02 -0.21330423067E+02  0.47787286774E+02  0.20000071719E+02 0.  0.
        -12    1    1    2    0    0  0.27751667334E+02 -0.25660863595E+02  0.21330423067E+02  0.43400713226E+02  0.00000000000E+00 0.  1.
         11    1    3    3    0    0 -0.17704106220E+01  0.50467388767E+00  0.30106707437E+01  0.35289074926E+01  0.51100000000E-03 0.  1.
        -11    1    3    3    0    0 -0.15829195303E+02  0.15581644962E+02 -0.19286650111E+02  0.29416423243E+02  0.51100000000E-03 0. -1.
         12    1    3    3    0    0 -0.10152061409E+02  0.95745447450E+01 -0.50544436996E+01  0.14841956038E+02  0.00000000000E+00 0. -1.
</event>
<event>
 7    1  0.2740409E-010  0.4778727E+02  0.7816164E-02  0.1312668E+00
        -11   -1    0    0    0    0  0.00000000000E+00  0.00000000000E+00  0.45593999997E+02  0.45594000000E+02  0.51100000000E-03 0. -1.
         11   -1    0    0    0    0 -0.00000000000E+00 -0.00000000000E+00 -0.45593999997E+02  0.45594000000E+02  0.51100000000E-03 0.  1.
    9900012    2    1    2    0    0 -0.43056783939E+02  0.53177320570E+01  0.12076286530E+01  0.47787270924E+02  0.19999999451E+02 0.  0.
        -12    1    1    2    0    0  0.43056783939E+02 -0.53177320570E+01 -0.12076286530E+01  0.43400729076E+02  0.00000000000E+00 0.  1.
         11    1    3    3    0    0 -0.13385104383E+02  0.94418881041E+01 -0.14466350982E+01  0.16443935773E+02  0.51100000000E-03 0. -1.
        -11    1    3    3    0    0 -0.16910075757E+02 -0.37518300162E+01  0.56686456576E+01  0.18225269118E+02  0.51100000000E-03 0.  1.
        -12    1    3    3    0    0 -0.12761603799E+02 -0.37232603089E+00 -0.30143819064E+01  0.13118066034E+02  0.00000000000E+00 0.  1.
</event>
<event>
 7    1  0.2740409E-010  0.4778727E+02  0.7816164E-02  0.1312668E+00
        -11   -1    0    0    0    0  0.00000000000E+00  0.00000000000E+00  0.45593999997E+02  0.45594000000E+02  0.51100000000E-03 0. -1.
         11   -1    0    0    0    0 -0.00000000000E+00 -0.00000000000E+00 -0.45593999997E+02  0.45594000000E+02  0.51100000000E-03 0.  1.
    9900012    2    1    2    0    0 -0.23504503941E+02 -0.29399050615E+02  0.21606883361E+02  0.47787270845E+02  0.19999999093E+02 0.  0.
        -12    1    1    2    0    0  0.23504503941E+02  0.29399050615E+02 -0.21606883361E+02  0.43400729155E+02  0.00000000000E+00 0.  1.
         11    1    3    3    0    0 -0.62262498860E+01 -0.84063182928E+01  0.58101181885E+01  0.11966196075E+02  0.51100000000E-03 0. -1.
        -11    1    3    3    0    0 -0.12242048575E+02 -0.23479882299E+02  0.13799639102E+02  0.29859716437E+02  0.51100000000E-03 0.  1.
        -12    1    3    3    0    0 -0.50362054794E+01  0.24871499765E+01  0.19971260700E+01  0.59613583331E+01  0.00000000000E+00 0.  1.
</event>
<event>
 7    1  0.2740409E-010  0.4778727E+02  0.7816164E-02  0.1312668E+00
        -11   -1    0    0    0    0  0.00000000000E+00  0.00000000000E+00  0.45593999997E+02  0.45594000000E+02  0.51100000000E-03 0.  1.
         11   -1    0    0    0    0 -0.00000000000E+00 -0.00000000000E+00 -0.45593999997E+02  0.45594000000E+02  0.51100000000E-03 0. -1.
    9900012    2    1    2    0    0  0.74707792269E+01  0.16701698904E+02 -0.39355608486E+02  0.47787271805E+02  0.20000003467E+02 0.  0.
        -12    1    1    2    0    0 -0.74707792269E+01 -0.16701698904E+02  0.39355608486E+02  0.43400728195E+02  0.00000000000E+00 0.  1.
         11    1    3    3    0    0  0.37012841591E+01  0.73745601299E+01 -0.28634917549E+01  0.87340269537E+01  0.51100000000E-03 0. -1.
        -11    1    3    3    0    0  0.62671168637E+00  0.84421303120E+00  0.35666909082E+00  0.11102595558E+01  0.51100000000E-03 0.  1.
         12    1    3    3    0    0  0.31427833814E+01  0.84829257430E+01 -0.36848785822E+02  0.37942985295E+02  0.00000000000E+00 0. -1.
</event>
<event>
 7    1  0.2740409E-010  0.4778727E+02  0.7816164E-02  0.1312668E+00
        -11   -1    0    0    0    0  0.00000000000E+00  0.00000000000E+00  0.45593999997E+02  0.45594000000E+02  0.51100000000E-03 0.  1.
         11   -1    0    0    0    0 -0.00000000000E+00 -0.00000000000E+00 -0.45593999997E+02  0.45594000000E+02  0.51100000000E-03 0. -1.
    9900012    2    1    2    0    0 -0.20144377027E+02  0.24916842103E+02 -0.29274186813E+02  0.47787274663E+02  0.20000016499E+02 0.  0.
        -12    1    1    2    0    0  0.20144377027E+02 -0.24916842103E+02  0.29274186813E+02  0.43400725337E+02  0.00000000000E+00 0.  1.
         11    1    3    3    0    0 -0.17792481196E+02  0.23469348918E+02 -0.21511329146E+02  0.36470810351E+02  0.51100000000E-03 0. -1.
        -11    1    3    3    0    0  0.25850102370E+01 -0.92034170839E+00 -0.29157780644E+01  0.40038817125E+01  0.51100000000E-03 0.  1.
        -12    1    3    3    0    0 -0.49369060685E+01  0.23678348937E+01 -0.48470796021E+01  0.73125826001E+01  0.00000000000E+00 0.  1.
</event>
<event>
 7    1  0.2740409E-010  0.4778727E+02  0.7816164E-02  0.1312668E+00
        -11   -1    0    0    0    0  0.00000000000E+00  0.00000000000E+00  0.45593999997E+02  0.45594000000E+02  0.51100000000E-03 0.  1.
         11   -1    0    0    0    0 -0.00000000000E+00 -0.00000000000E+00 -0.45593999997E+02  0.45594000000E+02  0.51100000000E-03 0. -1.
    9900012    2    1    2    0    0  0.18868157699E+02 -0.52914912066E+01 -0.38724877118E+02  0.47787270030E+02  0.19999995374E+02 0.  0.
        -12    1    1    2    0    0 -0.18868157699E+02  0.52914912066E+01  0.38724877118E+02  0.43400729970E+02  0.00000000000E+00 0.  1.
         11    1    3    3    0    0  0.14596343127E+02 -0.94220969299E+01 -0.18866155851E+02  0.25646851271E+02  0.51100000000E-03 0. -1.
        -11    1    3    3    0    0  0.44978822188E+01  0.49856450615E+01 -0.20125926599E+02  0.21216515333E+02  0.51100000000E-03 0.  1.
        -12    1    3    3    0    0 -0.22606764681E+00 -0.85503933822E+00  0.26720533275E+00  0.92390342606E+00  0.00000000000E+00 0.  1.
</event>
<event>
 7    1  0.2740409E-010  0.4778727E+02  0.7816164E-02  0.1312668E+00
        -11   -1    0    0    0    0  0.00000000000E+00  0.00000000000E+00  0.45593999997E+02  0.45594000000E+02  0.51100000000E-03 0.  1.
         11   -1    0    0    0    0 -0.00000000000E+00 -0.00000000000E+00 -0.45593999997E+02  0.45594000000E+02  0.51100000000E-03 0. -1.
    9900012    2    1    2    0    0 -0.15614124899E+01  0.36117236876E+02 -0.24015207321E+02  0.47787274301E+02  0.20000014850E+02 0.  0.
        -12    1    1    2    0    0  0.15614124899E+01 -0.36117236876E+02  0.24015207321E+02  0.43400725699E+02  0.00000000000E+00 0.  1.
         11    1    3    3    0    0  0.60659337473E+00  0.31825341423E+00  0.16589126603E+01  0.17947791601E+01  0.51100000000E-03 0. -1.
        -11    1    3    3    0    0 -0.31375984120E+00  0.12200503764E+02 -0.17365327682E+01  0.12327460551E+02  0.51100000000E-03 0.  1.
         12    1    3    3    0    0 -0.18542460234E+01  0.23598479697E+02 -0.23937587213E+02  0.33665034590E+02  0.00000000000E+00 0. -1.
</event>
<event>
 7    1  0.2740409E-010  0.4778728E+02  0.7816164E-02  0.1312668E+00
        -11   -1    0    0    0    0  0.00000000000E+00  0.00000000000E+00  0.45593999997E+02  0.45594000000E+02  0.51100000000E-03 0.  1.
         11   -1    0    0    0    0 -0.00000000000E+00 -0.00000000000E+00 -0.45593999997E+02  0.45594000000E+02  0.51100000000E-03 0. -1.
    9900012    2    1    2    0    0 -0.22414953649E+02 -0.33987917405E+02 -0.15033767398E+02  0.47787276057E+02  0.20000022854E+02 0.  0.
        -12    1    1    2    0    0  0.22414953649E+02  0.33987917405E+02  0.15033767398E+02  0.43400723943E+02  0.00000000000E+00 0.  1.
         11    1    3    3    0    0  0.52941012654E+00 -0.14292960476E+02 -0.18520570095E+01  0.14422174235E+02  0.51100000000E-03 0. -1.
        -11    1    3    3    0    0 -0.10729495285E+02 -0.80847993275E+01 -0.84122136357E+01  0.15850911259E+02  0.51100000000E-03 0.  1.
         12    1    3    3    0    0 -0.12214868491E+02 -0.11610157602E+02 -0.47694967527E+01  0.17514190563E+02  0.00000000000E+00 0. -1.
</event>
<event>
 7    1  0.2740409E-010  0.4778727E+02  0.7816164E-02  0.1312668E+00
        -11   -1    0    0    0    0  0.00000000000E+00  0.00000000000E+00  0.45593999997E+02  0.45594000000E+02  0.51100000000E-03 0. -1.
         11   -1    0    0    0    0 -0.00000000000E+00 -0.00000000000E+00 -0.45593999997E+02  0.45594000000E+02  0.51100000000E-03 0.  1.
    9900012    2    1    2    0    0  0.32282969101E+02 -0.16780091934E+02 -0.23661399088E+02  0.47787269751E+02  0.19999994103E+02 0.  0.
        -12    1    1    2    0    0 -0.32282969101E+02  0.16780091934E+02  0.23661399088E+02  0.43400730249E+02  0.00000000000E+00 0.  1.
         11    1    3    3    0    0  0.17714730691E+02 -0.19396603205E+02 -0.14064231103E+02  0.29796685992E+02  0.51100000000E-03 0. -1.
        -11    1    3    3    0    0  0.57738526494E+01  0.20482287974E+01 -0.56511189415E+01  0.83347322198E+01  0.51100000000E-03 0.  1.
         12    1    3    3    0    0  0.87943857611E+01  0.56828247374E+00 -0.39460490441E+01  0.96558515390E+01  0.00000000000E+00 0. -1.
</event>
<event>
 7    1  0.2740409E-010  0.4778729E+02  0.7816164E-02  0.1312668E+00
        -11   -1    0    0    0    0  0.00000000000E+00  0.00000000000E+00  0.45593999997E+02  0.45594000000E+02  0.51100000000E-03 0.  1.
         11   -1    0    0    0    0 -0.00000000000E+00 -0.00000000000E+00 -0.45593999997E+02  0.45594000000E+02  0.51100000000E-03 0. -1.
    9900012    2    1    2    0    0  0.32571054840E+02 -0.27915831231E+02  0.65920197366E+01  0.47787286055E+02  0.20000068439E+02 0.  0.
        -12    1    1    2    0    0 -0.32571054840E+02  0.27915831231E+02 -0.65920197366E+01  0.43400713945E+02  0.00000000000E+00 0.  1.
         11    1    3    3    0    0  0.17227284549E+02 -0.74727727426E+01  0.91236289100E+01  0.20877314725E+02  0.51100000000E-03 0. -1.
        -11    1    3    3    0    0  0.76378226972E+01 -0.60058008734E+01  0.20193136026E+01  0.99238907376E+01  0.51100000000E-03 0.  1.
         12    1    3    3    0    0  0.77059475940E+01 -0.14437257615E+02 -0.45509227760E+01  0.16986080592E+02  0.00000000000E+00 0. -1.
</event>
<event>
 7    1  0.2740409E-010  0.4778728E+02  0.7816164E-02  0.1312668E+00
        -11   -1    0    0    0    0  0.00000000000E+00  0.00000000000E+00  0.45593999997E+02  0.45594000000E+02  0.51100000000E-03 0.  1.
         11   -1    0    0    0    0 -0.00000000000E+00 -0.00000000000E+00 -0.45593999997E+02  0.45594000000E+02  0.51100000000E-03 0. -1.
    9900012    2    1    2    0    0  0.74996297072E+01  0.31493847239E+02 -0.28905294342E+02  0.47787275344E+02  0.20000019605E+02 0.  0.
        -12    1    1    2    0    0 -0.74996297072E+01 -0.31493847239E+02  0.28905294342E+02  0.43400724656E+02  0.00000000000E+00 0.  1.
         11    1    3    3    0    0  0.78741713715E+01  0.29018538765E+02 -0.23937249004E+02  0.38432669137E+02  0.51100000000E-03 0. -1.
        -11    1    3    3    0    0 -0.77251996175E+00  0.15858004672E+01  0.17979683556E+01  0.25187776167E+01  0.51100000000E-03 0.  1.
         12    1    3    3    0    0  0.39797829744E+00  0.88950800614E+00 -0.67660136937E+01  0.68358285907E+01  0.00000000000E+00 0. -1.
</event>
<event>
 7    1  0.2740409E-010  0.4778727E+02  0.7816164E-02  0.1312668E+00
        -11   -1    0    0    0    0  0.00000000000E+00  0.00000000000E+00  0.45593999997E+02  0.45594000000E+02  0.51100000000E-03 0.  1.
         11   -1    0    0    0    0 -0.00000000000E+00 -0.00000000000E+00 -0.45593999997E+02  0.45594000000E+02  0.51100000000E-03 0. -1.
    9900012    2    1    2    0    0  0.38715487906E+02  0.25517706704E+01 -0.19447944105E+02  0.47787273424E+02  0.20000010852E+02 0.  0.
        -12    1    1    2    0    0 -0.38715487906E+02 -0.25517706704E+01  0.19447944105E+02  0.43400726576E+02  0.00000000000E+00 0.  1.
         11    1    3    3    0    0  0.26621167479E+02 -0.20333406287E+01 -0.20042555861E+02  0.33384503557E+02  0.51100000000E-03 0. -1.
        -11    1    3    3    0    0  0.97300142666E+01  0.60027985131E+01  0.14309991256E+01  0.11521915048E+02  0.51100000000E-03 0.  1.
         12    1    3    3    0    0  0.23643061608E+01 -0.14176872140E+01 -0.83638736998E+00  0.28808548196E+01  0.00000000000E+00 0. -1.
</event>
<event>
 7    1  0.2740409E-010  0.4778727E+02  0.7816164E-02  0.1312668E+00
        -11   -1    0    0    0    0  0.00000000000E+00  0.00000000000E+00  0.45593999997E+02  0.45594000000E+02  0.51100000000E-03 0.  1.
         11   -1    0    0    0    0 -0.00000000000E+00 -0.00000000000E+00 -0.45593999997E+02  0.45594000000E+02  0.51100000000E-03 0. -1.
    9900012    2    1    2    0    0  0.36273507353E+02  0.14475759878E+02 -0.18929037109E+02  0.47787269527E+02  0.19999993080E+02 0.  0.
        -12    1    1    2    0    0 -0.36273507353E+02 -0.14475759878E+02  0.18929037109E+02  0.43400730473E+02  0.00000000000E+00 0.  1.
         11    1    3    3    0    0  0.18975955848E+02  0.74519929564E+00 -0.81563301213E+01  0.20668041602E+02  0.51100000000E-03 0. -1.
        -11    1    3    3    0    0  0.18033211085E+01  0.47514625674E+01  0.16283208157E+01  0.53366461837E+01  0.51100000000E-03 0.  1.
        -12    1    3    3    0    0  0.15494230396E+02  0.89790980146E+01 -0.12401027803E+02  0.21782581741E+02  0.00000000000E+00 0.  1.
</event>
<event>
 7    1  0.2740409E-010  0.4778727E+02  0.7816164E-02  0.1312668E+00
        -11   -1    0    0    0    0  0.00000000000E+00  0.00000000000E+00  0.45593999997E+02  0.45594000000E+02  0.51100000000E-03 0.  1.
         11   -1    0    0    0    0 -0.00000000000E+00 -0.00000000000E+00 -0.45593999997E+02  0.45594000000E+02  0.51100000000E-03 0. -1.
    9900012    2    1    2    0    0  0.56048822535E+01  0.15652232252E+02 -0.40090106295E+02  0.47787266109E+02  0.19999977496E+02 0.  0.
        -12    1    1    2    0    0 -0.56048822535E+01 -0.15652232252E+02  0.40090106295E+02  0.43400733891E+02  0.00000000000E+00 0.  1.
         11    1    3    3    0    0 -0.31312286746E+01  0.79601567268E+01 -0.31566558252E+02  0.32704988737E+02  0.51100000000E-03 0. -1.
        -11    1    3    3    0    0  0.53681880843E+01  0.44671020447E+01 -0.23982191483E+01  0.73840300196E+01  0.51100000000E-03 0.  1.
         12    1    3    3    0    0  0.33679228438E+01  0.32249734801E+01 -0.61253288947E+01  0.76982473523E+01  0.00000000000E+00 0. -1.
</event>
<event>
 7    1  0.2740409E-010  0.4778727E+02  0.7816164E-02  0.1312668E+00
        -11   -1    0    0    0    0  0.00000000000E+00  0.00000000000E+00  0.45593999997E+02  0.45594000000E+02  0.51100000000E-03 0.  1.
         11   -1    0    0    0    0 -0.00000000000E+00 -0.00000000000E+00 -0.45593999997E+02  0.45594000000E+02  0.51100000000E-03 0. -1.
    9900012    2    1    2    0    0 -0.22766530345E+02  0.22084505907E+02 -0.29624032014E+02  0.47787267542E+02  0.19999984030E+02 0.  0.
        -12    1    1    2    0    0  0.22766530345E+02 -0.22084505907E+02  0.29624032014E+02  0.43400732458E+02  0.00000000000E+00 0.  1.
         11    1    3    3    0    0 -0.12856289727E+02  0.49218556682E+01 -0.22217965437E+02  0.26137077824E+02  0.51100000000E-03 0. -1.
        -11    1    3    3    0    0 -0.27919869878E+01  0.75219259141E+01 -0.10699621235E+01  0.80944042403E+01  0.51100000000E-03 0.  1.
         12    1    3    3    0    0 -0.71182536306E+01  0.96407243250E+01 -0.63361044530E+01  0.13555785477E+02  0.00000000000E+00 0. -1.
</event>
<event>
 7    1  0.2740409E-010  0.4778727E+02  0.7816164E-02  0.1312668E+00
        -11   -1    0    0    0    0  0.00000000000E+00  0.00000000000E+00  0.45593999997E+02  0.45594000000E+02  0.51100000000E-03 0.  1.
         11   -1    0    0    0    0 -0.00000000000E+00 -0.00000000000E+00 -0.45593999997E+02  0.45594000000E+02  0.51100000000E-03 0. -1.
    9900012    2    1    2    0    0  0.23074307137E+02  0.11478303274E+02 -0.34920597879E+02  0.47787271295E+02  0.20000001141E+02 0.  0.
        -12    1    1    2    0    0 -0.23074307137E+02 -0.11478303274E+02  0.34920597879E+02  0.43400728705E+02  0.00000000000E+00 0.  1.
         11    1    3    3    0    0  0.18079655881E+02  0.85785628864E+01 -0.25392823915E+02  0.32330499603E+02  0.51100000000E-03 0. -1.
        -11    1    3    3    0    0 -0.90772386069E+00  0.32418180640E+00 -0.89381772422E+01  0.89899982828E+01  0.51100000000E-03 0.  1.
         12    1    3    3    0    0  0.59023751167E+01  0.25755585816E+01 -0.58959672259E+00  0.64667734088E+01  0.00000000000E+00 0. -1.
</event>
<event>
 7    1  0.2740409E-010  0.4778728E+02  0.7816164E-02  0.1312668E+00
        -11   -1    0    0    0    0  0.00000000000E+00  0.00000000000E+00  0.45593999997E+02  0.45594000000E+02  0.51100000000E-03 0.  1.
         11   -1    0    0    0    0 -0.00000000000E+00 -0.00000000000E+00 -0.45593999997E+02  0.45594000000E+02  0.51100000000E-03 0. -1.
    9900012    2    1    2    0    0  0.95011815252E+01 -0.25763301749E+01 -0.42269527838E+02  0.47787275223E+02  0.20000019052E+02 0.  0.
        -12    1    1    2    0    0 -0.95011815252E+01  0.25763301749E+01  0.42269527838E+02  0.43400724777E+02  0.00000000000E+00 0.  1.
         11    1    3    3    0    0  0.36147180612E+01 -0.88169127875E+01 -0.19808259625E+02  0.21981157554E+02  0.51100000000E-03 0. -1.
        -11    1    3    3    0    0  0.63851299559E+01  0.78872344290E+01 -0.21636707080E+02  0.23898231002E+02  0.51100000000E-03 0.  1.
        -12    1    3    3    0    0 -0.49866649198E+00 -0.16466518164E+01 -0.82456113225E+00  0.19078866673E+01  0.00000000000E+00 0.  1.
</event>
<event>
 7    1  0.2740409E-010  0.4778727E+02  0.7816164E-02  0.1312668E+00
        -11   -1    0    0    0    0  0.00000000000E+00  0.00000000000E+00  0.45593999997E+02  0.45594000000E+02  0.51100000000E-03 0. -1.
         11   -1    0    0    0    0 -0.00000000000E+00 -0.00000000000E+00 -0.45593999997E+02  0.45594000000E+02  0.51100000000E-03 0.  1.
    9900012    2    1    2    0    0 -0.10200486425E+02  0.37528528562E+02  0.19266103895E+02  0.47787272602E+02  0.20000007104E+02 0.  0.
        -12    1    1    2    0    0  0.10200486425E+02 -0.37528528562E+02 -0.19266103895E+02  0.43400727398E+02  0.00000000000E+00 0.  1.
         11    1    3    3    0    0 -0.10939509686E+02  0.21697555407E+02  0.11113951769E+02  0.26720342569E+02  0.51100000000E-03 0. -1.
        -11    1    3    3    0    0 -0.10828645075E+01 -0.14007695791E+01  0.20199523518E+01  0.26860675196E+01  0.51100000000E-03 0.  1.
         12    1    3    3    0    0  0.18218877682E+01  0.17231742734E+02  0.61321997747E+01  0.18380862514E+02  0.00000000000E+00 0. -1.
</event>
<event>
 7    1  0.2740409E-010  0.4778725E+02  0.7816164E-02  0.1312668E+00
        -11   -1    0    0    0    0  0.00000000000E+00  0.00000000000E+00  0.45593999997E+02  0.45594000000E+02  0.51100000000E-03 0.  1.
         11   -1    0    0    0    0 -0.00000000000E+00 -0.00000000000E+00 -0.45593999997E+02  0.45594000000E+02  0.51100000000E-03 0. -1.
    9900012    2    1    2    0    0 -0.16346553767E+00 -0.43375435314E+02  0.14729550573E+01  0.47787254543E+02  0.19999924763E+02 0.  0.
        -12    1    1    2    0    0  0.16346553767E+00  0.43375435314E+02 -0.14729550573E+01  0.43400745457E+02  0.00000000000E+00 0.  1.
         11    1    3    3    0    0 -0.29761446005E+01 -0.25400009775E+02 -0.78271423497E+01  0.26744758195E+02  0.51100000000E-03 0. -1.
        -11    1    3    3    0    0  0.35540615875E+01 -0.15294117664E+02  0.62111354140E+01  0.16885484662E+02  0.51100000000E-03 0.  1.
         12    1    3    3    0    0 -0.74138252466E+00 -0.26813078744E+01  0.30889619930E+01  0.41570116862E+01  0.00000000000E+00 0. -1.
</event>
<event>
 7    1  0.2740409E-010  0.4778727E+02  0.7816164E-02  0.1312668E+00
        -11   -1    0    0    0    0  0.00000000000E+00  0.00000000000E+00  0.45593999997E+02  0.45594000000E+02  0.51100000000E-03 0.  1.
         11   -1    0    0    0    0 -0.00000000000E+00 -0.00000000000E+00 -0.45593999997E+02  0.45594000000E+02  0.51100000000E-03 0. -1.
    9900012    2    1    2    0    0 -0.13204921617E+01 -0.31402985838E+02 -0.29928787768E+02  0.47787267790E+02  0.19999985161E+02 0.  0.
        -12    1    1    2    0    0  0.13204921617E+01  0.31402985838E+02  0.29928787768E+02  0.43400732210E+02  0.00000000000E+00 0.  1.
         11    1    3    3    0    0  0.57960074562E+01 -0.11777519648E+02 -0.11741267239E+02  0.17611389160E+02  0.51100000000E-03 0. -1.
        -11    1    3    3    0    0 -0.56049058874E+01 -0.91260562683E+01 -0.21121765954E+01  0.10916096521E+02  0.51100000000E-03 0.  1.
         12    1    3    3    0    0 -0.15115937306E+01 -0.10499409922E+02 -0.16075343934E+02  0.19259782109E+02  0.00000000000E+00 0. -1.
</event>
<event>
 7    1  0.2740409E-010  0.4778727E+02  0.7816164E-02  0.1312668E+00
        -11   -1    0    0    0    0  0.00000000000E+00  0.00000000000E+00  0.45593999997E+02  0.45594000000E+02  0.51100000000E-03 0. -1.
         11   -1    0    0    0    0 -0.00000000000E+00 -0.00000000000E+00 -0.45593999997E+02  0.45594000000E+02  0.51100000000E-03 0.  1.
    9900012    2    1    2    0    0 -0.27044084875E+02 -0.13578155283E+02 -0.31110678951E+02  0.47787272213E+02  0.20000005329E+02 0.  0.
        -12    1    1    2    0    0  0.27044084875E+02  0.13578155283E+02  0.31110678951E+02  0.43400727787E+02  0.00000000000E+00 0.  1.
         11    1    3    3    0    0 -0.13369279739E+02 -0.48097947444E+01 -0.32537139321E+01  0.14575953514E+02  0.51100000000E-03 0. -1.
        -11    1    3    3    0    0 -0.11358769519E+02 -0.80475537280E+01 -0.27413528244E+02  0.30745508566E+02  0.51100000000E-03 0.  1.
        -12    1    3    3    0    0 -0.23160356170E+01 -0.72080681098E+00 -0.44343677543E+00  0.24658101330E+01  0.00000000000E+00 0.  1.
</event>
<event>
 7    1  0.2740409E-010  0.4778727E+02  0.7816164E-02  0.1312668E+00
        -11   -1    0    0    0    0  0.00000000000E+00  0.00000000000E+00  0.45593999997E+02  0.45594000000E+02  0.51100000000E-03 0.  1.
         11   -1    0    0    0    0 -0.00000000000E+00 -0.00000000000E+00 -0.45593999997E+02  0.45594000000E+02  0.51100000000E-03 0. -1.
    9900012    2    1    2    0    0  0.15882157481E+02 -0.17109320223E+02 -0.36587586592E+02  0.47787271235E+02  0.20000000867E+02 0.  0.
        -12    1    1    2    0    0 -0.15882157481E+02  0.17109320223E+02  0.36587586592E+02  0.43400728765E+02  0.00000000000E+00 0.  1.
         11    1    3    3    0    0  0.12645199249E+02 -0.10588034115E+02 -0.33642580489E+02  0.37467729484E+02  0.51100000000E-03 0. -1.
        -11    1    3    3    0    0 -0.10388800911E+01  0.67401341639E+00  0.40677484698E+00  0.13034692042E+01  0.51100000000E-03 0.  1.
         12    1    3    3    0    0  0.42758383235E+01 -0.71952995251E+01 -0.33517809495E+01  0.90160725461E+01  0.00000000000E+00 0. -1.
</event>
<event>
 7    1  0.2740409E-010  0.4778727E+02  0.7816164E-02  0.1312668E+00
        -11   -1    0    0    0    0  0.00000000000E+00  0.00000000000E+00  0.45593999997E+02  0.45594000000E+02  0.51100000000E-03 0.  1.
         11   -1    0    0    0    0 -0.00000000000E+00 -0.00000000000E+00 -0.45593999997E+02  0.45594000000E+02  0.51100000000E-03 0. -1.
    9900012    2    1    2    0    0  0.28724272732E+02 -0.45633374891E+01 -0.32213590533E+02  0.47787270651E+02  0.19999998206E+02 0.  0.
        -12    1    1    2    0    0 -0.28724272732E+02  0.45633374891E+01  0.32213590533E+02  0.43400729349E+02  0.00000000000E+00 0.  1.
         11    1    3    3    0    0  0.12590673104E+02  0.49708386517E+01 -0.13892608197E+02  0.19396877298E+02  0.51100000000E-03 0. -1.
        -11    1    3    3    0    0 -0.60488080912E+00 -0.38612268631E+01 -0.22929509316E+01  0.45312887700E+01  0.51100000000E-03 0.  1.
         12    1    3    3    0    0  0.16738480437E+02 -0.56729492776E+01 -0.16028031404E+02  0.23859104583E+02  0.00000000000E+00 0. -1.
</event>
<event>
 7    1  0.2740409E-010  0.4778728E+02  0.7816164E-02  0.1312668E+00
        -11   -1    0    0    0    0  0.00000000000E+00  0.00000000000E+00  0.45593999997E+02  0.45594000000E+02  0.51100000000E-03 0.  1.
         11   -1    0    0    0    0 -0.00000000000E+00 -0.00000000000E+00 -0.45593999997E+02  0.45594000000E+02  0.51100000000E-03 0. -1.
    9900012    2    1    2    0    0 -0.16558745930E+02 -0.39455733023E+02  0.72578224715E+01  0.47787275096E+02  0.20000018472E+02 0.  0.
        -12    1    1    2    0    0  0.16558745930E+02  0.39455733023E+02 -0.72578224715E+01  0.43400724904E+02  0.00000000000E+00 0.  1.
         11    1    3    3    0    0 -0.13694560300E+02 -0.16360900152E+02  0.69177157560E+01  0.22429329619E+02  0.51100000000E-03 0. -1.
        -11    1    3    3    0    0 -0.28376800457E+01 -0.10945680044E+01  0.13651721685E+01  0.33337970047E+01  0.51100000000E-03 0.  1.
         12    1    3    3    0    0 -0.26505584124E-01 -0.22000264867E+02 -0.10250654529E+01  0.22024148473E+02  0.00000000000E+00 0. -1.
</event>
<event>
 7    1  0.2740409E-010  0.4778727E+02  0.7816164E-02  0.1312668E+00
        -11   -1    0    0    0    0  0.00000000000E+00  0.00000000000E+00  0.45593999997E+02  0.45594000000E+02  0.51100000000E-03 0. -1.
         11   -1    0    0    0    0 -0.00000000000E+00 -0.00000000000E+00 -0.45593999997E+02  0.45594000000E+02  0.51100000000E-03 0.  1.
    9900012    2    1    2    0    0  0.29085906276E+02 -0.44951634142E+01  0.31897131701E+02  0.47787269030E+02  0.19999990813E+02 0.  0.
        -12    1    1    2    0    0 -0.29085906276E+02  0.44951634142E+01 -0.31897131701E+02  0.43400730970E+02  0.00000000000E+00 0.  1.
         11    1    3    3    0    0  0.19631095648E+02  0.30707575467E+00  0.24014668254E+02  0.31019002296E+02  0.51100000000E-03 0. -1.
        -11    1    3    3    0    0  0.75238424096E-02 -0.17659377321E+01 -0.20652895305E+01  0.27173541889E+01  0.51100000000E-03 0.  1.
        -12    1    3    3    0    0  0.94472867854E+01 -0.30363014368E+01  0.99477529781E+01  0.14050912545E+02  0.00000000000E+00 0.  1.
</event>
<event>
 7    1  0.2740409E-010  0.4778728E+02  0.7816164E-02  0.1312668E+00
        -11   -1    0    0    0    0  0.00000000000E+00  0.00000000000E+00  0.45593999997E+02  0.45594000000E+02  0.51100000000E-03 0.  1.
         11   -1    0    0    0    0 -0.00000000000E+00 -0.00000000000E+00 -0.45593999997E+02  0.45594000000E+02  0.51100000000E-03 0. -1.
    9900012    2    1    2    0    0  0.36484128613E+02 -0.20560629336E+02  0.11392598432E+02  0.47787280901E+02  0.20000044938E+02 0.  0.
        -12    1    1    2    0    0 -0.36484128613E+02  0.20560629336E+02 -0.11392598432E+02  0.43400719099E+02  0.00000000000E+00 0.  1.
         11    1    3    3    0    0  0.28217019826E+02 -0.12407222944E+02  0.42967353247E+01  0.31122360510E+02  0.51100000000E-03 0. -1.
        -11    1    3    3    0    0 -0.86499993708E+00 -0.21095965641E+01  0.50275027350E+01  0.55203629017E+01  0.51100000000E-03 0.  1.
         12    1    3    3    0    0  0.91321087238E+01 -0.60438098285E+01  0.20683603719E+01  0.11144557488E+02  0.00000000000E+00 0. -1.
</event>
<event>
 7    1  0.2740409E-010  0.4778727E+02  0.7816164E-02  0.1312668E+00
        -11   -1    0    0    0    0  0.00000000000E+00  0.00000000000E+00  0.45593999997E+02  0.45594000000E+02  0.51100000000E-03 0.  1.
         11   -1    0    0    0    0 -0.00000000000E+00 -0.00000000000E+00 -0.45593999997E+02  0.45594000000E+02  0.51100000000E-03 0. -1.
    9900012    2    1    2    0    0 -0.32645784419E+02 -0.26809800822E+02 -0.99554324014E+01  0.47787270804E+02  0.19999998903E+02 0.  0.
        -12    1    1    2    0    0  0.32645784419E+02  0.26809800822E+02  0.99554324014E+01  0.43400729196E+02  0.00000000000E+00 0.  1.
         11    1    3    3    0    0 -0.30095238992E+02 -0.26352114103E+02 -0.10881174917E+02  0.41455485711E+02  0.51100000000E-03 0. -1.
        -11    1    3    3    0    0 -0.20093058652E+01  0.18834000842E+01  0.22784675230E+01  0.35743419606E+01  0.51100000000E-03 0.  1.
        -12    1    3    3    0    0 -0.54123956172E+00 -0.23410868029E+01 -0.13527250069E+01  0.27574431320E+01  0.00000000000E+00 0.  1.
</event>
<event>
 7    1  0.2740409E-010  0.4778727E+02  0.7816164E-02  0.1312668E+00
        -11   -1    0    0    0    0  0.00000000000E+00  0.00000000000E+00  0.45593999997E+02  0.45594000000E+02  0.51100000000E-03 0.  1.
         11   -1    0    0    0    0 -0.00000000000E+00 -0.00000000000E+00 -0.45593999997E+02  0.45594000000E+02  0.51100000000E-03 0. -1.
    9900012    2    1    2    0    0 -0.31649428825E+02 -0.62966081952E+01 -0.29022230056E+02  0.47787268933E+02  0.19999990373E+02 0.  0.
        -12    1    1    2    0    0  0.31649428825E+02  0.62966081952E+01  0.29022230056E+02  0.43400731067E+02  0.00000000000E+00 0.  1.
         11    1    3    3    0    0 -0.24986556355E+02 -0.77085454272E+01 -0.12497706120E+02  0.28981758567E+02  0.51100000000E-03 0. -1.
        -11    1    3    3    0    0 -0.38883384475E+01 -0.15729421016E+00 -0.14537493316E+02  0.15049339837E+02  0.51100000000E-03 0.  1.
         12    1    3    3    0    0 -0.27745340222E+01  0.15692314421E+01 -0.19870306199E+01  0.37561705291E+01  0.00000000000E+00 0. -1.
</event>
<event>
 7    1  0.2740409E-010  0.4778727E+02  0.7816164E-02  0.1312668E+00
        -11   -1    0    0    0    0  0.00000000000E+00  0.00000000000E+00  0.45593999997E+02  0.45594000000E+02  0.51100000000E-03 0.  1.
         11   -1    0    0    0    0 -0.00000000000E+00 -0.00000000000E+00 -0.45593999997E+02  0.45594000000E+02  0.51100000000E-03 0. -1.
    9900012    2    1    2    0    0  0.20682552327E+02  0.26786773235E+02 -0.27172126206E+02  0.47787266900E+02  0.19999981103E+02 0.  0.
        -12    1    1    2    0    0 -0.20682552327E+02 -0.26786773235E+02  0.27172126206E+02  0.43400733100E+02  0.00000000000E+00 0.  1.
         11    1    3    3    0    0  0.33623289926E+01  0.11568557911E+02 -0.86963789636E+01  0.14858122214E+02  0.51100000000E-03 0. -1.
        -11    1    3    3    0    0  0.13924701967E+02  0.11247499209E+02 -0.51655130408E+01  0.18630246605E+02  0.51100000000E-03 0.  1.
        -12    1    3    3    0    0  0.33955213669E+01  0.39707161154E+01 -0.13310234201E+02  0.14298898080E+02  0.00000000000E+00 0.  1.
</event>
<event>
 7    1  0.2740409E-010  0.4778728E+02  0.7816164E-02  0.1312668E+00
        -11   -1    0    0    0    0  0.00000000000E+00  0.00000000000E+00  0.45593999997E+02  0.45594000000E+02  0.51100000000E-03 0. -1.
         11   -1    0    0    0    0 -0.00000000000E+00 -0.00000000000E+00 -0.45593999997E+02  0.45594000000E+02  0.51100000000E-03 0.  1.
    9900012    2    1    2    0    0  0.26469196188E+02  0.22215568887E+02  0.26257816624E+02  0.47787276715E+02  0.20000025855E+02 0.  0.
        -12    1    1    2    0    0 -0.26469196188E+02 -0.22215568887E+02 -0.26257816624E+02  0.43400723285E+02  0.00000000000E+00 0.  1.
         11    1    3    3    0    0  0.39787525646E+01  0.16353175152E+01  0.72224029096E+00  0.43619223566E+01  0.51100000000E-03 0. -1.
        -11    1    3    3    0    0  0.21044977607E+02  0.10332458818E+02  0.22839696223E+02  0.32730757882E+02  0.51100000000E-03 0.  1.
        -12    1    3    3    0    0  0.14454660160E+01  0.10247792554E+02  0.26958801098E+01  0.10694596477E+02  0.00000000000E+00 0.  1.
</event>
<event>
 7    1  0.2740409E-010  0.4778725E+02  0.7816164E-02  0.1312668E+00
        -11   -1    0    0    0    0  0.00000000000E+00  0.00000000000E+00  0.45593999997E+02  0.45594000000E+02  0.51100000000E-03 0.  1.
         11   -1    0    0    0    0 -0.00000000000E+00 -0.00000000000E+00 -0.45593999997E+02  0.45594000000E+02  0.51100000000E-03 0. -1.
    9900012    2    1    2    0    0 -0.26643344629E+02  0.20439172042E+02 -0.27495413968E+02  0.47787247057E+02  0.19999890630E+02 0.  0.
        -12    1    1    2    0    0  0.26643344629E+02 -0.20439172042E+02  0.27495413968E+02  0.43400752943E+02  0.00000000000E+00 0.  1.
         11    1    3    3    0    0 -0.16861080895E+02  0.31007625917E+01 -0.11727514838E+02  0.20771263374E+02  0.51100000000E-03 0. -1.
        -11    1    3    3    0    0 -0.11520828680E+02  0.15988586027E+02 -0.13747914075E+02  0.24028514692E+02  0.51100000000E-03 0.  1.
         12    1    3    3    0    0  0.17385649469E+01  0.13498234234E+01 -0.20199850547E+01  0.29874689907E+01  0.00000000000E+00 0. -1.
</event>
<event>
 7    1  0.2740409E-010  0.4778728E+02  0.7816164E-02  0.1312668E+00
        -11   -1    0    0    0    0  0.00000000000E+00  0.00000000000E+00  0.45593999997E+02  0.45594000000E+02  0.51100000000E-03 0. -1.
         11   -1    0    0    0    0 -0.00000000000E+00 -0.00000000000E+00 -0.45593999997E+02  0.45594000000E+02  0.51100000000E-03 0.  1.
    9900012    2    1    2    0    0  0.29530217040E+02 -0.27754432601E+02 -0.15533211447E+02  0.47787275291E+02  0.20000019360E+02 0.  0.
        -12    1    1    2    0    0 -0.29530217040E+02  0.27754432601E+02  0.15533211447E+02  0.43400724709E+02  0.00000000000E+00 0.  1.
         11    1    3    3    0    0  0.27842870962E+02 -0.28241882269E+02 -0.18230643155E+02  0.43648433278E+02  0.51100000000E-03 0. -1.
        -11    1    3    3    0    0  0.80136917554E+00  0.15413991240E+01  0.17610132097E+01  0.24737161520E+01  0.51100000000E-03 0.  1.
         12    1    3    3    0    0  0.88597690273E+00 -0.10539494562E+01  0.93641849840E+00  0.16651258609E+01  0.00000000000E+00 0. -1.
</event>
<event>
 7    1  0.2740409E-010  0.4778729E+02  0.7816164E-02  0.1312668E+00
        -11   -1    0    0    0    0  0.00000000000E+00  0.00000000000E+00  0.45593999997E+02  0.45594000000E+02  0.51100000000E-03 0.  1.
         11   -1    0    0    0    0 -0.00000000000E+00 -0.00000000000E+00 -0.45593999997E+02  0.45594000000E+02  0.51100000000E-03 0. -1.
    9900012    2    1    2    0    0  0.34057516017E+02 -0.14980122129E+02 -0.22345090764E+02  0.47787291049E+02  0.20000091208E+02 0.  0.
        -12    1    1    2    0    0 -0.34057516017E+02  0.14980122129E+02  0.22345090764E+02  0.43400708951E+02  0.00000000000E+00 0.  1.
         11    1    3    3    0    0  0.14486864663E+02 -0.10268903401E+02 -0.12585437436E+02  0.21764945682E+02  0.51100000000E-03 0. -1.
        -11    1    3    3    0    0  0.16188825202E+02 -0.26142134589E+01 -0.10327309268E+01  0.16431028783E+02  0.51100000000E-03 0.  1.
        -12    1    3    3    0    0  0.33818261511E+01 -0.20970052682E+01 -0.87269224013E+01  0.95913165838E+01  0.00000000000E+00 0.  1.
</event>
<event>
 7    1  0.2740409E-010  0.4778727E+02  0.7816164E-02  0.1312668E+00
        -11   -1    0    0    0    0  0.00000000000E+00  0.00000000000E+00  0.45593999997E+02  0.45594000000E+02  0.51100000000E-03 0. -1.
         11   -1    0    0    0    0 -0.00000000000E+00 -0.00000000000E+00 -0.45593999997E+02  0.45594000000E+02  0.51100000000E-03 0.  1.
    9900012    2    1    2    0    0  0.18651965634E+02  0.23045366989E+02  0.31696034145E+02  0.47787270257E+02  0.19999996412E+02 0.  0.
        -12    1    1    2    0    0 -0.18651965634E+02 -0.23045366989E+02 -0.31696034145E+02  0.43400729743E+02  0.00000000000E+00 0.  1.
         11    1    3    3    0    0  0.91037763417E+01  0.12556296010E+02  0.26768978196E+02  0.30937315771E+02  0.51100000000E-03 0. -1.
        -11    1    3    3    0    0  0.59921579347E+00  0.30032963718E+01 -0.16271614978E+01  0.34679249509E+01  0.51100000000E-03 0.  1.
         12    1    3    3    0    0  0.89489734989E+01  0.74857746080E+01  0.65542174461E+01  0.13382029536E+02  0.00000000000E+00 0. -1.
</event>
<event>
 7    1  0.2740409E-010  0.4778727E+02  0.7816164E-02  0.1312668E+00
        -11   -1    0    0    0    0  0.00000000000E+00  0.00000000000E+00  0.45593999997E+02  0.45594000000E+02  0.51100000000E-03 0.  1.
         11   -1    0    0    0    0 -0.00000000000E+00 -0.00000000000E+00 -0.45593999997E+02  0.45594000000E+02  0.51100000000E-03 0. -1.
    9900012    2    1    2    0    0 -0.38975445271E+02  0.30607337031E+01 -0.18845956382E+02  0.47787268476E+02  0.19999988290E+02 0.  0.
        -12    1    1    2    0    0  0.38975445271E+02 -0.30607337031E+01  0.18845956382E+02  0.43400731524E+02  0.00000000000E+00 0.  1.
         11    1    3    3    0    0 -0.28816051035E+02  0.63521266092E+01 -0.45174143072E+01  0.29851655599E+02  0.51100000000E-03 0. -1.
        -11    1    3    3    0    0 -0.41238219741E+01 -0.12639518452E+01 -0.70550870251E+01  0.82690830891E+01  0.51100000000E-03 0.  1.
         12    1    3    3    0    0 -0.60355722613E+01 -0.20274410609E+01 -0.72734550502E+01  0.96665297881E+01  0.00000000000E+00 0. -1.
</event>
<event>
 7    1  0.2740409E-010  0.4778723E+02  0.7816164E-02  0.1312668E+00
        -11   -1    0    0    0    0  0.00000000000E+00  0.00000000000E+00  0.45593999997E+02  0.45594000000E+02  0.51100000000E-03 0.  1.
         11   -1    0    0    0    0 -0.00000000000E+00 -0.00000000000E+00 -0.45593999997E+02  0.45594000000E+02  0.51100000000E-03 0. -1.
    9900012    2    1    2    0    0  0.17323664441E+02  0.24138979658E+02 -0.31635852549E+02  0.47787229787E+02  0.19999811888E+02 0.  0.
        -12    1    1    2    0    0 -0.17323664441E+02 -0.24138979658E+02  0.31635852549E+02  0.43400770213E+02  0.00000000000E+00 0.  1.
         11    1    3    3    0    0 -0.22845848781E+01  0.56474852621E+00 -0.96008017149E+01  0.98850221443E+01  0.51100000000E-03 0. -1.
        -11    1    3    3    0    0  0.17763476390E+02  0.20187313020E+02 -0.18248277574E+02  0.32497205035E+02  0.51100000000E-03 0.  1.
         12    1    3    3    0    0  0.18447729291E+01  0.33869181117E+01 -0.37867732608E+01  0.54050026072E+01  0.00000000000E+00 0. -1.
</event>
<event>
 7    1  0.2740409E-010  0.4778727E+02  0.7816164E-02  0.1312668E+00
        -11   -1    0    0    0    0  0.00000000000E+00  0.00000000000E+00  0.45593999997E+02  0.45594000000E+02  0.51100000000E-03 0.  1.
         11   -1    0    0    0    0 -0.00000000000E+00 -0.00000000000E+00 -0.45593999997E+02  0.45594000000E+02  0.51100000000E-03 0. -1.
    9900012    2    1    2    0    0  0.28138337602E+02  0.21468380370E+02 -0.25119033734E+02  0.47787271268E+02  0.20000001019E+02 0.  0.
        -12    1    1    2    0    0 -0.28138337602E+02 -0.21468380370E+02  0.25119033734E+02  0.43400728732E+02  0.00000000000E+00 0.  1.
         11    1    3    3    0    0  0.14670184143E+02  0.83074957235E+01 -0.32207544010E+01  0.17163975273E+02  0.51100000000E-03 0. -1.
        -11    1    3    3    0    0  0.92632081993E+01  0.50551708533E+01 -0.17621959664E+02  0.20540088636E+02  0.51100000000E-03 0.  1.
        -12    1    3    3    0    0  0.42049452595E+01  0.81057137936E+01 -0.42763196694E+01  0.10083207359E+02  0.00000000000E+00 0.  1.
</event>
<event>
 7    1  0.2740409E-010  0.4778727E+02  0.7816164E-02  0.1312668E+00
        -11   -1    0    0    0    0  0.00000000000E+00  0.00000000000E+00  0.45593999997E+02  0.45594000000E+02  0.51100000000E-03 0.  1.
         11   -1    0    0    0    0 -0.00000000000E+00 -0.00000000000E+00 -0.45593999997E+02  0.45594000000E+02  0.51100000000E-03 0. -1.
    9900012    2    1    2    0    0 -0.34100849027E+02  0.26399869279E+02 -0.48787659829E+01  0.47787270054E+02  0.19999995484E+02 0.  0.
        -12    1    1    2    0    0  0.34100849027E+02 -0.26399869279E+02  0.48787659829E+01  0.43400729946E+02  0.00000000000E+00 0.  1.
         11    1    3    3    0    0 -0.23954338103E+02  0.21608490008E+02 -0.41580035404E+01  0.32527313877E+02  0.51100000000E-03 0. -1.
        -11    1    3    3    0    0  0.53747363017E+00 -0.21621988877E+01  0.91366791202E+00  0.24080637964E+01  0.51100000000E-03 0.  1.
        -12    1    3    3    0    0 -0.10683984554E+02  0.69535781591E+01 -0.16344303545E+01  0.12851892380E+02  0.00000000000E+00 0.  1.
</event>
<event>
 7    1  0.2740409E-010  0.4778727E+02  0.7816164E-02  0.1312668E+00
        -11   -1    0    0    0    0  0.00000000000E+00  0.00000000000E+00  0.45593999997E+02  0.45594000000E+02  0.51100000000E-03 0.  1.
         11   -1    0    0    0    0 -0.00000000000E+00 -0.00000000000E+00 -0.45593999997E+02  0.45594000000E+02  0.51100000000E-03 0. -1.
    9900012    2    1    2    0    0  0.27327608094E+02 -0.28871876990E+02 -0.17413788968E+02  0.47787268540E+02  0.19999988582E+02 0.  0.
        -12    1    1    2    0    0 -0.27327608094E+02  0.28871876990E+02  0.17413788968E+02  0.43400731460E+02  0.00000000000E+00 0.  1.
         11    1    3    3    0    0  0.21493281170E+02 -0.13054773199E+02 -0.55445826393E+01  0.25751322988E+02  0.51100000000E-03 0. -1.
        -11    1    3    3    0    0  0.61843609249E+01 -0.16579033226E+02 -0.11587598213E+02  0.21151432467E+02  0.51100000000E-03 0.  1.
         12    1    3    3    0    0 -0.35003400149E+00  0.76192943590E+00 -0.28160811495E+00  0.88451308521E+00  0.00000000000E+00 0. -1.
</event>
<event>
 7    1  0.2740409E-010  0.4778727E+02  0.7816164E-02  0.1312668E+00
        -11   -1    0    0    0    0  0.00000000000E+00  0.00000000000E+00  0.45593999997E+02  0.45594000000E+02  0.51100000000E-03 0.  1.
         11   -1    0    0    0    0 -0.00000000000E+00 -0.00000000000E+00 -0.45593999997E+02  0.45594000000E+02  0.51100000000E-03 0. -1.
    9900012    2    1    2    0    0 -0.20452940633E+02 -0.46790897649E+00 -0.38276381114E+02  0.47787273387E+02  0.20000010681E+02 0.  0.
        -12    1    1    2    0    0  0.20452940633E+02  0.46790897649E+00  0.38276381114E+02  0.43400726613E+02  0.00000000000E+00 0.  1.
         11    1    3    3    0    0 -0.17852568066E+02 -0.35979441253E+01 -0.24163953164E+02  0.30258156276E+02  0.51100000000E-03 0. -1.
        -11    1    3    3    0    0 -0.57929680379E+01  0.25210280589E+01 -0.56938966051E+01  0.85049703099E+01  0.51100000000E-03 0.  1.
         12    1    3    3    0    0  0.31925954709E+01  0.60900708999E+00 -0.84185313450E+01  0.90241468008E+01  0.00000000000E+00 0. -1.
</event>
<event>
 7    1  0.2740409E-010  0.4778726E+02  0.7816164E-02  0.1312668E+00
        -11   -1    0    0    0    0  0.00000000000E+00  0.00000000000E+00  0.45593999997E+02  0.45594000000E+02  0.51100000000E-03 0.  1.
         11   -1    0    0    0    0 -0.00000000000E+00 -0.00000000000E+00 -0.45593999997E+02  0.45594000000E+02  0.51100000000E-03 0. -1.
    9900012    2    1    2    0    0 -0.17810089137E+02 -0.37762106705E+02 -0.11851072145E+02  0.47787263959E+02  0.19999967695E+02 0.  0.
        -12    1    1    2    0    0  0.17810089137E+02  0.37762106705E+02  0.11851072145E+02  0.43400736041E+02  0.00000000000E+00 0.  1.
         11    1    3    3    0    0 -0.11495408685E+02 -0.29112481205E+02 -0.14211667510E+02  0.34375172384E+02  0.51100000000E-03 0. -1.
        -11    1    3    3    0    0 -0.52339807185E+01 -0.88907312476E+01  0.43013276969E+01  0.11177704438E+02  0.51100000000E-03 0.  1.
        -12    1    3    3    0    0 -0.10806997335E+01  0.24110574723E+00 -0.19407323323E+01  0.22343871377E+01  0.00000000000E+00 0.  1.
</event>
<event>
 7    1  0.2740409E-010  0.4778727E+02  0.7816164E-02  0.1312668E+00
        -11   -1    0    0    0    0  0.00000000000E+00  0.00000000000E+00  0.45593999997E+02  0.45594000000E+02  0.51100000000E-03 0. -1.
         11   -1    0    0    0    0 -0.00000000000E+00 -0.00000000000E+00 -0.45593999997E+02  0.45594000000E+02  0.51100000000E-03 0.  1.
    9900012    2    1    2    0    0 -0.37904065590E+02 -0.13329712854E+02  0.16408038819E+02  0.47787272230E+02  0.20000005407E+02 0.  0.
        -12    1    1    2    0    0  0.37904065590E+02  0.13329712854E+02 -0.16408038819E+02  0.43400727770E+02  0.00000000000E+00 0.  1.
         11    1    3    3    0    0 -0.54236619314E+01  0.90753377976E+00  0.27857181022E+01  0.61644101026E+01  0.51100000000E-03 0. -1.
        -11    1    3    3    0    0 -0.12811383618E+02 -0.71468318085E+00 -0.21546157959E+01  0.13010945075E+02  0.51100000000E-03 0.  1.
        -12    1    3    3    0    0 -0.19669020041E+02 -0.13522563452E+02  0.15776936513E+02  0.28611917053E+02  0.00000000000E+00 0.  1.
</event>
<event>
 7    1  0.2740409E-010  0.4778726E+02  0.7816164E-02  0.1312668E+00
        -11   -1    0    0    0    0  0.00000000000E+00  0.00000000000E+00  0.45593999997E+02  0.45594000000E+02  0.51100000000E-03 0. -1.
         11   -1    0    0    0    0 -0.00000000000E+00 -0.00000000000E+00 -0.45593999997E+02  0.45594000000E+02  0.51100000000E-03 0.  1.
    9900012    2    1    2    0    0 -0.10466217030E+02 -0.27684284813E+02  0.31743703559E+02  0.47787262216E+02  0.19999959749E+02 0.  0.
        -12    1    1    2    0    0  0.10466217030E+02  0.27684284813E+02 -0.31743703559E+02  0.43400737784E+02  0.00000000000E+00 0.  1.
         11    1    3    3    0    0  0.38908455420E+00  0.13555510551E+01  0.73558540860E+01  0.74898261027E+01  0.51100000000E-03 0. -1.
        -11    1    3    3    0    0 -0.52092404310E+01 -0.13123866394E+02  0.60306799643E+01  0.15353864533E+02  0.51100000000E-03 0.  1.
         12    1    3    3    0    0 -0.56460611535E+01 -0.15915969474E+02  0.18357169509E+02  0.24943571581E+02  0.00000000000E+00 0. -1.
</event>
<event>
 7    1  0.2740409E-010  0.4778727E+02  0.7816164E-02  0.1312668E+00
        -11   -1    0    0    0    0  0.00000000000E+00  0.00000000000E+00  0.45593999997E+02  0.45594000000E+02  0.51100000000E-03 0.  1.
         11   -1    0    0    0    0 -0.00000000000E+00 -0.00000000000E+00 -0.45593999997E+02  0.45594000000E+02  0.51100000000E-03 0. -1.
    9900012    2    1    2    0    0 -0.51505656702E+00  0.22132266764E+02 -0.37329890581E+02  0.47787271364E+02  0.20000001457E+02 0.  0.
        -12    1    1    2    0    0  0.51505656702E+00 -0.22132266764E+02  0.37329890581E+02  0.43400728636E+02  0.00000000000E+00 0.  1.
         11    1    3    3    0    0  0.23074396081E+01  0.11644181523E+01 -0.12007647627E+02  0.12282660501E+02  0.51100000000E-03 0. -1.
        -11    1    3    3    0    0 -0.78500124036E-01  0.21942552419E+02 -0.22913077084E+02  0.31725240277E+02  0.51100000000E-03 0.  1.
        -12    1    3    3    0    0 -0.27439960511E+01 -0.97470380749E+00 -0.24091658699E+01  0.37793705864E+01  0.00000000000E+00 0.  1.
</event>
<event>
 7    1  0.2740409E-010  0.4778727E+02  0.7816164E-02  0.1312668E+00
        -11   -1    0    0    0    0  0.00000000000E+00  0.00000000000E+00  0.45593999997E+02  0.45594000000E+02  0.51100000000E-03 0.  1.
         11   -1    0    0    0    0 -0.00000000000E+00 -0.00000000000E+00 -0.45593999997E+02  0.45594000000E+02  0.51100000000E-03 0. -1.
    9900012    2    1    2    0    0 -0.12263003923E+02  0.56623248000E+00 -0.41628371996E+02  0.47787271441E+02  0.20000001807E+02 0.  0.
        -12    1    1    2    0    0  0.12263003923E+02 -0.56623248000E+00  0.41628371996E+02  0.43400728559E+02  0.00000000000E+00 0.  1.
         11    1    3    3    0    0  0.43251449960E+01  0.92117432946E+00 -0.11726830210E+02  0.12532916197E+02  0.51100000000E-03 0. -1.
        -11    1    3    3    0    0 -0.14988565752E+02  0.26936062745E+01 -0.24104123552E+02  0.28511776349E+02  0.51100000000E-03 0.  1.
         12    1    3    3    0    0 -0.15995831670E+01 -0.30485481239E+01 -0.57974182340E+01  0.67425788947E+01  0.00000000000E+00 0. -1.
</event>
<event>
 7    1  0.2740409E-010  0.4778727E+02  0.7816164E-02  0.1312668E+00
        -11   -1    0    0    0    0  0.00000000000E+00  0.00000000000E+00  0.45593999997E+02  0.45594000000E+02  0.51100000000E-03 0.  1.
         11   -1    0    0    0    0 -0.00000000000E+00 -0.00000000000E+00 -0.45593999997E+02  0.45594000000E+02  0.51100000000E-03 0. -1.
    9900012    2    1    2    0    0  0.74971274086E+01 -0.11096224583E+02 -0.41283048131E+02  0.47787272098E+02  0.20000004805E+02 0.  0.
        -12    1    1    2    0    0 -0.74971274086E+01  0.11096224583E+02  0.41283048131E+02  0.43400727902E+02  0.00000000000E+00 0.  1.
         11    1    3    3    0    0  0.57688239924E+01 -0.16525574686E+02 -0.33835148217E+02  0.38094503594E+02  0.51100000000E-03 0. -1.
        -11    1    3    3    0    0 -0.83831728403E-01  0.30634642579E+01 -0.26854040976E+01  0.40747069154E+01  0.51100000000E-03 0.  1.
         12    1    3    3    0    0  0.18121351446E+01  0.23658858446E+01 -0.47624958165E+01  0.56180615887E+01  0.00000000000E+00 0. -1.
</event>
<event>
 7    1  0.2740409E-010  0.4778727E+02  0.7816164E-02  0.1312668E+00
        -11   -1    0    0    0    0  0.00000000000E+00  0.00000000000E+00  0.45593999997E+02  0.45594000000E+02  0.51100000000E-03 0.  1.
         11   -1    0    0    0    0 -0.00000000000E+00 -0.00000000000E+00 -0.45593999997E+02  0.45594000000E+02  0.51100000000E-03 0. -1.
    9900012    2    1    2    0    0 -0.25174837987E+02  0.11169142209E+02 -0.33542527129E+02  0.47787270380E+02  0.19999996969E+02 0.  0.
        -12    1    1    2    0    0  0.25174837987E+02 -0.11169142209E+02  0.33542527129E+02  0.43400729620E+02  0.00000000000E+00 0.  1.
         11    1    3    3    0    0 -0.25146151746E+01  0.70363530982E+00 -0.12321977821E+02  0.12595615499E+02  0.51100000000E-03 0. -1.
        -11    1    3    3    0    0 -0.74005979546E+01  0.43256697949E+01 -0.29749562117E+00  0.85772240944E+01  0.51100000000E-03 0.  1.
        -12    1    3    3    0    0 -0.15259624858E+02  0.61398371047E+01 -0.20923053687E+02  0.26614430786E+02  0.00000000000E+00 0.  1.
</event>
<event>
 7    1  0.2740409E-010  0.4778727E+02  0.7816164E-02  0.1312668E+00
        -11   -1    0    0    0    0  0.00000000000E+00  0.00000000000E+00  0.45593999997E+02  0.45594000000E+02  0.51100000000E-03 0.  1.
         11   -1    0    0    0    0 -0.00000000000E+00 -0.00000000000E+00 -0.45593999997E+02  0.45594000000E+02  0.51100000000E-03 0. -1.
    9900012    2    1    2    0    0 -0.26089027626E+02  0.16774884042E+02 -0.30357687834E+02  0.47787270655E+02  0.19999998225E+02 0.  0.
        -12    1    1    2    0    0  0.26089027626E+02 -0.16774884042E+02  0.30357687834E+02  0.43400729345E+02  0.00000000000E+00 0.  1.
         11    1    3    3    0    0 -0.11143121586E+02  0.31330318058E+01 -0.11879896134E+02  0.16586650638E+02  0.51100000000E-03 0. -1.
        -11    1    3    3    0    0 -0.86591173406E+01  0.55080578850E+01 -0.24034414310E+00  0.10265319301E+02  0.51100000000E-03 0.  1.
        -12    1    3    3    0    0 -0.62867886989E+01  0.81337943514E+01 -0.18237447556E+02  0.20935300716E+02  0.00000000000E+00 0.  1.
</event>
<event>
 7    1  0.2740409E-010  0.4778727E+02  0.7816164E-02  0.1312668E+00
        -11   -1    0    0    0    0  0.00000000000E+00  0.00000000000E+00  0.45593999997E+02  0.45594000000E+02  0.51100000000E-03 0.  1.
         11   -1    0    0    0    0 -0.00000000000E+00 -0.00000000000E+00 -0.45593999997E+02  0.45594000000E+02  0.51100000000E-03 0. -1.
    9900012    2    1    2    0    0 -0.15925122385E+02  0.43982326476E+01 -0.40133143284E+02  0.47787272319E+02  0.20000005811E+02 0.  0.
        -12    1    1    2    0    0  0.15925122385E+02 -0.43982326476E+01  0.40133143284E+02  0.43400727681E+02  0.00000000000E+00 0.  1.
         11    1    3    3    0    0 -0.23460498458E+01  0.48894854154E+01 -0.42594399440E+00  0.54398939378E+01  0.51100000000E-03 0. -1.
        -11    1    3    3    0    0 -0.10465032190E+02 -0.12275816736E+01 -0.22497703515E+02  0.24842916882E+02  0.51100000000E-03 0.  1.
         12    1    3    3    0    0 -0.31140403490E+01  0.73632890582E+00 -0.17209495775E+02  0.17504461499E+02  0.00000000000E+00 0. -1.
</event>
<event>
 7    1  0.2740409E-010  0.4778727E+02  0.7816164E-02  0.1312668E+00
        -11   -1    0    0    0    0  0.00000000000E+00  0.00000000000E+00  0.45593999997E+02  0.45594000000E+02  0.51100000000E-03 0.  1.
         11   -1    0    0    0    0 -0.00000000000E+00 -0.00000000000E+00 -0.45593999997E+02  0.45594000000E+02  0.51100000000E-03 0. -1.
    9900012    2    1    2    0    0 -0.38784122597E+02 -0.11354176851E+02 -0.15827124486E+02  0.47787269971E+02  0.19999995106E+02 0.  0.
        -12    1    1    2    0    0  0.38784122597E+02  0.11354176851E+02  0.15827124486E+02  0.43400730029E+02  0.00000000000E+00 0.  1.
         11    1    3    3    0    0 -0.32010616224E+02 -0.44442178168E+01 -0.92336774019E+01  0.33610882489E+02  0.51100000000E-03 0. -1.
        -11    1    3    3    0    0 -0.50177588915E+01 -0.86948508928E+01 -0.54672730077E+01  0.11431072161E+02  0.51100000000E-03 0.  1.
         12    1    3    3    0    0 -0.17557474807E+01  0.17848918588E+01 -0.11261740761E+01  0.27453153213E+01  0.00000000000E+00 0. -1.
</event>
<event>
 7    1  0.2740409E-010  0.4778726E+02  0.7816164E-02  0.1312668E+00
        -11   -1    0    0    0    0  0.00000000000E+00  0.00000000000E+00  0.45593999997E+02  0.45594000000E+02  0.51100000000E-03 0. -1.
         11   -1    0    0    0    0 -0.00000000000E+00 -0.00000000000E+00 -0.45593999997E+02  0.45594000000E+02  0.51100000000E-03 0.  1.
    9900012    2    1    2    0    0 -0.35652379553E+02 -0.10295579315E+02  0.22506281766E+02  0.47787264521E+02  0.19999970257E+02 0.  0.
        -12    1    1    2    0    0  0.35652379553E+02  0.10295579315E+02 -0.22506281766E+02  0.43400735479E+02  0.00000000000E+00 0.  1.
         11    1    3    3    0    0 -0.20083590203E+02 -0.48632303723E+01  0.20164502128E+02  0.28872283446E+02  0.51100000000E-03 0. -1.
        -11    1    3    3    0    0 -0.17034821234E+01  0.82548839450E+00 -0.23296834067E+01  0.30017840480E+01  0.51100000000E-03 0.  1.
         12    1    3    3    0    0 -0.13865307226E+02 -0.62578373375E+01  0.46714630450E+01  0.15913197026E+02  0.00000000000E+00 0. -1.
</event>
<event>
 7    1  0.2740409E-010  0.4778727E+02  0.7816164E-02  0.1312668E+00
        -11   -1    0    0    0    0  0.00000000000E+00  0.00000000000E+00  0.45593999997E+02  0.45594000000E+02  0.51100000000E-03 0.  1.
         11   -1    0    0    0    0 -0.00000000000E+00 -0.00000000000E+00 -0.45593999997E+02  0.45594000000E+02  0.51100000000E-03 0. -1.
    9900012    2    1    2    0    0  0.40363832052E+02 -0.12586196553E+02 -0.97965289705E+01  0.47787271188E+02  0.20000000653E+02 0.  0.
        -12    1    1    2    0    0 -0.40363832052E+02  0.12586196553E+02  0.97965289705E+01  0.43400728812E+02  0.00000000000E+00 0.  1.
         11    1    3    3    0    0  0.15355958441E+02 -0.96788438984E+01 -0.10509513639E+02  0.20974636017E+02  0.51100000000E-03 0. -1.
        -11    1    3    3    0    0  0.83653619896E+01 -0.15163572302E+01  0.45990708721E+01  0.96659233193E+01  0.51100000000E-03 0.  1.
         12    1    3    3    0    0  0.16642511621E+02 -0.13909954242E+01 -0.38860862039E+01  0.17146711852E+02  0.00000000000E+00 0. -1.
</event>
<event>
 7    1  0.2740409E-010  0.4778732E+02  0.7816164E-02  0.1312668E+00
        -11   -1    0    0    0    0  0.00000000000E+00  0.00000000000E+00  0.45593999997E+02  0.45594000000E+02  0.51100000000E-03 0.  1.
         11   -1    0    0    0    0 -0.00000000000E+00 -0.00000000000E+00 -0.45593999997E+02  0.45594000000E+02  0.51100000000E-03 0. -1.
    9900012    2    1    2    0    0  0.12469247799E+02  0.21042223668E+02 -0.35851944730E+02  0.47787317304E+02  0.20000210914E+02 0.  0.
        -12    1    1    2    0    0 -0.12469247799E+02 -0.21042223668E+02  0.35851944730E+02  0.43400682696E+02  0.00000000000E+00 0.  1.
         11    1    3    3    0    0  0.45897874124E+01  0.52236735960E+00 -0.64974186999E+01  0.79721682228E+01  0.51100000000E-03 0. -1.
        -11    1    3    3    0    0  0.23854379904E+01  0.10222115897E+02 -0.25413697023E+02  0.27496144538E+02  0.51100000000E-03 0.  1.
        -12    1    3    3    0    0  0.54940223962E+01  0.10297740412E+02 -0.39408290074E+01  0.12319004543E+02  0.00000000000E+00 0.  1.
</event>
<event>
 7    1  0.2740409E-010  0.4778727E+02  0.7816164E-02  0.1312668E+00
        -11   -1    0    0    0    0  0.00000000000E+00  0.00000000000E+00  0.45593999997E+02  0.45594000000E+02  0.51100000000E-03 0.  1.
         11   -1    0    0    0    0 -0.00000000000E+00 -0.00000000000E+00 -0.45593999997E+02  0.45594000000E+02  0.51100000000E-03 0. -1.
    9900012    2    1    2    0    0  0.20298566380E+02  0.12208151522E+02 -0.36366915129E+02  0.47787271012E+02  0.19999999853E+02 0.  0.
        -12    1    1    2    0    0 -0.20298566380E+02 -0.12208151522E+02  0.36366915129E+02  0.43400728988E+02  0.00000000000E+00 0.  1.
         11    1    3    3    0    0  0.74383393112E+01  0.43266630525E+01 -0.30060072797E+02  0.31267505205E+02  0.51100000000E-03 0. -1.
        -11    1    3    3    0    0  0.11550238485E+02  0.77252654104E+01 -0.53495722905E+01  0.14889783701E+02  0.51100000000E-03 0.  1.
         12    1    3    3    0    0  0.13099885842E+01  0.15622305880E+00 -0.95727004130E+00  0.16299821062E+01  0.00000000000E+00 0. -1.
</event>
<event>
 7    1  0.2740409E-010  0.4778727E+02  0.7816164E-02  0.1312668E+00
        -11   -1    0    0    0    0  0.00000000000E+00  0.00000000000E+00  0.45593999997E+02  0.45594000000E+02  0.51100000000E-03 0.  1.
         11   -1    0    0    0    0 -0.00000000000E+00 -0.00000000000E+00 -0.45593999997E+02  0.45594000000E+02  0.51100000000E-03 0. -1.
    9900012    2    1    2    0    0 -0.29135795526E+00  0.95711540663E+01 -0.42331210632E+02  0.47787271053E+02  0.20000000037E+02 0.  0.
        -12    1    1    2    0    0  0.29135795526E+00 -0.95711540663E+01  0.42331210632E+02  0.43400728947E+02  0.00000000000E+00 0.  1.
         11    1    3    3    0    0  0.63887570760E+01 -0.44574881302E+00 -0.26868702083E+02  0.27621405845E+02  0.51100000000E-03 0. -1.
        -11    1    3    3    0    0 -0.46823112188E+01  0.39993827739E+01 -0.50004028230E+01  0.79324100735E+01  0.51100000000E-03 0.  1.
         12    1    3    3    0    0 -0.19978038125E+01  0.60175201054E+01 -0.10462105726E+02  0.12233455134E+02  0.00000000000E+00 0. -1.
</event>
<event>
 7    1  0.2740409E-010  0.4778727E+02  0.7816164E-02  0.1312668E+00
        -11   -1    0    0    0    0  0.00000000000E+00  0.00000000000E+00  0.45593999997E+02  0.45594000000E+02  0.51100000000E-03 0. -1.
         11   -1    0    0    0    0 -0.00000000000E+00 -0.00000000000E+00 -0.45593999997E+02  0.45594000000E+02  0.51100000000E-03 0.  1.
    9900012    2    1    2    0    0  0.42248722301E+02  0.72148441061E+01  0.68275085447E+01  0.47787269771E+02  0.19999994193E+02 0.  0.
        -12    1    1    2    0    0 -0.42248722301E+02 -0.72148441061E+01 -0.68275085447E+01  0.43400730229E+02  0.00000000000E+00 0.  1.
         11    1    3    3    0    0  0.26931186958E+02 -0.28171168807E+01  0.68737408641E+01  0.27936952092E+02  0.51100000000E-03 0. -1.
        -11    1    3    3    0    0  0.20697953096E+01  0.31947377849E+01 -0.27539356653E+01  0.46983575905E+01  0.51100000000E-03 0.  1.
         12    1    3    3    0    0  0.13247740033E+02  0.68372232019E+01  0.27077033459E+01  0.15151960088E+02  0.00000000000E+00 0. -1.
</event>
<event>
 7    1  0.2740409E-010  0.4778727E+02  0.7816164E-02  0.1312668E+00
        -11   -1    0    0    0    0  0.00000000000E+00  0.00000000000E+00  0.45593999997E+02  0.45594000000E+02  0.51100000000E-03 0.  1.
         11   -1    0    0    0    0 -0.00000000000E+00 -0.00000000000E+00 -0.45593999997E+02  0.45594000000E+02  0.51100000000E-03 0. -1.
    9900012    2    1    2    0    0 -0.21837352345E+02  0.61927489240E+01 -0.36991936363E+02  0.47787268985E+02  0.19999990612E+02 0.  0.
        -12    1    1    2    0    0  0.21837352345E+02 -0.61927489240E+01  0.36991936363E+02  0.43400731015E+02  0.00000000000E+00 0.  1.
         11    1    3    3    0    0 -0.48512705841E+01  0.28483377046E+01 -0.75900882176E+01  0.94476078121E+01  0.51100000000E-03 0. -1.
        -11    1    3    3    0    0 -0.15594390435E+02  0.93168974303E+01 -0.24437564405E+02  0.30449698604E+02  0.51100000000E-03 0.  1.
        -12    1    3    3    0    0 -0.13916913260E+01 -0.59724862108E+01 -0.49642837404E+01  0.78899625690E+01  0.00000000000E+00 0.  1.
</event>
<event>
 7    1  0.2740409E-010  0.4778728E+02  0.7816164E-02  0.1312668E+00
        -11   -1    0    0    0    0  0.00000000000E+00  0.00000000000E+00  0.45593999997E+02  0.45594000000E+02  0.51100000000E-03 0.  1.
         11   -1    0    0    0    0 -0.00000000000E+00 -0.00000000000E+00 -0.45593999997E+02  0.45594000000E+02  0.51100000000E-03 0. -1.
    9900012    2    1    2    0    0  0.15107984596E+02 -0.27907576498E+02 -0.29606397511E+02  0.47787276525E+02  0.20000024987E+02 0.  0.
        -12    1    1    2    0    0 -0.15107984596E+02  0.27907576498E+02  0.29606397511E+02  0.43400723475E+02  0.00000000000E+00 0.  1.
         11    1    3    3    0    0  0.66913521610E+01 -0.10461285529E+02 -0.36006910266E+01  0.12929720213E+02  0.51100000000E-03 0. -1.
        -11    1    3    3    0    0  0.81574467072E+00 -0.18343196100E+01 -0.13022782766E+02  0.13176609542E+02  0.51100000000E-03 0.  1.
        -12    1    3    3    0    0  0.76008877641E+01 -0.15611971359E+02 -0.12982923719E+02  0.21680946770E+02  0.00000000000E+00 0.  1.
</event>
<event>
 7    1  0.2740409E-010  0.4778727E+02  0.7816164E-02  0.1312668E+00
        -11   -1    0    0    0    0  0.00000000000E+00  0.00000000000E+00  0.45593999997E+02  0.45594000000E+02  0.51100000000E-03 0.  1.
         11   -1    0    0    0    0 -0.00000000000E+00 -0.00000000000E+00 -0.45593999997E+02  0.45594000000E+02  0.51100000000E-03 0. -1.
    9900012    2    1    2    0    0  0.32079735967E+02 -0.21001216126E+02 -0.20333786808E+02  0.47787269310E+02  0.19999992092E+02 0.  0.
        -12    1    1    2    0    0 -0.32079735967E+02  0.21001216126E+02  0.20333786808E+02  0.43400730690E+02  0.00000000000E+00 0.  1.
         11    1    3    3    0    0  0.30526184106E+02 -0.19824356981E+02 -0.15052578098E+02  0.39388236232E+02  0.51100000000E-03 0. -1.
        -11    1    3    3    0    0 -0.18363285818E+01  0.12468130186E+01 -0.10331335507E+01  0.24482668479E+01  0.51100000000E-03 0.  1.
         12    1    3    3    0    0  0.33898804423E+01 -0.24236721635E+01 -0.42480751591E+01  0.59507662302E+01  0.00000000000E+00 0. -1.
</event>
<event>
 7    1  0.2740409E-010  0.4778727E+02  0.7816164E-02  0.1312668E+00
        -11   -1    0    0    0    0  0.00000000000E+00  0.00000000000E+00  0.45593999997E+02  0.45594000000E+02  0.51100000000E-03 0. -1.
         11   -1    0    0    0    0 -0.00000000000E+00 -0.00000000000E+00 -0.45593999997E+02  0.45594000000E+02  0.51100000000E-03 0.  1.
    9900012    2    1    2    0    0  0.27031153824E+02  0.33481663850E+02  0.56496135130E+01  0.47787271619E+02  0.20000002617E+02 0.  0.
        -12    1    1    2    0    0 -0.27031153824E+02 -0.33481663850E+02 -0.56496135130E+01  0.43400728381E+02  0.00000000000E+00 0.  1.
         11    1    3    3    0    0  0.82537550084E+01  0.10668002543E+02  0.66341548269E+01  0.15031392501E+02  0.51100000000E-03 0. -1.
        -11    1    3    3    0    0  0.15793141802E+02  0.24398361276E+02 -0.22430354122E+01  0.29150207015E+02  0.51100000000E-03 0.  1.
        -12    1    3    3    0    0  0.29842570135E+01 -0.15846999686E+01  0.12584940984E+01  0.36056721022E+01  0.00000000000E+00 0.  1.
</event>
<event>
 7    1  0.2740409E-010  0.4778727E+02  0.7816164E-02  0.1312668E+00
        -11   -1    0    0    0    0  0.00000000000E+00  0.00000000000E+00  0.45593999997E+02  0.45594000000E+02  0.51100000000E-03 0.  1.
         11   -1    0    0    0    0 -0.00000000000E+00 -0.00000000000E+00 -0.45593999997E+02  0.45594000000E+02  0.51100000000E-03 0. -1.
    9900012    2    1    2    0    0  0.24651659523E+01 -0.27877475313E+02 -0.33172161353E+02  0.47787274639E+02  0.20000016391E+02 0.  0.
        -12    1    1    2    0    0 -0.24651659523E+01  0.27877475313E+02  0.33172161353E+02  0.43400725361E+02  0.00000000000E+00 0.  1.
         11    1    3    3    0    0 -0.25103315361E+01 -0.38342835408E+01 -0.44952747825E+01  0.64195786718E+01  0.51100000000E-03 0. -1.
        -11    1    3    3    0    0 -0.45705427470E+01 -0.27015207575E+01 -0.10455562462E+02  0.11726331995E+02  0.51100000000E-03 0.  1.
        -12    1    3    3    0    0  0.95460402354E+01 -0.21341671015E+02 -0.18221324109E+02  0.29641363972E+02  0.00000000000E+00 0.  1.
</event>
<event>
 7    1  0.2740409E-010  0.4778727E+02  0.7816164E-02  0.1312668E+00
        -11   -1    0    0    0    0  0.00000000000E+00  0.00000000000E+00  0.45593999997E+02  0.45594000000E+02  0.51100000000E-03 0.  1.
         11   -1    0    0    0    0 -0.00000000000E+00 -0.00000000000E+00 -0.45593999997E+02  0.45594000000E+02  0.51100000000E-03 0. -1.
    9900012    2    1    2    0    0 -0.29148607821E+02 -0.23272976487E+02 -0.22188965166E+02  0.47787274803E+02  0.20000017138E+02 0.  0.
        -12    1    1    2    0    0  0.29148607821E+02  0.23272976487E+02  0.22188965166E+02  0.43400725197E+02  0.00000000000E+00 0.  1.
         11    1    3    3    0    0 -0.29940168144E+02 -0.16883439957E+02 -0.15897431251E+02  0.37870734531E+02  0.51100000000E-03 0. -1.
        -11    1    3    3    0    0  0.11140396210E+00 -0.21323544448E+01 -0.49669467707E+01  0.54064689776E+01  0.51100000000E-03 0.  1.
         12    1    3    3    0    0  0.68015636076E+00 -0.42571820850E+01 -0.13245871444E+01  0.45100712947E+01  0.00000000000E+00 0. -1.
</event>
<event>
 7    1  0.2740409E-010  0.4778727E+02  0.7816164E-02  0.1312668E+00
        -11   -1    0    0    0    0  0.00000000000E+00  0.00000000000E+00  0.45593999997E+02  0.45594000000E+02  0.51100000000E-03 0.  1.
         11   -1    0    0    0    0 -0.00000000000E+00 -0.00000000000E+00 -0.45593999997E+02  0.45594000000E+02  0.51100000000E-03 0. -1.
    9900012    2    1    2    0    0 -0.31281726857E+01 -0.37760598292E+02 -0.21165422268E+02  0.47787270196E+02  0.19999996133E+02 0.  0.
        -12    1    1    2    0    0  0.31281726857E+01  0.37760598292E+02  0.21165422268E+02  0.43400729804E+02  0.00000000000E+00 0.  1.
         11    1    3    3    0    0  0.37936168778E+01 -0.83439747596E+01 -0.92626849914E+01  0.13031146431E+02  0.51100000000E-03 0.  1.
        -11    1    3    3    0    0  0.11062824823E+00 -0.46836002446E+01 -0.72397665876E+01  0.86233734910E+01  0.51100000000E-03 0. -1.
         12    1    3    3    0    0 -0.70324178117E+01 -0.24733023288E+02 -0.46629706889E+01  0.26132750274E+02  0.00000000000E+00 0. -1.
</event>
<event>
 7    1  0.2740409E-010  0.4778727E+02  0.7816164E-02  0.1312668E+00
        -11   -1    0    0    0    0  0.00000000000E+00  0.00000000000E+00  0.45593999997E+02  0.45594000000E+02  0.51100000000E-03 0.  1.
         11   -1    0    0    0    0 -0.00000000000E+00 -0.00000000000E+00 -0.45593999997E+02  0.45594000000E+02  0.51100000000E-03 0. -1.
    9900012    2    1    2    0    0 -0.22164900077E+02  0.49139741903E+01 -0.36989098667E+02  0.47787270075E+02  0.19999995582E+02 0.  0.
        -12    1    1    2    0    0  0.22164900077E+02 -0.49139741903E+01  0.36989098667E+02  0.43400729925E+02  0.00000000000E+00 0.  1.
         11    1    3    3    0    0  0.14169164046E+00 -0.51398808221E+01 -0.35177348513E+01  0.62300008131E+01  0.51100000000E-03 0. -1.
        -11    1    3    3    0    0 -0.89180815515E+01  0.27604308798E+01 -0.13999888773E+02  0.16827033105E+02  0.51100000000E-03 0.  1.
         12    1    3    3    0    0 -0.13388510166E+02  0.72934241326E+01 -0.19471475043E+02  0.24730236157E+02  0.00000000000E+00 0. -1.
</event>
<event>
 7    1  0.2740409E-010  0.4778727E+02  0.7816164E-02  0.1312668E+00
        -11   -1    0    0    0    0  0.00000000000E+00  0.00000000000E+00  0.45593999997E+02  0.45594000000E+02  0.51100000000E-03 0.  1.
         11   -1    0    0    0    0 -0.00000000000E+00 -0.00000000000E+00 -0.45593999997E+02  0.45594000000E+02  0.51100000000E-03 0. -1.
    9900012    2    1    2    0    0  0.41096576250E+02 -0.19796998565E+01 -0.13812155483E+02  0.47787269245E+02  0.19999991796E+02 0.  0.
        -12    1    1    2    0    0 -0.41096576250E+02  0.19796998565E+01  0.13812155483E+02  0.43400730755E+02  0.00000000000E+00 0.  1.
         11    1    3    3    0    0  0.24610729864E+02 -0.37452203670E+01 -0.14984522469E+02  0.29055991016E+02  0.51100000000E-03 0. -1.
        -11    1    3    3    0    0  0.10902897826E+02 -0.30269959208E+01  0.27189117651E+00  0.11318560438E+02  0.51100000000E-03 0.  1.
         12    1    3    3    0    0  0.55829485600E+01  0.47925164313E+01  0.90047580988E+00  0.74127177912E+01  0.00000000000E+00 0. -1.
</event>
<event>
 7    1  0.2740409E-010  0.4778727E+02  0.7816164E-02  0.1312668E+00
        -11   -1    0    0    0    0  0.00000000000E+00  0.00000000000E+00  0.45593999997E+02  0.45594000000E+02  0.51100000000E-03 0. -1.
         11   -1    0    0    0    0 -0.00000000000E+00 -0.00000000000E+00 -0.45593999997E+02  0.45594000000E+02  0.51100000000E-03 0.  1.
    9900012    2    1    2    0    0  0.35683995934E+02 -0.23913830028E+02  0.61971266413E+01  0.47787271768E+02  0.20000003301E+02 0.  0.
        -12    1    1    2    0    0 -0.35683995934E+02  0.23913830028E+02 -0.61971266413E+01  0.43400728232E+02  0.00000000000E+00 0.  1.
         11    1    3    3    0    0  0.15545675052E+02 -0.19517996380E+00  0.70810254457E+00  0.15563017623E+02  0.51100000000E-03 0. -1.
        -11    1    3    3    0    0  0.75604317669E+01 -0.11338306307E+02  0.51615139551E+01  0.14572527062E+02  0.51100000000E-03 0.  1.
         12    1    3    3    0    0  0.12577889114E+02 -0.12380343758E+02  0.32751014162E+00  0.17651727083E+02  0.00000000000E+00 0. -1.
</event>
<event>
 7    1  0.2740409E-010  0.4778726E+02  0.7816164E-02  0.1312668E+00
        -11   -1    0    0    0    0  0.00000000000E+00  0.00000000000E+00  0.45593999997E+02  0.45594000000E+02  0.51100000000E-03 0.  1.
         11   -1    0    0    0    0 -0.00000000000E+00 -0.00000000000E+00 -0.45593999997E+02  0.45594000000E+02  0.51100000000E-03 0. -1.
    9900012    2    1    2    0    0  0.71276829425E+01 -0.45454948941E+01 -0.42569454660E+02  0.47787264315E+02  0.19999969316E+02 0.  0.
        -12    1    1    2    0    0 -0.71276829425E+01  0.45454948941E+01  0.42569454660E+02  0.43400735685E+02  0.00000000000E+00 0.  1.
         11    1    3    3    0    0  0.81152929399E+01 -0.71661405385E+01 -0.24376211253E+02  0.26672293209E+02  0.51100000000E-03 0. -1.
        -11    1    3    3    0    0 -0.51927804320E+01  0.22618688253E+01 -0.61847975381E+01  0.83864617119E+01  0.51100000000E-03 0.  1.
        -12    1    3    3    0    0  0.42051704345E+01  0.35877681914E+00 -0.12008445869E+02  0.12728509394E+02  0.00000000000E+00 0.  1.
</event>
<event>
 7    1  0.2740409E-010  0.4778728E+02  0.7816164E-02  0.1312668E+00
        -11   -1    0    0    0    0  0.00000000000E+00  0.00000000000E+00  0.45593999997E+02  0.45594000000E+02  0.51100000000E-03 0.  1.
         11   -1    0    0    0    0 -0.00000000000E+00 -0.00000000000E+00 -0.45593999997E+02  0.45594000000E+02  0.51100000000E-03 0. -1.
    9900012    2    1    2    0    0  0.79281857484E+01 -0.14758520452E+02 -0.40036893496E+02  0.47787275398E+02  0.20000019848E+02 0.  0.
        -12    1    1    2    0    0 -0.79281857484E+01  0.14758520452E+02  0.40036893496E+02  0.43400724602E+02  0.00000000000E+00 0.  1.
         11    1    3    3    0    0  0.10507163600E+02 -0.16893292380E+02 -0.33512398633E+02  0.38972614446E+02  0.51100000000E-03 0. -1.
        -11    1    3    3    0    0 -0.33272629172E+01  0.12221395118E+01 -0.18596157357E+01  0.40028083206E+01  0.51100000000E-03 0.  1.
         12    1    3    3    0    0  0.74828506531E+00  0.91263241657E+00 -0.46648791277E+01  0.48118526310E+01  0.00000000000E+00 0. -1.
</event>
<event>
 7    1  0.2740409E-010  0.4778727E+02  0.7816164E-02  0.1312668E+00
        -11   -1    0    0    0    0  0.00000000000E+00  0.00000000000E+00  0.45593999997E+02  0.45594000000E+02  0.51100000000E-03 0.  1.
         11   -1    0    0    0    0 -0.00000000000E+00 -0.00000000000E+00 -0.45593999997E+02  0.45594000000E+02  0.51100000000E-03 0. -1.
    9900012    2    1    2    0    0 -0.40249800232E+02  0.98991986527E+01 -0.12867896622E+02  0.47787270558E+02  0.19999997781E+02 0.  0.
        -12    1    1    2    0    0  0.40249800232E+02 -0.98991986527E+01  0.12867896622E+02  0.43400729442E+02  0.00000000000E+00 0.  1.
         11    1    3    3    0    0 -0.17128065237E+02  0.91695017214E+01 -0.38493791633E+01  0.19805759284E+02  0.51100000000E-03 0. -1.
        -11    1    3    3    0    0 -0.43786633858E+01 -0.42726118111E+01  0.91685699028E+00  0.61861564590E+01  0.51100000000E-03 0.  1.
        -12    1    3    3    0    0 -0.18743071608E+02  0.50023087423E+01 -0.99353744489E+01  0.21795354815E+02  0.00000000000E+00 0.  1.
</event>
<event>
 7    1  0.2740409E-010  0.4778728E+02  0.7816164E-02  0.1312668E+00
        -11   -1    0    0    0    0  0.00000000000E+00  0.00000000000E+00  0.45593999997E+02  0.45594000000E+02  0.51100000000E-03 0.  1.
         11   -1    0    0    0    0 -0.00000000000E+00 -0.00000000000E+00 -0.45593999997E+02  0.45594000000E+02  0.51100000000E-03 0. -1.
    9900012    2    1    2    0    0 -0.21147901986E+02 -0.75385330389E+01 -0.37142421015E+02  0.47787277913E+02  0.20000031318E+02 0.  0.
        -12    1    1    2    0    0  0.21147901986E+02  0.75385330389E+01  0.37142421015E+02  0.43400722087E+02  0.00000000000E+00 0.  1.
         11    1    3    3    0    0 -0.12699914994E+02 -0.78026941191E+00 -0.86614936865E+01  0.15392145216E+02  0.51100000000E-03 0. -1.
        -11    1    3    3    0    0  0.22209663254E+01 -0.30290659906E+01 -0.43403593028E+01  0.57399173629E+01  0.51100000000E-03 0.  1.
         12    1    3    3    0    0 -0.10668953317E+02 -0.37291976364E+01 -0.24140568026E+02  0.26655215334E+02  0.00000000000E+00 0. -1.
</event>
<event>
 7    1  0.2740409E-010  0.4778728E+02  0.7816164E-02  0.1312668E+00
        -11   -1    0    0    0    0  0.00000000000E+00  0.00000000000E+00  0.45593999997E+02  0.45594000000E+02  0.51100000000E-03 0.  1.
         11   -1    0    0    0    0 -0.00000000000E+00 -0.00000000000E+00 -0.45593999997E+02  0.45594000000E+02  0.51100000000E-03 0. -1.
    9900012    2    1    2    0    0  0.41725697185E+02  0.10901481704E+02 -0.48730404182E+01  0.47787278441E+02  0.20000033724E+02 0.  0.
        -12    1    1    2    0    0 -0.41725697185E+02 -0.10901481704E+02  0.48730404182E+01  0.43400721559E+02  0.00000000000E+00 0.  1.
         11    1    3    3    0    0  0.56988369075E+01 -0.39151186351E+01 -0.43075084464E+01  0.81461356054E+01  0.51100000000E-03 0. -1.
        -11    1    3    3    0    0  0.26386693262E+02  0.91283746448E+01  0.25083616832E+01  0.28033492176E+02  0.51100000000E-03 0.  1.
         12    1    3    3    0    0  0.96401670153E+01  0.56882256947E+01 -0.30738936550E+01  0.11607650660E+02  0.00000000000E+00 0. -1.
</event>
<event>
 7    1  0.2740409E-010  0.4778727E+02  0.7816164E-02  0.1312668E+00
        -11   -1    0    0    0    0  0.00000000000E+00  0.00000000000E+00  0.45593999997E+02  0.45594000000E+02  0.51100000000E-03 0. -1.
         11   -1    0    0    0    0 -0.00000000000E+00 -0.00000000000E+00 -0.45593999997E+02  0.45594000000E+02  0.51100000000E-03 0.  1.
    9900012    2    1    2    0    0  0.42306329841E+01 -0.12735422553E+02  0.41273892361E+02  0.47787269204E+02  0.19999991608E+02 0.  0.
        -12    1    1    2    0    0 -0.42306329841E+01  0.12735422553E+02 -0.41273892361E+02  0.43400730796E+02  0.00000000000E+00 0.  1.
         11    1    3    3    0    0  0.77299190941E+01 -0.14993140337E+02  0.27362639723E+02  0.32144361235E+02  0.51100000000E-03 0. -1.
        -11    1    3    3    0    0 -0.42940932847E+01  0.25056321706E+01  0.64916174588E+01  0.81767063788E+01  0.51100000000E-03 0.  1.
         12    1    3    3    0    0  0.79480717471E+00 -0.24791438661E+00  0.74196351792E+01  0.74662015899E+01  0.00000000000E+00 0. -1.
</event>
<event>
 7    1  0.2740409E-010  0.4778727E+02  0.7816164E-02  0.1312668E+00
        -11   -1    0    0    0    0  0.00000000000E+00  0.00000000000E+00  0.45593999997E+02  0.45594000000E+02  0.51100000000E-03 0. -1.
         11   -1    0    0    0    0 -0.00000000000E+00 -0.00000000000E+00 -0.45593999997E+02  0.45594000000E+02  0.51100000000E-03 0.  1.
    9900012    2    1    2    0    0  0.37364417838E+01  0.37601344080E+01  0.43075793826E+02  0.47787267037E+02  0.19999981728E+02 0.  0.
        -12    1    1    2    0    0 -0.37364417838E+01 -0.37601344080E+01 -0.43075793826E+02  0.43400732963E+02  0.00000000000E+00 0.  1.
         11    1    3    3    0    0 -0.59009123373E+01 -0.27106175993E+01  0.92126729795E+01  0.11271271351E+02  0.51100000000E-03 0.  1.
        -11    1    3    3    0    0  0.85026325793E+01  0.18698699507E+01  0.18649113919E+02  0.20581074429E+02  0.51100000000E-03 0. -1.
        -12    1    3    3    0    0  0.11347215418E+01  0.46008820566E+01  0.15214006927E+02  0.15934921257E+02  0.00000000000E+00 0.  1.
</event>
<event>
 7    1  0.2740409E-010  0.4778727E+02  0.7816164E-02  0.1312668E+00
        -11   -1    0    0    0    0  0.00000000000E+00  0.00000000000E+00  0.45593999997E+02  0.45594000000E+02  0.51100000000E-03 0.  1.
         11   -1    0    0    0    0 -0.00000000000E+00 -0.00000000000E+00 -0.45593999997E+02  0.45594000000E+02  0.51100000000E-03 0. -1.
    9900012    2    1    2    0    0 -0.34078773665E+02 -0.23008895959E+02 -0.13887086898E+02  0.47787270856E+02  0.19999999139E+02 0.  0.
        -12    1    1    2    0    0  0.34078773665E+02  0.23008895959E+02  0.13887086898E+02  0.43400729144E+02  0.00000000000E+00 0.  1.
         11    1    3    3    0    0 -0.24243726326E+02 -0.13951910776E+02 -0.13653323899E+02  0.31125991297E+02  0.51100000000E-03 0. -1.
        -11    1    3    3    0    0 -0.10953089470E+02 -0.62463583933E+01  0.21741185627E+01  0.12795075377E+02  0.51100000000E-03 0.  1.
         12    1    3    3    0    0  0.11180421312E+01 -0.28106267899E+01 -0.24078815617E+01  0.38662041816E+01  0.00000000000E+00 0. -1.
</event>
<event>
 7    1  0.2740409E-010  0.4778727E+02  0.7816164E-02  0.1312668E+00
        -11   -1    0    0    0    0  0.00000000000E+00  0.00000000000E+00  0.45593999997E+02  0.45594000000E+02  0.51100000000E-03 0.  1.
         11   -1    0    0    0    0 -0.00000000000E+00 -0.00000000000E+00 -0.45593999997E+02  0.45594000000E+02  0.51100000000E-03 0. -1.
    9900012    2    1    2    0    0 -0.89726438982E+01 -0.41924408973E+02 -0.67423203040E+01  0.47787270867E+02  0.19999999190E+02 0.  0.
        -12    1    1    2    0    0  0.89726438982E+01  0.41924408973E+02  0.67423203040E+01  0.43400729133E+02  0.00000000000E+00 0.  1.
         11    1    3    3    0    0  0.27612910279E+01 -0.10864724319E+02  0.34114326598E+01  0.11717714611E+02  0.51100000000E-03 0. -1.
        -11    1    3    3    0    0  0.45896703854E+00 -0.58893535101E+00 -0.21669975214E+01  0.22920240202E+01  0.51100000000E-03 0.  1.
         12    1    3    3    0    0 -0.12192901965E+02 -0.30470749303E+02 -0.79867554423E+01  0.33777532235E+02  0.00000000000E+00 0. -1.
</event>
<event>
 7    1  0.2740409E-010  0.4778722E+02  0.7816164E-02  0.1312668E+00
        -11   -1    0    0    0    0  0.00000000000E+00  0.00000000000E+00  0.45593999997E+02  0.45594000000E+02  0.51100000000E-03 0.  1.
         11   -1    0    0    0    0 -0.00000000000E+00 -0.00000000000E+00 -0.45593999997E+02  0.45594000000E+02  0.51100000000E-03 0. -1.
    9900012    2    1    2    0    0 -0.75954439468E+01  0.31249800408E+01 -0.42616559839E+02  0.47787223030E+02  0.19999781084E+02 0.  0.
        -12    1    1    2    0    0  0.75954439468E+01 -0.31249800408E+01  0.42616559839E+02  0.43400776970E+02  0.00000000000E+00 0.  1.
         11    1    3    3    0    0  0.39150346341E+01 -0.22896278324E+01 -0.24055766153E+02  0.24479578780E+02  0.51100000000E-03 0. -1.
        -11    1    3    3    0    0 -0.87536489259E+01  0.67272977861E+01 -0.14769986529E+02  0.18440049006E+02  0.51100000000E-03 0.  1.
         12    1    3    3    0    0 -0.27568296550E+01 -0.13126899129E+01 -0.37908071577E+01  0.48675952441E+01  0.00000000000E+00 0. -1.
</event>
<event>
 7    1  0.2740409E-010  0.4778727E+02  0.7816164E-02  0.1312668E+00
        -11   -1    0    0    0    0  0.00000000000E+00  0.00000000000E+00  0.45593999997E+02  0.45594000000E+02  0.51100000000E-03 0.  1.
         11   -1    0    0    0    0 -0.00000000000E+00 -0.00000000000E+00 -0.45593999997E+02  0.45594000000E+02  0.51100000000E-03 0. -1.
    9900012    2    1    2    0    0 -0.23193190892E+02 -0.45393053378E+01 -0.36401841927E+02  0.47787268527E+02  0.19999988521E+02 0.  0.
        -12    1    1    2    0    0  0.23193190892E+02  0.45393053378E+01  0.36401841927E+02  0.43400731473E+02  0.00000000000E+00 0.  1.
         11    1    3    3    0    0 -0.20922900226E+02 -0.53863926233E+01 -0.22278746780E+02  0.31034231708E+02  0.51100000000E-03 0. -1.
        -11    1    3    3    0    0 -0.10919435849E+01 -0.26154169909E+01 -0.81148190087E+00  0.29480925979E+01  0.51100000000E-03 0.  1.
         12    1    3    3    0    0 -0.11783470811E+01  0.34625042764E+01 -0.13311613247E+02  0.13804944221E+02  0.00000000000E+00 0. -1.
</event>
<event>
 7    1  0.2740409E-010  0.4778726E+02  0.7816164E-02  0.1312668E+00
        -11   -1    0    0    0    0  0.00000000000E+00  0.00000000000E+00  0.45593999997E+02  0.45594000000E+02  0.51100000000E-03 0.  1.
         11   -1    0    0    0    0 -0.00000000000E+00 -0.00000000000E+00 -0.45593999997E+02  0.45594000000E+02  0.51100000000E-03 0. -1.
    9900012    2    1    2    0    0  0.33717143257E+01  0.27860079602E+02 -0.33106969303E+02  0.47787263723E+02  0.19999966620E+02 0.  0.
        -12    1    1    2    0    0 -0.33717143257E+01 -0.27860079602E+02  0.33106969303E+02  0.43400736277E+02  0.00000000000E+00 0.  1.
         11    1    3    3    0    0  0.91130412345E+01  0.60918159243E+01 -0.12565494000E+02  0.16674812788E+02  0.51100000000E-03 0. -1.
        -11    1    3    3    0    0 -0.45386051994E+01  0.83981357700E+01 -0.11411419901E+02  0.14877772884E+02  0.51100000000E-03 0.  1.
         12    1    3    3    0    0 -0.12027217094E+01  0.13370127907E+02 -0.91300554021E+01  0.16234678051E+02  0.00000000000E+00 0. -1.
</event>
<event>
 7    1  0.2740409E-010  0.4778726E+02  0.7816164E-02  0.1312668E+00
        -11   -1    0    0    0    0  0.00000000000E+00  0.00000000000E+00  0.45593999997E+02  0.45594000000E+02  0.51100000000E-03 0.  1.
         11   -1    0    0    0    0 -0.00000000000E+00 -0.00000000000E+00 -0.45593999997E+02  0.45594000000E+02  0.51100000000E-03 0. -1.
    9900012    2    1    2    0    0 -0.67048946977E+01 -0.25780385733E+02 -0.34264267373E+02  0.47787263600E+02  0.19999966059E+02 0.  0.
        -12    1    1    2    0    0  0.67048946977E+01  0.25780385733E+02  0.34264267373E+02  0.43400736400E+02  0.00000000000E+00 0.  1.
         11    1    3    3    0    0 -0.20789342500E+01 -0.21241377588E+02 -0.19921995488E+02  0.29195958521E+02  0.51100000000E-03 0. -1.
        -11    1    3    3    0    0 -0.51803676583E+01 -0.15618503891E+00 -0.21278736438E+01  0.56025395444E+01  0.51100000000E-03 0.  1.
         12    1    3    3    0    0  0.55440721064E+00 -0.43828231057E+01 -0.12214398241E+02  0.12988765535E+02  0.00000000000E+00 0. -1.
</event>
<event>
 7    1  0.2740409E-010  0.4778727E+02  0.7816164E-02  0.1312668E+00
        -11   -1    0    0    0    0  0.00000000000E+00  0.00000000000E+00  0.45593999997E+02  0.45594000000E+02  0.51100000000E-03 0.  1.
         11   -1    0    0    0    0 -0.00000000000E+00 -0.00000000000E+00 -0.45593999997E+02  0.45594000000E+02  0.51100000000E-03 0. -1.
    9900012    2    1    2    0    0 -0.62454738624E+01  0.15687573075E+02 -0.39981462240E+02  0.47787271716E+02  0.20000003060E+02 0.  0.
        -12    1    1    2    0    0  0.62454738624E+01 -0.15687573075E+02  0.39981462240E+02  0.43400728284E+02  0.00000000000E+00 0.  1.
         11    1    3    3    0    0 -0.51058844196E+01 -0.22484156674E+01 -0.16909033379E+02  0.17805640646E+02  0.51100000000E-03 0.  1.
        -11    1    3    3    0    0 -0.34699583280E+00  0.15157418868E+02 -0.22343246711E+02  0.27001637482E+02  0.51100000000E-03 0. -1.
        -12    1    3    3    0    0 -0.79259360992E+00  0.27785698745E+01 -0.72918214994E+00  0.29799935883E+01  0.00000000000E+00 0.  1.
</event>
<event>
 7    1  0.2740409E-010  0.4778727E+02  0.7816164E-02  0.1312668E+00
        -11   -1    0    0    0    0  0.00000000000E+00  0.00000000000E+00  0.45593999997E+02  0.45594000000E+02  0.51100000000E-03 0.  1.
         11   -1    0    0    0    0 -0.00000000000E+00 -0.00000000000E+00 -0.45593999997E+02  0.45594000000E+02  0.51100000000E-03 0. -1.
    9900012    2    1    2    0    0 -0.28325223232E+02  0.69792887367E+01 -0.32134010218E+02  0.47787270108E+02  0.19999995732E+02 0.  0.
        -12    1    1    2    0    0  0.28325223232E+02 -0.69792887367E+01  0.32134010218E+02  0.43400729892E+02  0.00000000000E+00 0.  1.
         11    1    3    3    0    0  0.17746315140E+01 -0.17334975540E+01 -0.67775626905E+00  0.25717084986E+01  0.51100000000E-03 0.  1.
        -11    1    3    3    0    0 -0.35381151166E+00 -0.45975254772E+00 -0.29513798810E+01  0.30078561226E+01  0.51100000000E-03 0. -1.
         12    1    3    3    0    0 -0.29746043235E+02  0.91725388385E+01 -0.28504874068E+02  0.42207705487E+02  0.00000000000E+00 0. -1.
</event>
<event>
 7    1  0.2740409E-010  0.4778727E+02  0.7816164E-02  0.1312668E+00
        -11   -1    0    0    0    0  0.00000000000E+00  0.00000000000E+00  0.45593999997E+02  0.45594000000E+02  0.51100000000E-03 0.  1.
         11   -1    0    0    0    0 -0.00000000000E+00 -0.00000000000E+00 -0.45593999997E+02  0.45594000000E+02  0.51100000000E-03 0. -1.
    9900012    2    1    2    0    0  0.84873368080E+01 -0.35456970909E+02 -0.23545521838E+02  0.47787271080E+02  0.20000000163E+02 0.  0.
        -12    1    1    2    0    0 -0.84873368080E+01  0.35456970909E+02  0.23545521838E+02  0.43400728920E+02  0.00000000000E+00 0.  1.
         11    1    3    3    0    0 -0.27401021068E+01 -0.19161662798E+02 -0.18585569516E+02  0.26834695363E+02  0.51100000000E-03 0. -1.
        -11    1    3    3    0    0  0.10189917441E+02 -0.14104229081E+02 -0.26440244509E+01  0.17599845482E+02  0.51100000000E-03 0.  1.
        -12    1    3    3    0    0  0.10375214736E+01 -0.21910790304E+01 -0.23159278716E+01  0.33527302355E+01  0.00000000000E+00 0.  1.
</event>
<event>
 7    1  0.2740409E-010  0.4778727E+02  0.7816164E-02  0.1312668E+00
        -11   -1    0    0    0    0  0.00000000000E+00  0.00000000000E+00  0.45593999997E+02  0.45594000000E+02  0.51100000000E-03 0.  1.
         11   -1    0    0    0    0 -0.00000000000E+00 -0.00000000000E+00 -0.45593999997E+02  0.45594000000E+02  0.51100000000E-03 0. -1.
    9900012    2    1    2    0    0 -0.12275556161E+02  0.12642089363E+02 -0.39662469711E+02  0.47787271825E+02  0.20000003560E+02 0.  0.
        -12    1    1    2    0    0  0.12275556161E+02 -0.12642089363E+02  0.39662469711E+02  0.43400728175E+02  0.00000000000E+00 0.  1.
         11    1    3    3    0    0 -0.15551516419E+02  0.48771246487E+01 -0.23670255596E+02  0.28738771860E+02  0.51100000000E-03 0. -1.
        -11    1    3    3    0    0  0.75043360499E+00  0.32294054606E+01 -0.12138540790E+02  0.12583178573E+02  0.51100000000E-03 0.  1.
         12    1    3    3    0    0  0.25255266525E+01  0.45355592532E+01 -0.38536733242E+01  0.64653213920E+01  0.00000000000E+00 0. -1.
</event>
<event>
 7    1  0.2740409E-010  0.4778728E+02  0.7816164E-02  0.1312668E+00
        -11   -1    0    0    0    0  0.00000000000E+00  0.00000000000E+00  0.45593999997E+02  0.45594000000E+02  0.51100000000E-03 0.  1.
         11   -1    0    0    0    0 -0.00000000000E+00 -0.00000000000E+00 -0.45593999997E+02  0.45594000000E+02  0.51100000000E-03 0. -1.
    9900012    2    1    2    0    0  0.28239169468E+02  0.41235541413E+01 -0.32698139344E+02  0.47787277569E+02  0.20000029749E+02 0.  0.
        -12    1    1    2    0    0 -0.28239169468E+02 -0.41235541413E+01  0.32698139344E+02  0.43400722431E+02  0.00000000000E+00 0.  1.
         11    1    3    3    0    0  0.15346664267E+02 -0.35200382289E+00 -0.20203029606E+02  0.25373340661E+02  0.51100000000E-03 0. -1.
        -11    1    3    3    0    0 -0.18434143763E+01  0.33420250866E+01 -0.22466189270E+01  0.44288378957E+01  0.51100000000E-03 0.  1.
        -12    1    3    3    0    0  0.14735919577E+02  0.11335328776E+01 -0.10248490811E+02  0.17985099012E+02  0.00000000000E+00 0.  1.
</event>
<event>
 7    1  0.2740409E-010  0.4778727E+02  0.7816164E-02  0.1312668E+00
        -11   -1    0    0    0    0  0.00000000000E+00  0.00000000000E+00  0.45593999997E+02  0.45594000000E+02  0.51100000000E-03 0.  1.
         11   -1    0    0    0    0 -0.00000000000E+00 -0.00000000000E+00 -0.45593999997E+02  0.45594000000E+02  0.51100000000E-03 0. -1.
    9900012    2    1    2    0    0 -0.42814063764E+02 -0.38717000269E+01  0.59656848545E+01  0.47787268291E+02  0.19999987444E+02 0.  0.
        -12    1    1    2    0    0  0.42814063764E+02  0.38717000269E+01 -0.59656848545E+01  0.43400731709E+02  0.00000000000E+00 0.  1.
         11    1    3    3    0    0 -0.93617429274E+00  0.24774479869E+01  0.34952405617E+01  0.43853024616E+01  0.51100000000E-03 0. -1.
        -11    1    3    3    0    0 -0.22114746875E+02 -0.55444542059E+01  0.53377775374E+01  0.23415697109E+02  0.51100000000E-03 0.  1.
         12    1    3    3    0    0 -0.19763142597E+02 -0.80469380785E+00 -0.28673332446E+01  0.19986268720E+02  0.00000000000E+00 0. -1.
</event>
<event>
 7    1  0.2740409E-010  0.4778728E+02  0.7816164E-02  0.1312668E+00
        -11   -1    0    0    0    0  0.00000000000E+00  0.00000000000E+00  0.45593999997E+02  0.45594000000E+02  0.51100000000E-03 0.  1.
         11   -1    0    0    0    0 -0.00000000000E+00 -0.00000000000E+00 -0.45593999997E+02  0.45594000000E+02  0.51100000000E-03 0. -1.
    9900012    2    1    2    0    0  0.83254091790E+00 -0.37814262112E+02 -0.21284055784E+02  0.47787279106E+02  0.20000036757E+02 0.  0.
        -12    1    1    2    0    0 -0.83254091790E+00  0.37814262112E+02  0.21284055784E+02  0.43400720894E+02  0.00000000000E+00 0.  1.
         11    1    3    3    0    0 -0.63295985239E+01 -0.14616259669E+02 -0.12014258343E+01  0.15973174026E+02  0.51100000000E-03 0.  1.
        -11    1    3    3    0    0  0.33311083405E+01 -0.16821210295E+02 -0.15208185218E+02  0.22920259520E+02  0.51100000000E-03 0. -1.
        -12    1    3    3    0    0  0.38310311013E+01 -0.63767921483E+01 -0.48744447320E+01  0.88938455601E+01  0.00000000000E+00 0.  1.
</event>
<event>
 7    1  0.2740409E-010  0.4778727E+02  0.7816164E-02  0.1312668E+00
        -11   -1    0    0    0    0  0.00000000000E+00  0.00000000000E+00  0.45593999997E+02  0.45594000000E+02  0.51100000000E-03 0.  1.
         11   -1    0    0    0    0 -0.00000000000E+00 -0.00000000000E+00 -0.45593999997E+02  0.45594000000E+02  0.51100000000E-03 0. -1.
    9900012    2    1    2    0    0 -0.38900575450E+02 -0.19229448329E+02  0.77252350821E+00  0.47787271366E+02  0.20000001468E+02 0.  0.
        -12    1    1    2    0    0  0.38900575450E+02  0.19229448329E+02 -0.77252350821E+00  0.43400728634E+02  0.00000000000E+00 0.  1.
         11    1    3    3    0    0 -0.19869723772E+02 -0.30370822717E+01 -0.59747593470E+01  0.20969681472E+02  0.51100000000E-03 0. -1.
        -11    1    3    3    0    0 -0.24607068182E+01 -0.49290850768E+01  0.34825435024E+01  0.65175967386E+01  0.51100000000E-03 0.  1.
        -12    1    3    3    0    0 -0.16570144859E+02 -0.11263280980E+02  0.32647393528E+01  0.20299993156E+02  0.00000000000E+00 0.  1.
</event>
<event>
 7    1  0.2740409E-010  0.4778727E+02  0.7816164E-02  0.1312668E+00
        -11   -1    0    0    0    0  0.00000000000E+00  0.00000000000E+00  0.45593999997E+02  0.45594000000E+02  0.51100000000E-03 0.  1.
         11   -1    0    0    0    0 -0.00000000000E+00 -0.00000000000E+00 -0.45593999997E+02  0.45594000000E+02  0.51100000000E-03 0. -1.
    9900012    2    1    2    0    0  0.37162847929E+02 -0.91692200409E+01 -0.20456576518E+02  0.47787269762E+02  0.19999994152E+02 0.  0.
        -12    1    1    2    0    0 -0.37162847929E+02  0.91692200409E+01  0.20456576518E+02  0.43400730238E+02  0.00000000000E+00 0.  1.
         11    1    3    3    0    0  0.15484026155E+02 -0.34813740812E+01 -0.48292598817E+01  0.16589056113E+02  0.51100000000E-03 0. -1.
        -11    1    3    3    0    0 -0.93647503698E+00 -0.70655653864E+00  0.18466692428E+01  0.21877831681E+01  0.51100000000E-03 0.  1.
        -12    1    3    3    0    0  0.22615296811E+02 -0.49812894210E+01 -0.17473985879E+02  0.29010430481E+02  0.00000000000E+00 0.  1.
</event>
<event>
 7    1  0.2740409E-010  0.4778725E+02  0.7816164E-02  0.1312668E+00
        -11   -1    0    0    0    0  0.00000000000E+00  0.00000000000E+00  0.45593999997E+02  0.45594000000E+02  0.51100000000E-03 0. -1.
         11   -1    0    0    0    0 -0.00000000000E+00 -0.00000000000E+00 -0.45593999997E+02  0.45594000000E+02  0.51100000000E-03 0.  1.
    9900012    2    1    2    0    0 -0.20627297865E+02  0.43738699262E+01  0.37934266025E+02  0.47787254682E+02  0.19999925396E+02 0.  0.
        -12    1    1    2    0    0  0.20627297865E+02 -0.43738699262E+01 -0.37934266025E+02  0.43400745318E+02  0.00000000000E+00 0.  1.
         11    1    3    3    0    0 -0.15244386509E+02  0.74171681290E+00  0.32112530405E+02  0.35554972551E+02  0.51100000000E-03 0. -1.
        -11    1    3    3    0    0 -0.53774687385E+01  0.49349348193E+01  0.11579682277E+01  0.73899690380E+01  0.51100000000E-03 0.  1.
        -12    1    3    3    0    0 -0.54426172379E-02 -0.13027817060E+01  0.46637673923E+01  0.48423130924E+01  0.00000000000E+00 0.  1.
</event>
<event>
 7    1  0.2740409E-010  0.4778727E+02  0.7816164E-02  0.1312668E+00
        -11   -1    0    0    0    0  0.00000000000E+00  0.00000000000E+00  0.45593999997E+02  0.45594000000E+02  0.51100000000E-03 0.  1.
         11   -1    0    0    0    0 -0.00000000000E+00 -0.00000000000E+00 -0.45593999997E+02  0.45594000000E+02  0.51100000000E-03 0. -1.
    9900012    2    1    2    0    0  0.27120163145E+02  0.22898480359E+01 -0.33806464167E+02  0.47787266452E+02  0.19999979061E+02 0.  0.
        -12    1    1    2    0    0 -0.27120163145E+02 -0.22898480359E+01  0.33806464167E+02  0.43400733548E+02  0.00000000000E+00 0.  1.
         11    1    3    3    0    0  0.10175601013E+02 -0.65148366095E+00 -0.11053290306E+02  0.15038035569E+02  0.51100000000E-03 0. -1.
        -11    1    3    3    0    0  0.65663615854E+01 -0.10591624711E+01 -0.20296607528E+02  0.21358633079E+02  0.51100000000E-03 0.  1.
        -12    1    3    3    0    0  0.10378200547E+02  0.40004941679E+01 -0.24565663330E+01  0.11390597803E+02  0.00000000000E+00 0.  1.
</event>
<event>
 7    1  0.2740409E-010  0.4778727E+02  0.7816164E-02  0.1312668E+00
        -11   -1    0    0    0    0  0.00000000000E+00  0.00000000000E+00  0.45593999997E+02  0.45594000000E+02  0.51100000000E-03 0.  1.
         11   -1    0    0    0    0 -0.00000000000E+00 -0.00000000000E+00 -0.45593999997E+02  0.45594000000E+02  0.51100000000E-03 0. -1.
    9900012    2    1    2    0    0  0.34434642510E+02  0.23843526696E+02 -0.11373882605E+02  0.47787267569E+02  0.19999984152E+02 0.  0.
        -12    1    1    2    0    0 -0.34434642510E+02 -0.23843526696E+02  0.11373882605E+02  0.43400732431E+02  0.00000000000E+00 0.  1.
         11    1    3    3    0    0  0.17914180376E+02  0.16879315124E+02 -0.46487430138E+01  0.25048751455E+02  0.51100000000E-03 0. -1.
        -11    1    3    3    0    0  0.47558934327E+01 -0.24533050537E+01  0.15168796743E+01  0.55622074968E+01  0.51100000000E-03 0.  1.
        -12    1    3    3    0    0  0.11764568701E+02  0.94175166257E+01 -0.82420192651E+01  0.17176308616E+02  0.00000000000E+00 0.  1.
</event>
<event>
 7    1  0.2740409E-010  0.4778726E+02  0.7816164E-02  0.1312668E+00
        -11   -1    0    0    0    0  0.00000000000E+00  0.00000000000E+00  0.45593999997E+02  0.45594000000E+02  0.51100000000E-03 0.  1.
         11   -1    0    0    0    0 -0.00000000000E+00 -0.00000000000E+00 -0.45593999997E+02  0.45594000000E+02  0.51100000000E-03 0. -1.
    9900012    2    1    2    0    0  0.28316422660E+02 -0.10220228639E+02 -0.31262619505E+02  0.47787259868E+02  0.19999949043E+02 0.  0.
        -12    1    1    2    0    0 -0.28316422660E+02  0.10220228639E+02  0.31262619505E+02  0.43400740132E+02  0.00000000000E+00 0.  1.
         11    1    3    3    0    0  0.22826554122E+02 -0.48382073419E+01 -0.24730872741E+02  0.34001116014E+02  0.51100000000E-03 0. -1.
        -11    1    3    3    0    0  0.16209543419E+01 -0.68383201893E+01 -0.66150647783E+01  0.96513832310E+01  0.51100000000E-03 0.  1.
        -12    1    3    3    0    0  0.38689141958E+01  0.14562988926E+01  0.83318014806E-01  0.41347606232E+01  0.00000000000E+00 0.  1.
</event>
<event>
 7    1  0.2740409E-010  0.4778728E+02  0.7816164E-02  0.1312668E+00
        -11   -1    0    0    0    0  0.00000000000E+00  0.00000000000E+00  0.45593999997E+02  0.45594000000E+02  0.51100000000E-03 0. -1.
         11   -1    0    0    0    0 -0.00000000000E+00 -0.00000000000E+00 -0.45593999997E+02  0.45594000000E+02  0.51100000000E-03 0.  1.
    9900012    2    1    2    0    0  0.17781464831E+02 -0.15743451918E+02  0.36326104025E+02  0.47787278767E+02  0.20000035212E+02 0.  0.
        -12    1    1    2    0    0 -0.17781464831E+02  0.15743451918E+02 -0.36326104025E+02  0.43400721233E+02  0.00000000000E+00 0.  1.
         11    1    3    3    0    0  0.10678823643E+02 -0.64652683961E+01  0.31723687131E+02  0.34091484204E+02  0.51100000000E-03 0. -1.
        -11    1    3    3    0    0  0.78592108373E+01 -0.77310917861E+01  0.46690188099E+01  0.11972331105E+02  0.51100000000E-03 0.  1.
         12    1    3    3    0    0 -0.75656964903E+00 -0.15470917362E+01 -0.66601915263E-01  0.17234634575E+01  0.00000000000E+00 0. -1.
</event>
<event>
 7    1  0.2740409E-010  0.4778727E+02  0.7816164E-02  0.1312668E+00
        -11   -1    0    0    0    0  0.00000000000E+00  0.00000000000E+00  0.45593999997E+02  0.45594000000E+02  0.51100000000E-03 0.  1.
         11   -1    0    0    0    0 -0.00000000000E+00 -0.00000000000E+00 -0.45593999997E+02  0.45594000000E+02  0.51100000000E-03 0. -1.
    9900012    2    1    2    0    0 -0.21219475119E+02  0.34965666730E+02 -0.14517556173E+02  0.47787269460E+02  0.19999992777E+02 0.  0.
        -12    1    1    2    0    0  0.21219475119E+02 -0.34965666730E+02  0.14517556173E+02  0.43400730540E+02  0.00000000000E+00 0.  1.
         11    1    3    3    0    0 -0.47754036483E+01  0.97069358958E+01 -0.10478865836E+02  0.15061066163E+02  0.51100000000E-03 0. -1.
        -11    1    3    3    0    0  0.51548601891E+00  0.84283854097E+01  0.26580192922E+00  0.84483168369E+01  0.51100000000E-03 0.  1.
         12    1    3    3    0    0 -0.16959557489E+02  0.16830345424E+02 -0.43044922664E+01  0.24277886461E+02  0.00000000000E+00 0. -1.
</event>
<event>
 7    1  0.2740409E-010  0.4778727E+02  0.7816164E-02  0.1312668E+00
        -11   -1    0    0    0    0  0.00000000000E+00  0.00000000000E+00  0.45593999997E+02  0.45594000000E+02  0.51100000000E-03 0.  1.
         11   -1    0    0    0    0 -0.00000000000E+00 -0.00000000000E+00 -0.45593999997E+02  0.45594000000E+02  0.51100000000E-03 0. -1.
    9900012    2    1    2    0    0  0.25675906478E+02 -0.30721963992E+02 -0.16749093912E+02  0.47787269685E+02  0.19999993800E+02 0.  0.
        -12    1    1    2    0    0 -0.25675906478E+02  0.30721963992E+02  0.16749093912E+02  0.43400730315E+02  0.00000000000E+00 0.  1.
         11    1    3    3    0    0 -0.59377151313E+00 -0.52183710035E+01 -0.67532825462E+01  0.85551613631E+01  0.51100000000E-03 0. -1.
        -11    1    3    3    0    0  0.11477827271E+02 -0.92958627402E+01  0.77085796259E+00  0.14790125260E+02  0.51100000000E-03 0.  1.
         12    1    3    3    0    0  0.14791850721E+02 -0.16207730249E+02 -0.10766669328E+02  0.24441983062E+02  0.00000000000E+00 0. -1.
</event>
<event>
 7    1  0.2740409E-010  0.4778727E+02  0.7816164E-02  0.1312668E+00
        -11   -1    0    0    0    0  0.00000000000E+00  0.00000000000E+00  0.45593999997E+02  0.45594000000E+02  0.51100000000E-03 0.  1.
         11   -1    0    0    0    0 -0.00000000000E+00 -0.00000000000E+00 -0.45593999997E+02  0.45594000000E+02  0.51100000000E-03 0. -1.
    9900012    2    1    2    0    0 -0.37665398516E+02  0.14698476390E+02 -0.15776424290E+02  0.47787274005E+02  0.20000013498E+02 0.  0.
        -12    1    1    2    0    0  0.37665398516E+02 -0.14698476390E+02  0.15776424290E+02  0.43400725995E+02  0.00000000000E+00 0.  1.
         11    1    3    3    0    0 -0.16171669448E+02  0.26740762323E+01 -0.87546449132E+01  0.18582717354E+02  0.51100000000E-03 0. -1.
        -11    1    3    3    0    0 -0.17932955907E+02  0.13792616985E+02 -0.18750986426E+01  0.22701171469E+02  0.51100000000E-03 0.  1.
        -12    1    3    3    0    0 -0.35607731604E+01 -0.17682168276E+01 -0.51466807342E+01  0.65033851823E+01  0.00000000000E+00 0.  1.
</event>
<event>
 7    1  0.2740409E-010  0.4778727E+02  0.7816164E-02  0.1312668E+00
        -11   -1    0    0    0    0  0.00000000000E+00  0.00000000000E+00  0.45593999997E+02  0.45594000000E+02  0.51100000000E-03 0.  1.
         11   -1    0    0    0    0 -0.00000000000E+00 -0.00000000000E+00 -0.45593999997E+02  0.45594000000E+02  0.51100000000E-03 0. -1.
    9900012    2    1    2    0    0 -0.72298226833E+01 -0.11209501672E+02 -0.41300119780E+02  0.47787272384E+02  0.20000006106E+02 0.  0.
        -12    1    1    2    0    0  0.72298226833E+01  0.11209501672E+02  0.41300119780E+02  0.43400727616E+02  0.00000000000E+00 0.  1.
         11    1    3    3    0    0 -0.80762425990E+01 -0.37326329111E+01 -0.33164318979E+02  0.34337010594E+02  0.51100000000E-03 0. -1.
        -11    1    3    3    0    0  0.30222331799E+01 -0.24222958532E+01 -0.31300011516E+00  0.38857920592E+01  0.51100000000E-03 0.  1.
         12    1    3    3    0    0 -0.21758132642E+01 -0.50545729081E+01 -0.78228006862E+01  0.95644697302E+01  0.00000000000E+00 0. -1.
</event>
<event>
 7    1  0.2740409E-010  0.4778727E+02  0.7816164E-02  0.1312668E+00
        -11   -1    0    0    0    0  0.00000000000E+00  0.00000000000E+00  0.45593999997E+02  0.45594000000E+02  0.51100000000E-03 0.  1.
         11   -1    0    0    0    0 -0.00000000000E+00 -0.00000000000E+00 -0.45593999997E+02  0.45594000000E+02  0.51100000000E-03 0. -1.
    9900012    2    1    2    0    0  0.32361925350E+02 -0.14209239085E+02 -0.25187823201E+02  0.47787272755E+02  0.20000007801E+02 0.  0.
        -12    1    1    2    0    0 -0.32361925350E+02  0.14209239085E+02  0.25187823201E+02  0.43400727245E+02  0.00000000000E+00 0.  1.
         11    1    3    3    0    0  0.23837223607E+02 -0.11414788617E+02 -0.12982150437E+02  0.29445659420E+02  0.51100000000E-03 0. -1.
        -11    1    3    3    0    0  0.50274255335E+01 -0.42531307889E+00  0.38614251735E+00  0.50601388335E+01  0.51100000000E-03 0.  1.
         12    1    3    3    0    0  0.34972762099E+01 -0.23691373891E+01 -0.12591815282E+02  0.13281474502E+02  0.00000000000E+00 0. -1.
</event>
<event>
 7    1  0.2740409E-010  0.4778728E+02  0.7816164E-02  0.1312668E+00
        -11   -1    0    0    0    0  0.00000000000E+00  0.00000000000E+00  0.45593999997E+02  0.45594000000E+02  0.51100000000E-03 0. -1.
         11   -1    0    0    0    0 -0.00000000000E+00 -0.00000000000E+00 -0.45593999997E+02  0.45594000000E+02  0.51100000000E-03 0.  1.
    9900012    2    1    2    0    0 -0.30100121730E+02  0.22569699791E+01  0.31185117351E+02  0.47787276667E+02  0.20000025635E+02 0.  0.
        -12    1    1    2    0    0  0.30100121730E+02 -0.22569699791E+01 -0.31185117351E+02  0.43400723333E+02  0.00000000000E+00 0.  1.
         11    1    3    3    0    0 -0.68295327968E+01 -0.12933073777E+01  0.11843806112E+02  0.13732840408E+02  0.51100000000E-03 0. -1.
        -11    1    3    3    0    0 -0.48124174691E+01  0.57950608338E+01  0.44816031096E+00  0.75460545910E+01  0.51100000000E-03 0.  1.
         12    1    3    3    0    0 -0.18458171464E+02 -0.22447834770E+01  0.18893150927E+02  0.26508381668E+02  0.00000000000E+00 0. -1.
</event>
<event>
 7    1  0.2740409E-010  0.4778727E+02  0.7816164E-02  0.1312668E+00
        -11   -1    0    0    0    0  0.00000000000E+00  0.00000000000E+00  0.45593999997E+02  0.45594000000E+02  0.51100000000E-03 0. -1.
         11   -1    0    0    0    0 -0.00000000000E+00 -0.00000000000E+00 -0.45593999997E+02  0.45594000000E+02  0.51100000000E-03 0.  1.
    9900012    2    1    2    0    0  0.23243504306E+02  0.36390188590E+02 -0.43723052161E+01  0.47787269926E+02  0.19999994901E+02 0.  0.
        -12    1    1    2    0    0 -0.23243504306E+02 -0.36390188590E+02  0.43723052161E+01  0.43400730074E+02  0.00000000000E+00 0.  1.
         11    1    3    3    0    0  0.18383054081E+02  0.21615032443E+02 -0.18902213907E+01  0.28437989416E+02  0.51100000000E-03 0. -1.
        -11    1    3    3    0    0 -0.24127137685E+01 -0.27434912743E+00 -0.76772492322E+00  0.25467345742E+01  0.51100000000E-03 0.  1.
         12    1    3    3    0    0  0.72731639930E+01  0.15049505275E+02 -0.17143589022E+01  0.16802545936E+02  0.00000000000E+00 0. -1.
</event>
<event>
 7    1  0.2740409E-010  0.4778726E+02  0.7816164E-02  0.1312668E+00
        -11   -1    0    0    0    0  0.00000000000E+00  0.00000000000E+00  0.45593999997E+02  0.45594000000E+02  0.51100000000E-03 0.  1.
         11   -1    0    0    0    0 -0.00000000000E+00 -0.00000000000E+00 -0.45593999997E+02  0.45594000000E+02  0.51100000000E-03 0. -1.
    9900012    2    1    2    0    0  0.35526788259E+02  0.23691904729E+02 -0.77565984229E+01  0.47787264375E+02  0.19999969592E+02 0.  0.
        -12    1    1    2    0    0 -0.35526788259E+02 -0.23691904729E+02  0.77565984229E+01  0.43400735625E+02  0.00000000000E+00 0.  1.
         11    1    3    3    0    0  0.25940047445E+02  0.14640815076E+02 -0.10459253933E+02  0.31569534692E+02  0.51100000000E-03 0. -1.
        -11    1    3    3    0    0 -0.11905997086E+01  0.11975822930E+01 -0.14762946562E+01  0.22430285749E+01  0.51100000000E-03 0.  1.
         12    1    3    3    0    0  0.10777340522E+02  0.78535073598E+01  0.41789501664E+01  0.13974701109E+02  0.00000000000E+00 0. -1.
</event>
<event>
 7    1  0.2740409E-010  0.4778728E+02  0.7816164E-02  0.1312668E+00
        -11   -1    0    0    0    0  0.00000000000E+00  0.00000000000E+00  0.45593999997E+02  0.45594000000E+02  0.51100000000E-03 0.  1.
         11   -1    0    0    0    0 -0.00000000000E+00 -0.00000000000E+00 -0.45593999997E+02  0.45594000000E+02  0.51100000000E-03 0. -1.
    9900012    2    1    2    0    0  0.24871718152E+02 -0.29426564446E+02 -0.19977423824E+02  0.47787279711E+02  0.20000039515E+02 0.  0.
        -12    1    1    2    0    0 -0.24871718152E+02  0.29426564446E+02  0.19977423824E+02  0.43400720289E+02  0.00000000000E+00 0.  1.
         11    1    3    3    0    0  0.22621227706E+02 -0.26779115091E+02 -0.13878051781E+02  0.37702006173E+02  0.51100000000E-03 0. -1.
        -11    1    3    3    0    0 -0.17826728378E+01 -0.31299166785E+01 -0.43893262761E+01  0.56780706477E+01  0.51100000000E-03 0.  1.
        -12    1    3    3    0    0  0.40331632840E+01  0.48246732316E+00 -0.17100457669E+01  0.44072028905E+01  0.00000000000E+00 0.  1.
</event>
<event>
 7    1  0.2740409E-010  0.4778727E+02  0.7816164E-02  0.1312668E+00
        -11   -1    0    0    0    0  0.00000000000E+00  0.00000000000E+00  0.45593999997E+02  0.45594000000E+02  0.51100000000E-03 0.  1.
         11   -1    0    0    0    0 -0.00000000000E+00 -0.00000000000E+00 -0.45593999997E+02  0.45594000000E+02  0.51100000000E-03 0. -1.
    9900012    2    1    2    0    0  0.29173026505E+02 -0.25888248085E+02 -0.19035664822E+02  0.47787269596E+02  0.19999993398E+02 0.  0.
        -12    1    1    2    0    0 -0.29173026505E+02  0.25888248085E+02  0.19035664822E+02  0.43400730404E+02  0.00000000000E+00 0.  1.
         11    1    3    3    0    0  0.31488866650E+02 -0.21464128181E+02 -0.16522820070E+02  0.41536262528E+02  0.51100000000E-03 0. -1.
        -11    1    3    3    0    0 -0.10832353161E+01 -0.37444935856E+01 -0.28189907226E+01  0.48105446591E+01  0.51100000000E-03 0.  1.
         12    1    3    3    0    0 -0.12326048293E+01 -0.67962631793E+00  0.30614597024E+00  0.14404624092E+01  0.00000000000E+00 0. -1.
</event>
<event>
 7    1  0.2740409E-010  0.4778721E+02  0.7816164E-02  0.1312668E+00
        -11   -1    0    0    0    0  0.00000000000E+00  0.00000000000E+00  0.45593999997E+02  0.45594000000E+02  0.51100000000E-03 0.  1.
         11   -1    0    0    0    0 -0.00000000000E+00 -0.00000000000E+00 -0.45593999997E+02  0.45594000000E+02  0.51100000000E-03 0. -1.
    9900012    2    1    2    0    0 -0.29606474130E+02  0.21367676758E+02 -0.23462908031E+02  0.47787205379E+02  0.19999700604E+02 0.  0.
        -12    1    1    2    0    0  0.29606474130E+02 -0.21367676758E+02  0.23462908031E+02  0.43400794621E+02  0.00000000000E+00 0.  1.
         11    1    3    3    0    0 -0.22441217673E+02  0.11397091311E+02 -0.13372518254E+02  0.28501336560E+02  0.51100000000E-03 0. -1.
        -11    1    3    3    0    0 -0.65415078283E+01  0.63099659759E+00 -0.18816172121E+01  0.68359319019E+01  0.51100000000E-03 0.  1.
         12    1    3    3    0    0 -0.62374862919E+00  0.93395888496E+01 -0.82087725650E+01  0.12449936918E+02  0.00000000000E+00 0. -1.
</event>
<event>
 7    1  0.2740409E-010  0.4778727E+02  0.7816164E-02  0.1312668E+00
        -11   -1    0    0    0    0  0.00000000000E+00  0.00000000000E+00  0.45593999997E+02  0.45594000000E+02  0.51100000000E-03 0.  1.
         11   -1    0    0    0    0 -0.00000000000E+00 -0.00000000000E+00 -0.45593999997E+02  0.45594000000E+02  0.51100000000E-03 0. -1.
    9900012    2    1    2    0    0  0.35524343140E+02 -0.24253383560E+02 -0.57808077136E+01  0.47787270658E+02  0.19999998238E+02 0.  0.
        -12    1    1    2    0    0 -0.35524343140E+02  0.24253383560E+02  0.57808077136E+01  0.43400729342E+02  0.00000000000E+00 0.  1.
         11    1    3    3    0    0  0.19277967305E+02 -0.12089582734E+02 -0.85900723748E+01  0.24322569308E+02  0.51100000000E-03 0. -1.
        -11    1    3    3    0    0  0.49775110130E+01 -0.64072131146E+01  0.63744061769E+01  0.10317996421E+02  0.51100000000E-03 0.  1.
        -12    1    3    3    0    0  0.11268864822E+02 -0.57565877112E+01 -0.35651415157E+01  0.13146704928E+02  0.00000000000E+00 0.  1.
</event>
<event>
 7    1  0.2740409E-010  0.4778727E+02  0.7816164E-02  0.1312668E+00
        -11   -1    0    0    0    0  0.00000000000E+00  0.00000000000E+00  0.45593999997E+02  0.45594000000E+02  0.51100000000E-03 0. -1.
         11   -1    0    0    0    0 -0.00000000000E+00 -0.00000000000E+00 -0.45593999997E+02  0.45594000000E+02  0.51100000000E-03 0.  1.
    9900012    2    1    2    0    0 -0.18525326557E+02 -0.29064380822E+02  0.26376073826E+02  0.47787271584E+02  0.20000002459E+02 0.  0.
        -12    1    1    2    0    0  0.18525326557E+02  0.29064380822E+02 -0.26376073826E+02  0.43400728416E+02  0.00000000000E+00 0.  1.
         11    1    3    3    0    0 -0.12591633711E+02 -0.12336429670E+02  0.93023582401E+01  0.19931648341E+02  0.51100000000E-03 0. -1.
        -11    1    3    3    0    0  0.27754863803E+01 -0.10584566624E+02  0.59718077394E+01  0.12465908038E+02  0.51100000000E-03 0.  1.
        -12    1    3    3    0    0 -0.87091792263E+01 -0.61433845281E+01  0.11101907846E+02  0.15389715205E+02  0.00000000000E+00 0.  1.
</event>
<event>
 7    1  0.2740409E-010  0.4778727E+02  0.7816164E-02  0.1312668E+00
        -11   -1    0    0    0    0  0.00000000000E+00  0.00000000000E+00  0.45593999997E+02  0.45594000000E+02  0.51100000000E-03 0. -1.
         11   -1    0    0    0    0 -0.00000000000E+00 -0.00000000000E+00 -0.45593999997E+02  0.45594000000E+02  0.51100000000E-03 0.  1.
    9900012    2    1    2    0    0 -0.15379822413E+02  0.37171328833E+02 -0.16290379806E+02  0.47787273060E+02  0.20000009191E+02 0.  0.
        -12    1    1    2    0    0  0.15379822413E+02 -0.37171328833E+02  0.16290379806E+02  0.43400726940E+02  0.00000000000E+00 0.  1.
         11    1    3    3    0    0 -0.97864778618E+01  0.26997152815E+02 -0.37023371332E+01  0.28953906638E+02  0.51100000000E-03 0. -1.
        -11    1    3    3    0    0  0.18754134196E+01  0.16110376872E+01 -0.34906790637E+01  0.42775528648E+01  0.51100000000E-03 0.  1.
         12    1    3    3    0    0 -0.74687579709E+01  0.85631383305E+01 -0.90973636090E+01  0.14555813558E+02  0.00000000000E+00 0. -1.
</event>
<event>
 7    1  0.2740409E-010  0.4778727E+02  0.7816164E-02  0.1312668E+00
        -11   -1    0    0    0    0  0.00000000000E+00  0.00000000000E+00  0.45593999997E+02  0.45594000000E+02  0.51100000000E-03 0.  1.
         11   -1    0    0    0    0 -0.00000000000E+00 -0.00000000000E+00 -0.45593999997E+02  0.45594000000E+02  0.51100000000E-03 0. -1.
    9900012    2    1    2    0    0 -0.19013349486E+01 -0.33939992541E+02 -0.26983048826E+02  0.47787273137E+02  0.20000009542E+02 0.  0.
        -12    1    1    2    0    0  0.19013349486E+01  0.33939992541E+02  0.26983048826E+02  0.43400726863E+02  0.00000000000E+00 0.  1.
         11    1    3    3    0    0 -0.20925408812E+01  0.94539794976E+00 -0.51186592743E+01  0.56100960464E+01  0.51100000000E-03 0. -1.
        -11    1    3    3    0    0 -0.13005599489E+01 -0.11517296591E+02 -0.26559145100E+01  0.11890898162E+02  0.51100000000E-03 0.  1.
         12    1    3    3    0    0  0.14917658816E+01 -0.23368093900E+02 -0.19208475042E+02  0.30286278929E+02  0.00000000000E+00 0. -1.
</event>
<event>
 7    1  0.2740409E-010  0.4778727E+02  0.7816164E-02  0.1312668E+00
        -11   -1    0    0    0    0  0.00000000000E+00  0.00000000000E+00  0.45593999997E+02  0.45594000000E+02  0.51100000000E-03 0. -1.
         11   -1    0    0    0    0 -0.00000000000E+00 -0.00000000000E+00 -0.45593999997E+02  0.45594000000E+02  0.51100000000E-03 0.  1.
    9900012    2    1    2    0    0 -0.11315816590E+02 -0.32286636545E+02  0.26704842145E+02  0.47787271913E+02  0.20000003960E+02 0.  0.
        -12    1    1    2    0    0  0.11315816590E+02  0.32286636545E+02 -0.26704842145E+02  0.43400728087E+02  0.00000000000E+00 0.  1.
         11    1    3    3    0    0 -0.33096045866E+01 -0.22656163733E+02  0.10266920120E+02  0.25093124290E+02  0.51100000000E-03 0. -1.
        -11    1    3    3    0    0  0.10828789987E+01  0.10740420682E+01  0.23591211482E+01  0.28092073870E+01  0.51100000000E-03 0.  1.
         12    1    3    3    0    0 -0.90890910016E+01 -0.10704514880E+02  0.14078800877E+02  0.19884940236E+02  0.00000000000E+00 0. -1.
</event>
<event>
 7    1  0.2740409E-010  0.4778727E+02  0.7816164E-02  0.1312668E+00
        -11   -1    0    0    0    0  0.00000000000E+00  0.00000000000E+00  0.45593999997E+02  0.45594000000E+02  0.51100000000E-03 0.  1.
         11   -1    0    0    0    0 -0.00000000000E+00 -0.00000000000E+00 -0.45593999997E+02  0.45594000000E+02  0.51100000000E-03 0. -1.
    9900012    2    1    2    0    0 -0.16845003105E+01 -0.17041380242E+02 -0.39879534008E+02  0.47787269424E+02  0.19999992610E+02 0.  0.
        -12    1    1    2    0    0  0.16845003105E+01  0.17041380242E+02  0.39879534008E+02  0.43400730576E+02  0.00000000000E+00 0.  1.
         11    1    3    3    0    0 -0.14982467183E+01 -0.85186765269E+01 -0.80025170288E+01  0.11783584856E+02  0.51100000000E-03 0. -1.
        -11    1    3    3    0    0 -0.13014662267E+01  0.22080718828E+01 -0.19143390222E+02  0.19314212001E+02  0.51100000000E-03 0.  1.
        -12    1    3    3    0    0  0.11152126344E+01 -0.10730775598E+02 -0.12733626758E+02  0.16689472567E+02  0.00000000000E+00 0.  1.
</event>
<event>
 7    1  0.2740409E-010  0.4778727E+02  0.7816164E-02  0.1312668E+00
        -11   -1    0    0    0    0  0.00000000000E+00  0.00000000000E+00  0.45593999997E+02  0.45594000000E+02  0.51100000000E-03 0.  1.
         11   -1    0    0    0    0 -0.00000000000E+00 -0.00000000000E+00 -0.45593999997E+02  0.45594000000E+02  0.51100000000E-03 0. -1.
    9900012    2    1    2    0    0  0.31197235870E+02 -0.13541852444E+02 -0.26962454157E+02  0.47787271576E+02  0.20000002425E+02 0.  0.
        -12    1    1    2    0    0 -0.31197235870E+02  0.13541852444E+02  0.26962454157E+02  0.43400728424E+02  0.00000000000E+00 0.  1.
         11    1    3    3    0    0  0.71107706871E+01 -0.12469402130E+02 -0.95698730618E+01  0.17252000462E+02  0.51100000000E-03 0. -1.
        -11    1    3    3    0    0  0.47391845166E+00  0.83165746455E+00  0.26038462476E+00  0.99199458219E+00  0.51100000000E-03 0.  1.
         12    1    3    3    0    0  0.23612546731E+02 -0.19041077778E+01 -0.17652965720E+02  0.29543276532E+02  0.00000000000E+00 0. -1.
</event>
<event>
 7    1  0.2740409E-010  0.4778727E+02  0.7816164E-02  0.1312668E+00
        -11   -1    0    0    0    0  0.00000000000E+00  0.00000000000E+00  0.45593999997E+02  0.45594000000E+02  0.51100000000E-03 0.  1.
         11   -1    0    0    0    0 -0.00000000000E+00 -0.00000000000E+00 -0.45593999997E+02  0.45594000000E+02  0.51100000000E-03 0. -1.
    9900012    2    1    2    0    0 -0.12784094521E+02 -0.23637512085E+02 -0.34080170705E+02  0.47787273214E+02  0.20000009893E+02 0.  0.
        -12    1    1    2    0    0  0.12784094521E+02  0.23637512085E+02  0.34080170705E+02  0.43400726786E+02  0.00000000000E+00 0.  1.
         11    1    3    3    0    0 -0.25861878779E+01 -0.33951674804E+01 -0.11903901413E+02  0.12645884669E+02  0.51100000000E-03 0. -1.
        -11    1    3    3    0    0  0.34607830802E+01 -0.73700016368E+01 -0.42375339049E+01  0.91788146027E+01  0.51100000000E-03 0.  1.
        -12    1    3    3    0    0 -0.13658689723E+02 -0.12872342968E+02 -0.17938735387E+02  0.25962573942E+02  0.00000000000E+00 0.  1.
</event>
<event>
 7    1  0.2740409E-010  0.4778726E+02  0.7816164E-02  0.1312668E+00
        -11   -1    0    0    0    0  0.00000000000E+00  0.00000000000E+00  0.45593999997E+02  0.45594000000E+02  0.51100000000E-03 0. -1.
         11   -1    0    0    0    0 -0.00000000000E+00 -0.00000000000E+00 -0.45593999997E+02  0.45594000000E+02  0.51100000000E-03 0.  1.
    9900012    2    1    2    0    0 -0.24937057122E+02  0.28618581934E+02  0.21041479702E+02  0.47787263625E+02  0.19999966172E+02 0.  0.
        -12    1    1    2    0    0  0.24937057122E+02 -0.28618581934E+02 -0.21041479702E+02  0.43400736375E+02  0.00000000000E+00 0.  1.
         11    1    3    3    0    0 -0.69910003352E+01  0.81465996952E+01  0.28614228177E+01  0.11109856574E+02  0.51100000000E-03 0. -1.
        -11    1    3    3    0    0 -0.18178877757E+02  0.98654094130E+01  0.15168265789E+02  0.25649058203E+02  0.51100000000E-03 0.  1.
        -12    1    3    3    0    0  0.23282097072E+00  0.10606572826E+02  0.30117910951E+01  0.11028348848E+02  0.00000000000E+00 0.  1.
</event>
<event>
 7    1  0.2740409E-010  0.4778727E+02  0.7816164E-02  0.1312668E+00
        -11   -1    0    0    0    0  0.00000000000E+00  0.00000000000E+00  0.45593999997E+02  0.45594000000E+02  0.51100000000E-03 0. -1.
         11   -1    0    0    0    0 -0.00000000000E+00 -0.00000000000E+00 -0.45593999997E+02  0.45594000000E+02  0.51100000000E-03 0.  1.
    9900012    2    1    2    0    0 -0.40877110778E+02 -0.11535884743E+02  0.89223455094E+01  0.47787273373E+02  0.20000010618E+02 0.  0.
        -12    1    1    2    0    0  0.40877110778E+02  0.11535884743E+02 -0.89223455094E+01  0.43400726627E+02  0.00000000000E+00 0.  1.
         11    1    3    3    0    0 -0.19134507787E+02 -0.32618827290E+01 -0.38219469699E+01  0.19783239019E+02  0.51100000000E-03 0. -1.
        -11    1    3    3    0    0 -0.10292598378E+02 -0.86882133708E+01  0.72667977640E+01  0.15304541253E+02  0.51100000000E-03 0.  1.
         12    1    3    3    0    0 -0.11450004613E+02  0.41421135642E+00  0.54774947153E+01  0.12699493102E+02  0.00000000000E+00 0. -1.
</event>
<event>
 7    1  0.2740409E-010  0.4778727E+02  0.7816164E-02  0.1312668E+00
        -11   -1    0    0    0    0  0.00000000000E+00  0.00000000000E+00  0.45593999997E+02  0.45594000000E+02  0.51100000000E-03 0. -1.
         11   -1    0    0    0    0 -0.00000000000E+00 -0.00000000000E+00 -0.45593999997E+02  0.45594000000E+02  0.51100000000E-03 0.  1.
    9900012    2    1    2    0    0  0.23192795776E+02 -0.23992301717E+02  0.27750439189E+02  0.47787271979E+02  0.20000004260E+02 0.  0.
        -12    1    1    2    0    0 -0.23192795776E+02  0.23992301717E+02 -0.27750439189E+02  0.43400728021E+02  0.00000000000E+00 0.  1.
         11    1    3    3    0    0  0.96115465076E+01 -0.10330457886E+02  0.20104354379E+02  0.24561865802E+02  0.51100000000E-03 0. -1.
        -11    1    3    3    0    0  0.73470169749E+01 -0.13866769279E+02  0.54196252718E+01  0.16602357875E+02  0.51100000000E-03 0.  1.
        -12    1    3    3    0    0  0.62342322939E+01  0.20492544870E+00  0.22264595383E+01  0.66230483020E+01  0.00000000000E+00 0.  1.
</event>
<event>
 7    1  0.2740409E-010  0.4778727E+02  0.7816164E-02  0.1312668E+00
        -11   -1    0    0    0    0  0.00000000000E+00  0.00000000000E+00  0.45593999997E+02  0.45594000000E+02  0.51100000000E-03 0.  1.
         11   -1    0    0    0    0 -0.00000000000E+00 -0.00000000000E+00 -0.45593999997E+02  0.45594000000E+02  0.51100000000E-03 0. -1.
    9900012    2    1    2    0    0 -0.40407156093E+02 -0.10990198978E+02 -0.11406153960E+02  0.47787273217E+02  0.20000009907E+02 0.  0.
        -12    1    1    2    0    0  0.40407156093E+02  0.10990198978E+02  0.11406153960E+02  0.43400726783E+02  0.00000000000E+00 0.  1.
         11    1    3    3    0    0 -0.13647091191E+02 -0.89752904590E+01 -0.16281155271E+01  0.16414923004E+02  0.51100000000E-03 0.  1.
        -11    1    3    3    0    0 -0.13738420000E+02  0.50702077599E+01 -0.72259654566E+01  0.16329904099E+02  0.51100000000E-03 0. -1.
         12    1    3    3    0    0 -0.13021644902E+02 -0.70851162787E+01 -0.25520729768E+01  0.15042446115E+02  0.00000000000E+00 0. -1.
</event>
<event>
 7    1  0.2740409E-010  0.4778727E+02  0.7816164E-02  0.1312668E+00
        -11   -1    0    0    0    0  0.00000000000E+00  0.00000000000E+00  0.45593999997E+02  0.45594000000E+02  0.51100000000E-03 0.  1.
         11   -1    0    0    0    0 -0.00000000000E+00 -0.00000000000E+00 -0.45593999997E+02  0.45594000000E+02  0.51100000000E-03 0. -1.
    9900012    2    1    2    0    0  0.22224297365E+02  0.14985632463E+01 -0.37248597295E+02  0.47787273213E+02  0.20000009887E+02 0.  0.
        -12    1    1    2    0    0 -0.22224297365E+02 -0.14985632463E+01  0.37248597295E+02  0.43400726787E+02  0.00000000000E+00 0.  1.
         11    1    3    3    0    0  0.20311404878E+02  0.15404387862E+01 -0.26707270270E+02  0.33588754149E+02  0.51100000000E-03 0. -1.
        -11    1    3    3    0    0 -0.28341115710E+01 -0.21517501436E+01 -0.16990877074E+01  0.39432367892E+01  0.51100000000E-03 0.  1.
        -12    1    3    3    0    0  0.47470040588E+01  0.21098746037E+01 -0.88422393178E+01  0.10255282275E+02  0.00000000000E+00 0.  1.
</event>
<event>
 7    1  0.2740409E-010  0.4778731E+02  0.7816164E-02  0.1312668E+00
        -11   -1    0    0    0    0  0.00000000000E+00  0.00000000000E+00  0.45593999997E+02  0.45594000000E+02  0.51100000000E-03 0.  1.
         11   -1    0    0    0    0 -0.00000000000E+00 -0.00000000000E+00 -0.45593999997E+02  0.45594000000E+02  0.51100000000E-03 0. -1.
    9900012    2    1    2    0    0 -0.29832968581E+02 -0.27820197322E+01 -0.31398635651E+02  0.47787309120E+02  0.20000173600E+02 0.  0.
        -12    1    1    2    0    0  0.29832968581E+02  0.27820197322E+01  0.31398635651E+02  0.43400690880E+02  0.00000000000E+00 0.  1.
         11    1    3    3    0    0 -0.67485614706E+01 -0.50092363930E+01 -0.17670927288E+02  0.19567759265E+02  0.51100000000E-03 0. -1.
        -11    1    3    3    0    0 -0.97021392977E+01  0.80462423544E+00 -0.11568805568E+01  0.98039430840E+01  0.51100000000E-03 0.  1.
         12    1    3    3    0    0 -0.13382267812E+02  0.14225924254E+01 -0.12570827806E+02  0.18415606771E+02  0.00000000000E+00 0. -1.
</event>
<event>
 7    1  0.2740409E-010  0.4778727E+02  0.7816164E-02  0.1312668E+00
        -11   -1    0    0    0    0  0.00000000000E+00  0.00000000000E+00  0.45593999997E+02  0.45594000000E+02  0.51100000000E-03 0. -1.
         11   -1    0    0    0    0 -0.00000000000E+00 -0.00000000000E+00 -0.45593999997E+02  0.45594000000E+02  0.51100000000E-03 0.  1.
    9900012    2    1    2    0    0  0.36237076786E+02  0.77610242507E+01  0.22589018632E+02  0.47787274267E+02  0.20000014691E+02 0.  0.
        -12    1    1    2    0    0 -0.36237076786E+02 -0.77610242507E+01 -0.22589018632E+02  0.43400725733E+02  0.00000000000E+00 0.  1.
         11    1    3    3    0    0  0.54969662213E+01 -0.27459232734E+01  0.51784693878E+01  0.80357499788E+01  0.51100000000E-03 0. -1.
        -11    1    3    3    0    0  0.19505690499E+02  0.12085554040E+02  0.61256567726E+01  0.23749868409E+02  0.51100000000E-03 0.  1.
        -12    1    3    3    0    0  0.11234420066E+02 -0.15786065160E+01  0.11284892472E+02  0.16001655878E+02  0.00000000000E+00 0.  1.
</event>
<event>
 7    1  0.2740409E-010  0.4778727E+02  0.7816164E-02  0.1312668E+00
        -11   -1    0    0    0    0  0.00000000000E+00  0.00000000000E+00  0.45593999997E+02  0.45594000000E+02  0.51100000000E-03 0.  1.
         11   -1    0    0    0    0 -0.00000000000E+00 -0.00000000000E+00 -0.45593999997E+02  0.45594000000E+02  0.51100000000E-03 0. -1.
    9900012    2    1    2    0    0  0.14884447248E+01 -0.33166276395E+02 -0.27953638678E+02  0.47787271055E+02  0.20000000050E+02 0.  0.
        -12    1    1    2    0    0 -0.14884447248E+01  0.33166276395E+02  0.27953638678E+02  0.43400728945E+02  0.00000000000E+00 0.  1.
         11    1    3    3    0    0 -0.25441812160E+01 -0.23336762696E+02 -0.73649057154E+01  0.24603235309E+02  0.51100000000E-03 0.  1.
        -11    1    3    3    0    0  0.20325156687E+01 -0.52330611156E+01 -0.11766842916E+02  0.13037432303E+02  0.51100000000E-03 0. -1.
        -12    1    3    3    0    0  0.20001102721E+01 -0.45964525827E+01 -0.88218900466E+01  0.10146603443E+02  0.00000000000E+00 0.  1.
</event>
<event>
 7    1  0.2740409E-010  0.4778727E+02  0.7816164E-02  0.1312668E+00
        -11   -1    0    0    0    0  0.00000000000E+00  0.00000000000E+00  0.45593999997E+02  0.45594000000E+02  0.51100000000E-03 0.  1.
         11   -1    0    0    0    0 -0.00000000000E+00 -0.00000000000E+00 -0.45593999997E+02  0.45594000000E+02  0.51100000000E-03 0. -1.
    9900012    2    1    2    0    0 -0.39493766368E+02  0.96480312527E+01  0.15191490466E+02  0.47787268767E+02  0.19999989618E+02 0.  0.
        -12    1    1    2    0    0  0.39493766368E+02 -0.96480312527E+01 -0.15191490466E+02  0.43400731233E+02  0.00000000000E+00 0.  1.
         11    1    3    3    0    0 -0.11554913282E+02  0.87359093221E+01  0.66612085527E+01  0.15943770955E+02  0.51100000000E-03 0. -1.
        -11    1    3    3    0    0 -0.25143499528E+02 -0.19379614392E+01  0.35594078200E+01  0.25468031870E+02  0.51100000000E-03 0.  1.
         12    1    3    3    0    0 -0.27953535586E+01  0.28500833698E+01  0.49708740929E+01  0.63754659422E+01  0.00000000000E+00 0. -1.
</event>
<event>
 7    1  0.2740409E-010  0.4778727E+02  0.7816164E-02  0.1312668E+00
        -11   -1    0    0    0    0  0.00000000000E+00  0.00000000000E+00  0.45593999997E+02  0.45594000000E+02  0.51100000000E-03 0.  1.
         11   -1    0    0    0    0 -0.00000000000E+00 -0.00000000000E+00 -0.45593999997E+02  0.45594000000E+02  0.51100000000E-03 0. -1.
    9900012    2    1    2    0    0 -0.17943775846E+02  0.25541341197E+02 -0.30154337582E+02  0.47787271011E+02  0.19999999850E+02 0.  0.
        -12    1    1    2    0    0  0.17943775846E+02 -0.25541341197E+02  0.30154337582E+02  0.43400728989E+02  0.00000000000E+00 0.  1.
         11    1    3    3    0    0 -0.74587609758E+01  0.14609283722E+02 -0.22236824756E+02  0.27632239533E+02  0.51100000000E-03 0. -1.
        -11    1    3    3    0    0 -0.85300178083E+01  0.30580776195E+01 -0.36228002086E+00  0.90688637442E+01  0.51100000000E-03 0.  1.
        -12    1    3    3    0    0 -0.19549970616E+01  0.78739798557E+01 -0.75552328053E+01  0.11086167734E+02  0.00000000000E+00 0.  1.
</event>
<event>
 7    1  0.2740409E-010  0.4778727E+02  0.7816164E-02  0.1312668E+00
        -11   -1    0    0    0    0  0.00000000000E+00  0.00000000000E+00  0.45593999997E+02  0.45594000000E+02  0.51100000000E-03 0.  1.
         11   -1    0    0    0    0 -0.00000000000E+00 -0.00000000000E+00 -0.45593999997E+02  0.45594000000E+02  0.51100000000E-03 0. -1.
    9900012    2    1    2    0    0 -0.93634552721E+01 -0.21945570656E+02 -0.36253838883E+02  0.47787271898E+02  0.20000003893E+02 0.  0.
        -12    1    1    2    0    0  0.93634552721E+01  0.21945570656E+02  0.36253838883E+02  0.43400728102E+02  0.00000000000E+00 0.  1.
         11    1    3    3    0    0 -0.59419534383E+01  0.10713459839E+01 -0.40016745634E+01  0.72434793057E+01  0.51100000000E-03 0. -1.
        -11    1    3    3    0    0  0.42726886316E+00 -0.96828044878E+01 -0.19124104029E+02  0.21439930424E+02  0.51100000000E-03 0.  1.
         12    1    3    3    0    0 -0.38487706970E+01 -0.13334112152E+02 -0.13128060290E+02  0.19103862168E+02  0.00000000000E+00 0. -1.
</event>
<event>
 7    1  0.2740409E-010  0.4778727E+02  0.7816164E-02  0.1312668E+00
        -11   -1    0    0    0    0  0.00000000000E+00  0.00000000000E+00  0.45593999997E+02  0.45594000000E+02  0.51100000000E-03 0.  1.
         11   -1    0    0    0    0 -0.00000000000E+00 -0.00000000000E+00 -0.45593999997E+02  0.45594000000E+02  0.51100000000E-03 0. -1.
    9900012    2    1    2    0    0 -0.26546863654E+02  0.22256431106E+02 -0.26144571155E+02  0.47787270786E+02  0.19999998822E+02 0.  0.
        -12    1    1    2    0    0  0.26546863654E+02 -0.22256431106E+02  0.26144571155E+02  0.43400729214E+02  0.00000000000E+00 0.  1.
         11    1    3    3    0    0 -0.16164524810E+02  0.59770001647E+01 -0.36515882700E+01  0.17616767310E+02  0.51100000000E-03 0. -1.
        -11    1    3    3    0    0 -0.77139129296E+01  0.72231034794E+01 -0.13364686207E+02  0.17037972715E+02  0.51100000000E-03 0.  1.
         12    1    3    3    0    0 -0.26684259146E+01  0.90563274617E+01 -0.91282966778E+01  0.13132530761E+02  0.00000000000E+00 0. -1.
</event>
<event>
 7    1  0.2740409E-010  0.4778727E+02  0.7816164E-02  0.1312668E+00
        -11   -1    0    0    0    0  0.00000000000E+00  0.00000000000E+00  0.45593999997E+02  0.45594000000E+02  0.51100000000E-03 0. -1.
         11   -1    0    0    0    0 -0.00000000000E+00 -0.00000000000E+00 -0.45593999997E+02  0.45594000000E+02  0.51100000000E-03 0.  1.
    9900012    2    1    2    0    0  0.19182399434E+02  0.34388063843E+02  0.18251580090E+02  0.47787267763E+02  0.19999985039E+02 0.  0.
        -12    1    1    2    0    0 -0.19182399434E+02 -0.34388063843E+02 -0.18251580090E+02  0.43400732237E+02  0.00000000000E+00 0.  1.
         11    1    3    3    0    0  0.18233194939E+02  0.17965666766E+02  0.77380426219E+01  0.26741201991E+02  0.51100000000E-03 0. -1.
        -11    1    3    3    0    0  0.10756863118E+01  0.13610092083E+02  0.44476084136E+01  0.14358723077E+02  0.51100000000E-03 0.  1.
         12    1    3    3    0    0 -0.12648181702E+00  0.28123049939E+01  0.60659290543E+01  0.66873426951E+01  0.00000000000E+00 0. -1.
</event>
<event>
 7    1  0.2740409E-010  0.4778727E+02  0.7816164E-02  0.1312668E+00
        -11   -1    0    0    0    0  0.00000000000E+00  0.00000000000E+00  0.45593999997E+02  0.45594000000E+02  0.51100000000E-03 0.  1.
         11   -1    0    0    0    0 -0.00000000000E+00 -0.00000000000E+00 -0.45593999997E+02  0.45594000000E+02  0.51100000000E-03 0. -1.
    9900012    2    1    2    0    0  0.19236792378E+02  0.27657273774E+02 -0.27361363380E+02  0.47787272130E+02  0.20000004948E+02 0.  0.
        -12    1    1    2    0    0 -0.19236792378E+02 -0.27657273774E+02  0.27361363380E+02  0.43400727870E+02  0.00000000000E+00 0.  1.
         11    1    3    3    0    0  0.18923031770E+02  0.19442747826E+02 -0.21563509719E+02  0.34656695256E+02  0.51100000000E-03 0. -1.
        -11    1    3    3    0    0 -0.20815155428E+01  0.95354605158E-01 -0.39503180402E+01  0.44661854345E+01  0.51100000000E-03 0.  1.
        -12    1    3    3    0    0  0.23952761509E+01  0.81191713434E+01 -0.18475356207E+01  0.86643914392E+01  0.00000000000E+00 0.  1.
</event>
<event>
 7    1  0.2740409E-010  0.4778728E+02  0.7816164E-02  0.1312668E+00
        -11   -1    0    0    0    0  0.00000000000E+00  0.00000000000E+00  0.45593999997E+02  0.45594000000E+02  0.51100000000E-03 0.  1.
         11   -1    0    0    0    0 -0.00000000000E+00 -0.00000000000E+00 -0.45593999997E+02  0.45594000000E+02  0.51100000000E-03 0. -1.
    9900012    2    1    2    0    0 -0.10345730541E+02 -0.29531696049E+01 -0.42046015820E+02  0.47787276533E+02  0.20000025024E+02 0.  0.
        -12    1    1    2    0    0  0.10345730541E+02  0.29531696049E+01  0.42046015820E+02  0.43400723467E+02  0.00000000000E+00 0.  1.
         11    1    3    3    0    0  0.23237208981E+01  0.40250041131E+01 -0.37359967420E+01  0.59630536506E+01  0.51100000000E-03 0. -1.
        -11    1    3    3    0    0 -0.49751650001E+01 -0.11430110473E+00 -0.54303468457E+01  0.73657313722E+01  0.51100000000E-03 0.  1.
         12    1    3    3    0    0 -0.76942864394E+01 -0.68638726133E+01 -0.32879672232E+02  0.34458491510E+02  0.00000000000E+00 0. -1.
</event>
<event>
 7    1  0.2740409E-010  0.4778728E+02  0.7816164E-02  0.1312668E+00
        -11   -1    0    0    0    0  0.00000000000E+00  0.00000000000E+00  0.45593999997E+02  0.45594000000E+02  0.51100000000E-03 0.  1.
         11   -1    0    0    0    0 -0.00000000000E+00 -0.00000000000E+00 -0.45593999997E+02  0.45594000000E+02  0.51100000000E-03 0. -1.
    9900012    2    1    2    0    0  0.40365959290E+02  0.13762710369E+02  0.80498351451E+01  0.47787277518E+02  0.20000029513E+02 0.  0.
        -12    1    1    2    0    0 -0.40365959290E+02 -0.13762710369E+02 -0.80498351451E+01  0.43400722482E+02  0.00000000000E+00 0.  1.
         11    1    3    3    0    0  0.28910046461E+02  0.91043951008E+01  0.17921004283E+01  0.30362681382E+02  0.51100000000E-03 0. -1.
        -11    1    3    3    0    0  0.71730062366E+01  0.69762914691E+01  0.69325038359E+00  0.10030017821E+02  0.51100000000E-03 0.  1.
         12    1    3    3    0    0  0.42829065930E+01 -0.23179762009E+01  0.55644843332E+01  0.73945783143E+01  0.00000000000E+00 0. -1.
</event>
<event>
 7    1  0.2740409E-010  0.4778727E+02  0.7816164E-02  0.1312668E+00
        -11   -1    0    0    0    0  0.00000000000E+00  0.00000000000E+00  0.45593999997E+02  0.45594000000E+02  0.51100000000E-03 0.  1.
         11   -1    0    0    0    0 -0.00000000000E+00 -0.00000000000E+00 -0.45593999997E+02  0.45594000000E+02  0.51100000000E-03 0. -1.
    9900012    2    1    2    0    0  0.10451306147E+01  0.23119953710E+02 -0.36715101518E+02  0.47787271468E+02  0.20000001933E+02 0.  0.
        -12    1    1    2    0    0 -0.10451306147E+01 -0.23119953710E+02  0.36715101518E+02  0.43400728532E+02  0.00000000000E+00 0.  1.
         11    1    3    3    0    0  0.27923525897E+01  0.17935161010E+02 -0.37955646252E+02  0.42072536364E+02  0.51100000000E-03 0. -1.
        -11    1    3    3    0    0 -0.10548847577E+01  0.17859996123E+01  0.77831873598E+00  0.22154811629E+01  0.51100000000E-03 0.  1.
         12    1    3    3    0    0 -0.69233721729E+00  0.33987930881E+01  0.46222599711E+00  0.34992539420E+01  0.00000000000E+00 0. -1.
</event>
<event>
 7    1  0.2740409E-010  0.4778727E+02  0.7816164E-02  0.1312668E+00
        -11   -1    0    0    0    0  0.00000000000E+00  0.00000000000E+00  0.45593999997E+02  0.45594000000E+02  0.51100000000E-03 0. -1.
         11   -1    0    0    0    0 -0.00000000000E+00 -0.00000000000E+00 -0.45593999997E+02  0.45594000000E+02  0.51100000000E-03 0.  1.
    9900012    2    1    2    0    0  0.29675921452E+02 -0.31647515524E+02 -0.11822596954E+01  0.47787270849E+02  0.19999999107E+02 0.  0.
        -12    1    1    2    0    0 -0.29675921452E+02  0.31647515524E+02  0.11822596954E+01  0.43400729151E+02  0.00000000000E+00 0.  1.
         11    1    3    3    0    0  0.15542186425E+01 -0.12633928131E+02 -0.30448405025E+00  0.12732809839E+02  0.51100000000E-03 0. -1.
        -11    1    3    3    0    0  0.17544425518E+02 -0.12754430706E+02 -0.46790927173E+01  0.22189553360E+02  0.51100000000E-03 0.  1.
        -12    1    3    3    0    0  0.10577277292E+02 -0.62591566866E+01  0.38013170722E+01  0.12864907649E+02  0.00000000000E+00 0.  1.
</event>
<event>
 7    1  0.2740409E-010  0.4778727E+02  0.7816164E-02  0.1312668E+00
        -11   -1    0    0    0    0  0.00000000000E+00  0.00000000000E+00  0.45593999997E+02  0.45594000000E+02  0.51100000000E-03 0. -1.
         11   -1    0    0    0    0 -0.00000000000E+00 -0.00000000000E+00 -0.45593999997E+02  0.45594000000E+02  0.51100000000E-03 0.  1.
    9900012    2    1    2    0    0  0.20986478481E+02  0.15977702152E+02  0.34465986760E+02  0.47787268573E+02  0.19999988732E+02 0.  0.
        -12    1    1    2    0    0 -0.20986478481E+02 -0.15977702152E+02 -0.34465986760E+02  0.43400731427E+02  0.00000000000E+00 0.  1.
         11    1    3    3    0    0  0.90946258724E+01  0.70303301839E+01  0.20217979087E+02  0.23257352405E+02  0.51100000000E-03 0. -1.
        -11    1    3    3    0    0  0.18149201703E+01  0.23247474962E+00 -0.25195874303E+01  0.31138883753E+01  0.51100000000E-03 0.  1.
        -12    1    3    3    0    0  0.10076932438E+02  0.87148972185E+01  0.16767595103E+02  0.21416027793E+02  0.00000000000E+00 0.  1.
</event>
<event>
 7    1  0.2740409E-010  0.4778727E+02  0.7816164E-02  0.1312668E+00
        -11   -1    0    0    0    0  0.00000000000E+00  0.00000000000E+00  0.45593999997E+02  0.45594000000E+02  0.51100000000E-03 0.  1.
         11   -1    0    0    0    0 -0.00000000000E+00 -0.00000000000E+00 -0.45593999997E+02  0.45594000000E+02  0.51100000000E-03 0. -1.
    9900012    2    1    2    0    0  0.21940369780E+01 -0.22640826772E+02 -0.36962176314E+02  0.47787270593E+02  0.19999997940E+02 0.  0.
        -12    1    1    2    0    0 -0.21940369780E+01  0.22640826772E+02  0.36962176314E+02  0.43400729407E+02  0.00000000000E+00 0.  1.
         11    1    3    3    0    0  0.10657892394E+00 -0.84089652673E+01 -0.60804700235E+00  0.84315939983E+01  0.51100000000E-03 0. -1.
        -11    1    3    3    0    0  0.34345620492E+01 -0.81889009230E+01 -0.21830486004E+02  0.23567444372E+02  0.51100000000E-03 0.  1.
         12    1    3    3    0    0 -0.13471039952E+01 -0.60429605818E+01 -0.14523643308E+02  0.15788232222E+02  0.00000000000E+00 0. -1.
</event>
<event>
 7    1  0.2740409E-010  0.4778723E+02  0.7816164E-02  0.1312668E+00
        -11   -1    0    0    0    0  0.00000000000E+00  0.00000000000E+00  0.45593999997E+02  0.45594000000E+02  0.51100000000E-03 0.  1.
         11   -1    0    0    0    0 -0.00000000000E+00 -0.00000000000E+00 -0.45593999997E+02  0.45594000000E+02  0.51100000000E-03 0. -1.
    9900012    2    1    2    0    0  0.18644472088E+02 -0.36925666216E+02 -0.13134149369E+02  0.47787227603E+02  0.19999801934E+02 0.  0.
        -12    1    1    2    0    0 -0.18644472088E+02  0.36925666216E+02  0.13134149369E+02  0.43400772397E+02  0.00000000000E+00 0.  1.
         11    1    3    3    0    0  0.14108477346E+02 -0.33064579397E+02 -0.12717247634E+02  0.38131927979E+02  0.51100000000E-03 0. -1.
        -11    1    3    3    0    0 -0.10361596929E+01 -0.12305966999E+01  0.23926227197E+01  0.28831647346E+01  0.51100000000E-03 0.  1.
        -12    1    3    3    0    0  0.55721544345E+01 -0.26304901198E+01 -0.28095244546E+01  0.67721348903E+01  0.00000000000E+00 0.  1.
</event>
<event>
 7    1  0.2740409E-010  0.4778727E+02  0.7816164E-02  0.1312668E+00
        -11   -1    0    0    0    0  0.00000000000E+00  0.00000000000E+00  0.45593999997E+02  0.45594000000E+02  0.51100000000E-03 0.  1.
         11   -1    0    0    0    0 -0.00000000000E+00 -0.00000000000E+00 -0.45593999997E+02  0.45594000000E+02  0.51100000000E-03 0. -1.
    9900012    2    1    2    0    0  0.21152664053E+02 -0.82006179131E+01 -0.36999162071E+02  0.47787270459E+02  0.19999997333E+02 0.  0.
        -12    1    1    2    0    0 -0.21152664053E+02  0.82006179131E+01  0.36999162071E+02  0.43400729541E+02  0.00000000000E+00 0.  1.
         11    1    3    3    0    0  0.63271497929E+01 -0.31928122754E+01 -0.87994966689E+01  0.11298584717E+02  0.51100000000E-03 0. -1.
        -11    1    3    3    0    0  0.17120295954E+02 -0.39958223209E+00 -0.16843480808E+02  0.24020138332E+02  0.51100000000E-03 0.  1.
        -12    1    3    3    0    0 -0.22947816937E+01 -0.46082234056E+01 -0.11356184594E+02  0.12468547410E+02  0.00000000000E+00 0.  1.
</event>
<event>
 7    1  0.2740409E-010  0.4778728E+02  0.7816164E-02  0.1312668E+00
        -11   -1    0    0    0    0  0.00000000000E+00  0.00000000000E+00  0.45593999997E+02  0.45594000000E+02  0.51100000000E-03 0.  1.
         11   -1    0    0    0    0 -0.00000000000E+00 -0.00000000000E+00 -0.45593999997E+02  0.45594000000E+02  0.51100000000E-03 0. -1.
    9900012    2    1    2    0    0  0.36984462263E+02 -0.21934989712E+01 -0.22604445072E+02  0.47787276232E+02  0.20000023651E+02 0.  0.
        -12    1    1    2    0    0 -0.36984462263E+02  0.21934989712E+01  0.22604445072E+02  0.43400723768E+02  0.00000000000E+00 0.  1.
         11    1    3    3    0    0  0.15084829843E+02 -0.22848878044E+01 -0.93878555763E+01  0.17913811327E+02  0.51100000000E-03 0.  1.
        -11    1    3    3    0    0  0.93985780976E+01 -0.64306989160E+01 -0.10549082611E+02  0.15523218191E+02  0.51100000000E-03 0. -1.
        -12    1    3    3    0    0  0.12501054322E+02  0.65220877492E+01 -0.26675068842E+01  0.14350246714E+02  0.00000000000E+00 0.  1.
</event>
<event>
 7    1  0.2740409E-010  0.4778727E+02  0.7816164E-02  0.1312668E+00
        -11   -1    0    0    0    0  0.00000000000E+00  0.00000000000E+00  0.45593999997E+02  0.45594000000E+02  0.51100000000E-03 0.  1.
         11   -1    0    0    0    0 -0.00000000000E+00 -0.00000000000E+00 -0.45593999997E+02  0.45594000000E+02  0.51100000000E-03 0. -1.
    9900012    2    1    2    0    0 -0.17065892374E+01  0.26886313320E+01 -0.43283742720E+02  0.47787267643E+02  0.19999984494E+02 0.  0.
        -12    1    1    2    0    0  0.17065892374E+01 -0.26886313320E+01  0.43283742720E+02  0.43400732357E+02  0.00000000000E+00 0.  1.
         11    1    3    3    0    0 -0.62545045996E+00 -0.29077949267E+01 -0.15933053733E+02  0.16208289890E+02  0.51100000000E-03 0. -1.
        -11    1    3    3    0    0  0.43945129746E+01 -0.15684892105E+01 -0.28407104237E+01  0.54627409475E+01  0.51100000000E-03 0.  1.
        -12    1    3    3    0    0 -0.54756517520E+01  0.71649154691E+01 -0.24509978562E+02  0.26116236806E+02  0.00000000000E+00 0.  1.
</event>
<event>
 7    1  0.2740409E-010  0.4778728E+02  0.7816164E-02  0.1312668E+00
        -11   -1    0    0    0    0  0.00000000000E+00  0.00000000000E+00  0.45593999997E+02  0.45594000000E+02  0.51100000000E-03 0.  1.
         11   -1    0    0    0    0 -0.00000000000E+00 -0.00000000000E+00 -0.45593999997E+02  0.45594000000E+02  0.51100000000E-03 0. -1.
    9900012    2    1    2    0    0  0.76710607771E+01  0.10624547306E+02 -0.41375073195E+02  0.47787275803E+02  0.20000021697E+02 0.  0.
        -12    1    1    2    0    0 -0.76710607771E+01 -0.10624547306E+02  0.41375073195E+02  0.43400724197E+02  0.00000000000E+00 0.  1.
         11    1    3    3    0    0 -0.26920242650E+01  0.98869362477E+01 -0.11721370757E+02  0.15568848246E+02  0.51100000000E-03 0. -1.
        -11    1    3    3    0    0 -0.29279114247E+00 -0.10653517948E+01 -0.68630988030E+00  0.13006623746E+01  0.51100000000E-03 0.  1.
         12    1    3    3    0    0  0.10655876185E+02  0.18029628528E+01 -0.28967392557E+02  0.30917765183E+02  0.00000000000E+00 0. -1.
</event>
<event>
 7    1  0.2740409E-010  0.4778727E+02  0.7816164E-02  0.1312668E+00
        -11   -1    0    0    0    0  0.00000000000E+00  0.00000000000E+00  0.45593999997E+02  0.45594000000E+02  0.51100000000E-03 0.  1.
         11   -1    0    0    0    0 -0.00000000000E+00 -0.00000000000E+00 -0.45593999997E+02  0.45594000000E+02  0.51100000000E-03 0. -1.
    9900012    2    1    2    0    0  0.16293345162E+02 -0.30583336940E+02 -0.26130624948E+02  0.47787272412E+02  0.20000006237E+02 0.  0.
        -12    1    1    2    0    0 -0.16293345162E+02  0.30583336940E+02  0.26130624948E+02  0.43400727588E+02  0.00000000000E+00 0.  1.
         11    1    3    3    0    0  0.97834665081E+01 -0.27265762885E+02 -0.15998163487E+02  0.33091982078E+02  0.51100000000E-03 0. -1.
        -11    1    3    3    0    0  0.47020145845E+01 -0.43218992408E+01 -0.26194700445E+01  0.69028528722E+01  0.51100000000E-03 0.  1.
         12    1    3    3    0    0  0.18078640697E+01  0.10043251862E+01 -0.75129914167E+01  0.77924374621E+01  0.00000000000E+00 0. -1.
</event>
<event>
 7    1  0.2740409E-010  0.4778727E+02  0.7816164E-02  0.1312668E+00
        -11   -1    0    0    0    0  0.00000000000E+00  0.00000000000E+00  0.45593999997E+02  0.45594000000E+02  0.51100000000E-03 0. -1.
         11   -1    0    0    0    0 -0.00000000000E+00 -0.00000000000E+00 -0.45593999997E+02  0.45594000000E+02  0.51100000000E-03 0.  1.
    9900012    2    1    2    0    0 -0.36826938623E+02 -0.22073183324E+02  0.63383277181E+01  0.47787271565E+02  0.20000002376E+02 0.  0.
        -12    1    1    2    0    0  0.36826938623E+02  0.22073183324E+02 -0.63383277181E+01  0.43400728435E+02  0.00000000000E+00 0.  1.
         11    1    3    3    0    0 -0.25591513310E+01 -0.82066588245E+01 -0.13967516338E+01  0.87091572488E+01  0.51100000000E-03 0. -1.
        -11    1    3    3    0    0 -0.11759648058E+02 -0.84651514515E+00 -0.50559751557E+00  0.11800912653E+02  0.51100000000E-03 0.  1.
         12    1    3    3    0    0 -0.22508139233E+02 -0.13020009355E+02  0.82406768675E+01  0.27277201663E+02  0.00000000000E+00 0. -1.
</event>
<event>
 7    1  0.2740409E-010  0.4778726E+02  0.7816164E-02  0.1312668E+00
        -11   -1    0    0    0    0  0.00000000000E+00  0.00000000000E+00  0.45593999997E+02  0.45594000000E+02  0.51100000000E-03 0. -1.
         11   -1    0    0    0    0 -0.00000000000E+00 -0.00000000000E+00 -0.45593999997E+02  0.45594000000E+02  0.51100000000E-03 0.  1.
    9900012    2    1    2    0    0 -0.39408904104E+02 -0.18126930802E+01  0.18090780445E+02  0.47787263647E+02  0.19999966272E+02 0.  0.
        -12    1    1    2    0    0  0.39408904104E+02  0.18126930802E+01 -0.18090780445E+02  0.43400736353E+02  0.00000000000E+00 0.  1.
         11    1    3    3    0    0 -0.71800544173E+01 -0.82120501728E+01  0.19120114325E+01  0.11074598749E+02  0.51100000000E-03 0.  1.
        -11    1    3    3    0    0 -0.22700665854E+02  0.36607288878E+01  0.10389716471E+02  0.25232268523E+02  0.51100000000E-03 0. -1.
        -12    1    3    3    0    0 -0.95281838329E+01  0.27386282048E+01  0.57890525421E+01  0.11480396375E+02  0.00000000000E+00 0.  1.
</event>
<event>
 7    1  0.2740409E-010  0.4778728E+02  0.7816164E-02  0.1312668E+00
        -11   -1    0    0    0    0  0.00000000000E+00  0.00000000000E+00  0.45593999997E+02  0.45594000000E+02  0.51100000000E-03 0.  1.
         11   -1    0    0    0    0 -0.00000000000E+00 -0.00000000000E+00 -0.45593999997E+02  0.45594000000E+02  0.51100000000E-03 0. -1.
    9900012    2    1    2    0    0 -0.19855430465E+01 -0.33749764357E+02 -0.27214588697E+02  0.47787276351E+02  0.20000024196E+02 0.  0.
        -12    1    1    2    0    0  0.19855430465E+01  0.33749764357E+02  0.27214588697E+02  0.43400723649E+02  0.00000000000E+00 0.  1.
         11    1    3    3    0    0 -0.39756933717E+01 -0.26976394469E+02 -0.21279374134E+02  0.34588202615E+02  0.51100000000E-03 0. -1.
        -11    1    3    3    0    0 -0.26095715068E+01 -0.38863627923E+01 -0.61919400229E+01  0.77623321695E+01  0.51100000000E-03 0.  1.
         12    1    3    3    0    0  0.45997218319E+01 -0.28870070949E+01  0.25672546062E+00  0.54367415664E+01  0.00000000000E+00 0. -1.
</event>
<event>
 7    1  0.2740409E-010  0.4778728E+02  0.7816164E-02  0.1312668E+00
        -11   -1    0    0    0    0  0.00000000000E+00  0.00000000000E+00  0.45593999997E+02  0.45594000000E+02  0.51100000000E-03 0. -1.
         11   -1    0    0    0    0 -0.00000000000E+00 -0.00000000000E+00 -0.45593999997E+02  0.45594000000E+02  0.51100000000E-03 0.  1.
    9900012    2    1    2    0    0  0.16959002652E+02 -0.24113046525E+02  0.31852408528E+02  0.47787277510E+02  0.20000029479E+02 0.  0.
        -12    1    1    2    0    0 -0.16959002652E+02  0.24113046525E+02 -0.31852408528E+02  0.43400722490E+02  0.00000000000E+00 0.  1.
         11    1    3    3    0    0  0.29965965435E+01 -0.62248694896E+01  0.56599791104E+01  0.89310668343E+01  0.51100000000E-03 0. -1.
        -11    1    3    3    0    0 -0.15944007933E+00 -0.82394033288E+01  0.18197372471E+02  0.19976424942E+02  0.51100000000E-03 0.  1.
        -12    1    3    3    0    0  0.14121846188E+02 -0.96487737063E+01  0.79950569466E+01  0.18879785734E+02  0.00000000000E+00 0.  1.
</event>
<event>
 7    1  0.2740409E-010  0.4778727E+02  0.7816164E-02  0.1312668E+00
        -11   -1    0    0    0    0  0.00000000000E+00  0.00000000000E+00  0.45593999997E+02  0.45594000000E+02  0.51100000000E-03 0. -1.
         11   -1    0    0    0    0 -0.00000000000E+00 -0.00000000000E+00 -0.45593999997E+02  0.45594000000E+02  0.51100000000E-03 0.  1.
    9900012    2    1    2    0    0 -0.64912637694E+01  0.87811940792E+01  0.42004491942E+02  0.47787271687E+02  0.20000002929E+02 0.  0.
        -12    1    1    2    0    0  0.64912637694E+01 -0.87811940792E+01 -0.42004491942E+02  0.43400728313E+02  0.00000000000E+00 0.  1.
         11    1    3    3    0    0  0.24708579998E+01 -0.22013573432E+01  0.12246639518E+01  0.35285854763E+01  0.51100000000E-03 0.  1.
        -11    1    3    3    0    0 -0.88188487968E+01  0.11391996413E+02  0.41205226103E+02  0.43651120659E+02  0.51100000000E-03 0. -1.
         12    1    3    3    0    0 -0.14327297237E+00 -0.40944499091E+00 -0.42539811207E+00  0.60756555115E+00  0.00000000000E+00 0. -1.
</event>
<event>
 7    1  0.2740409E-010  0.4778727E+02  0.7816164E-02  0.1312668E+00
        -11   -1    0    0    0    0  0.00000000000E+00  0.00000000000E+00  0.45593999997E+02  0.45594000000E+02  0.51100000000E-03 0.  1.
         11   -1    0    0    0    0 -0.00000000000E+00 -0.00000000000E+00 -0.45593999997E+02  0.45594000000E+02  0.51100000000E-03 0. -1.
    9900012    2    1    2    0    0  0.13751007812E+02 -0.28663291163E+02 -0.29545704671E+02  0.47787272579E+02  0.20000006998E+02 0.  0.
        -12    1    1    2    0    0 -0.13751007812E+02  0.28663291163E+02  0.29545704671E+02  0.43400727421E+02  0.00000000000E+00 0.  1.
         11    1    3    3    0    0  0.10422806962E+02 -0.51532701876E+01 -0.80571128579E+01  0.14145959368E+02  0.51100000000E-03 0. -1.
        -11    1    3    3    0    0  0.28134276419E+01 -0.22019437680E+02 -0.22625879672E+02  0.31697025760E+02  0.51100000000E-03 0.  1.
        -12    1    3    3    0    0  0.51477320818E+00 -0.14905832958E+01  0.11372878589E+01  0.19442874509E+01  0.00000000000E+00 0.  1.
</event>
<event>
 7    1  0.2740409E-010  0.4778727E+02  0.7816164E-02  0.1312668E+00
        -11   -1    0    0    0    0  0.00000000000E+00  0.00000000000E+00  0.45593999997E+02  0.45594000000E+02  0.51100000000E-03 0. -1.
         11   -1    0    0    0    0 -0.00000000000E+00 -0.00000000000E+00 -0.45593999997E+02  0.45594000000E+02  0.51100000000E-03 0.  1.
    9900012    2    1    2    0    0  0.25274008431E+02 -0.34888888010E+02 -0.52548622576E+01  0.47787267447E+02  0.19999983600E+02 0.  0.
        -12    1    1    2    0    0 -0.25274008431E+02  0.34888888010E+02  0.52548622576E+01  0.43400732553E+02  0.00000000000E+00 0.  1.
         11    1    3    3    0    0  0.78991358370E+01 -0.18588954911E+02 -0.70076915121E+01  0.21378805679E+02  0.51100000000E-03 0. -1.
        -11    1    3    3    0    0  0.18381002058E+02 -0.14629158461E+02  0.35471730920E+01  0.23758281738E+02  0.51100000000E-03 0.  1.
        -12    1    3    3    0    0 -0.10061294640E+01 -0.16707746378E+01 -0.17943438375E+01  0.26501800308E+01  0.00000000000E+00 0.  1.
</event>
<event>
 7    1  0.2740409E-010  0.4778727E+02  0.7816164E-02  0.1312668E+00
        -11   -1    0    0    0    0  0.00000000000E+00  0.00000000000E+00  0.45593999997E+02  0.45594000000E+02  0.51100000000E-03 0.  1.
         11   -1    0    0    0    0 -0.00000000000E+00 -0.00000000000E+00 -0.45593999997E+02  0.45594000000E+02  0.51100000000E-03 0. -1.
    9900012    2    1    2    0    0 -0.50428561741E+01 -0.10724621906E+02 -0.41751350611E+02  0.47787271996E+02  0.20000004341E+02 0.  0.
        -12    1    1    2    0    0  0.50428561741E+01  0.10724621906E+02  0.41751350611E+02  0.43400728004E+02  0.00000000000E+00 0.  1.
         11    1    3    3    0    0 -0.60460106220E+01  0.15053058347E+01 -0.21695899261E+02  0.22572820717E+02  0.51100000000E-03 0. -1.
        -11    1    3    3    0    0  0.33974161631E+01 -0.10496572629E+02 -0.19188462163E+02  0.22134081277E+02  0.51100000000E-03 0.  1.
        -12    1    3    3    0    0 -0.23942617152E+01 -0.17333551113E+01 -0.86698918651E+00  0.30803700025E+01  0.00000000000E+00 0.  1.
</event>
<event>
 7    1  0.2740409E-010  0.4778727E+02  0.7816164E-02  0.1312668E+00
        -11   -1    0    0    0    0  0.00000000000E+00  0.00000000000E+00  0.45593999997E+02  0.45594000000E+02  0.51100000000E-03 0.  1.
         11   -1    0    0    0    0 -0.00000000000E+00 -0.00000000000E+00 -0.45593999997E+02  0.45594000000E+02  0.51100000000E-03 0. -1.
    9900012    2    1    2    0    0  0.69632302093E+01 -0.42471224003E+02 -0.55974896242E+01  0.47787270360E+02  0.19999996878E+02 0.  0.
        -12    1    1    2    0    0 -0.69632302093E+01  0.42471224003E+02  0.55974896242E+01  0.43400729640E+02  0.00000000000E+00 0.  1.
         11    1    3    3    0    0  0.47002729431E+01 -0.40011811468E+02 -0.30965136759E+01  0.40405767161E+02  0.51100000000E-03 0. -1.
        -11    1    3    3    0    0  0.42923307630E+01 -0.91892185991E+00 -0.17468383969E+01  0.47244010636E+01  0.51100000000E-03 0.  1.
        -12    1    3    3    0    0 -0.20293734968E+01 -0.15404906750E+01 -0.75413755133E+00  0.26571021350E+01  0.00000000000E+00 0.  1.
</event>
<event>
 7    1  0.2740409E-010  0.4778727E+02  0.7816164E-02  0.1312668E+00
        -11   -1    0    0    0    0  0.00000000000E+00  0.00000000000E+00  0.45593999997E+02  0.45594000000E+02  0.51100000000E-03 0.  1.
         11   -1    0    0    0    0 -0.00000000000E+00 -0.00000000000E+00 -0.45593999997E+02  0.45594000000E+02  0.51100000000E-03 0. -1.
    9900012    2    1    2    0    0  0.22938071612E+02 -0.34564980335E+02 -0.12756576278E+02  0.47787271513E+02  0.20000002137E+02 0.  0.
        -12    1    1    2    0    0 -0.22938071612E+02  0.34564980335E+02  0.12756576278E+02  0.43400728487E+02  0.00000000000E+00 0.  1.
         11    1    3    3    0    0  0.73429031116E+01 -0.10636256631E+02 -0.34704359959E+00  0.12929370470E+02  0.51100000000E-03 0. -1.
        -11    1    3    3    0    0  0.11586407076E+02 -0.20599997561E+02 -0.15990013482E+02  0.28535683974E+02  0.51100000000E-03 0.  1.
        -12    1    3    3    0    0  0.40087614246E+01 -0.33287261430E+01  0.35804808031E+01  0.63222170696E+01  0.00000000000E+00 0.  1.
</event>
<event>
 7    1  0.2740409E-010  0.4778727E+02  0.7816164E-02  0.1312668E+00
        -11   -1    0    0    0    0  0.00000000000E+00  0.00000000000E+00  0.45593999997E+02  0.45594000000E+02  0.51100000000E-03 0. -1.
         11   -1    0    0    0    0 -0.00000000000E+00 -0.00000000000E+00 -0.45593999997E+02  0.45594000000E+02  0.51100000000E-03 0.  1.
    9900012    2    1    2    0    0 -0.19683430508E+02 -0.37269944383E+02  0.10350706111E+02  0.47787270653E+02  0.19999998217E+02 0.  0.
        -12    1    1    2    0    0  0.19683430508E+02  0.37269944383E+02 -0.10350706111E+02  0.43400729347E+02  0.00000000000E+00 0.  1.
         11    1    3    3    0    0  0.34072816769E+01 -0.31482074317E+01  0.18810741331E+01  0.50059183587E+01  0.51100000000E-03 0. -1.
        -11    1    3    3    0    0 -0.10949910656E+02 -0.13553994214E+02  0.72318425325E+01  0.18865599625E+02  0.51100000000E-03 0.  1.
         12    1    3    3    0    0 -0.12140801529E+02 -0.20567742737E+02  0.12377894453E+01  0.23915752670E+02  0.00000000000E+00 0. -1.
</event>
<event>
 7    1  0.2740409E-010  0.4778727E+02  0.7816164E-02  0.1312668E+00
        -11   -1    0    0    0    0  0.00000000000E+00  0.00000000000E+00  0.45593999997E+02  0.45594000000E+02  0.51100000000E-03 0. -1.
         11   -1    0    0    0    0 -0.00000000000E+00 -0.00000000000E+00 -0.45593999997E+02  0.45594000000E+02  0.51100000000E-03 0.  1.
    9900012    2    1    2    0    0 -0.19637067041E+02 -0.27143049791E+02  0.27591008173E+02  0.47787270905E+02  0.19999999366E+02 0.  0.
        -12    1    1    2    0    0  0.19637067041E+02  0.27143049791E+02 -0.27591008173E+02  0.43400729095E+02  0.00000000000E+00 0.  1.
         11    1    3    3    0    0 -0.56553880390E+01 -0.50011344897E+01  0.29826847042E+01  0.81173375167E+01  0.51100000000E-03 0. -1.
        -11    1    3    3    0    0 -0.14661923259E+02 -0.23553055949E+02  0.18457202753E+02  0.33322466474E+02  0.51100000000E-03 0.  1.
        -12    1    3    3    0    0  0.68024425719E+00  0.14111406468E+01  0.61511207161E+01  0.63474669151E+01  0.00000000000E+00 0.  1.
</event>
<event>
 7    1  0.2740409E-010  0.4778727E+02  0.7816164E-02  0.1312668E+00
        -11   -1    0    0    0    0  0.00000000000E+00  0.00000000000E+00  0.45593999997E+02  0.45594000000E+02  0.51100000000E-03 0.  1.
         11   -1    0    0    0    0 -0.00000000000E+00 -0.00000000000E+00 -0.45593999997E+02  0.45594000000E+02  0.51100000000E-03 0. -1.
    9900012    2    1    2    0    0 -0.19430277921E+02 -0.33504052998E+01 -0.38663452129E+02  0.47787269058E+02  0.19999990944E+02 0.  0.
        -12    1    1    2    0    0  0.19430277921E+02  0.33504052998E+01  0.38663452129E+02  0.43400730942E+02  0.00000000000E+00 0.  1.
         11    1    3    3    0    0 -0.77439388856E+00  0.36889689759E+01 -0.55602837748E+00  0.38101634896E+01  0.51100000000E-03 0. -1.
        -11    1    3    3    0    0 -0.50538522310E+01 -0.10872230282E+01 -0.32938618959E+01  0.61296821073E+01  0.51100000000E-03 0.  1.
         12    1    3    3    0    0 -0.13602031802E+02 -0.59521512475E+01 -0.34813561855E+02  0.37847423461E+02  0.00000000000E+00 0. -1.
</event>
<event>
 7    1  0.2740409E-010  0.4778726E+02  0.7816164E-02  0.1312668E+00
        -11   -1    0    0    0    0  0.00000000000E+00  0.00000000000E+00  0.45593999997E+02  0.45594000000E+02  0.51100000000E-03 0.  1.
         11   -1    0    0    0    0 -0.00000000000E+00 -0.00000000000E+00 -0.45593999997E+02  0.45594000000E+02  0.51100000000E-03 0. -1.
    9900012    2    1    2    0    0  0.39850349992E+02 -0.85111002287E+01 -0.14937698247E+02  0.47787262097E+02  0.19999959205E+02 0.  0.
        -12    1    1    2    0    0 -0.39850349992E+02  0.85111002287E+01  0.14937698247E+02  0.43400737903E+02  0.00000000000E+00 0.  1.
         11    1    3    3    0    0  0.22809650680E+02 -0.13076855489E+02 -0.10634957701E+02  0.28361710794E+02  0.51100000000E-03 0. -1.
        -11    1    3    3    0    0  0.13256641953E+02  0.57436253464E+01 -0.52131456014E+01  0.15359188628E+02  0.51100000000E-03 0.  1.
        -12    1    3    3    0    0  0.37840573590E+01 -0.11778700864E+01  0.91040505513E+00  0.40663626745E+01  0.00000000000E+00 0.  1.
</event>
<event>
 7    1  0.2740409E-010  0.4778724E+02  0.7816164E-02  0.1312668E+00
        -11   -1    0    0    0    0  0.00000000000E+00  0.00000000000E+00  0.45593999997E+02  0.45594000000E+02  0.51100000000E-03 0.  1.
         11   -1    0    0    0    0 -0.00000000000E+00 -0.00000000000E+00 -0.45593999997E+02  0.45594000000E+02  0.51100000000E-03 0. -1.
    9900012    2    1    2    0    0  0.89423900711E+01  0.42042700217E+02 -0.60059085320E+01  0.47787240571E+02  0.19999861057E+02 0.  0.
        -12    1    1    2    0    0 -0.89423900711E+01 -0.42042700217E+02  0.60059085320E+01  0.43400759429E+02  0.00000000000E+00 0.  1.
         11    1    3    3    0    0  0.43491814143E+01  0.29333765394E+02 -0.47695710298E+01  0.30035545263E+02  0.51100000000E-03 0. -1.
        -11    1    3    3    0    0  0.80953751959E+01  0.58052499987E+01 -0.47282188679E+00  0.99729427907E+01  0.51100000000E-03 0.  1.
        -12    1    3    3    0    0 -0.35021665391E+01  0.69036848250E+01 -0.76351561538E+00  0.77787525173E+01  0.00000000000E+00 0.  1.
</event>
<event>
 7    1  0.2740409E-010  0.4778727E+02  0.7816164E-02  0.1312668E+00
        -11   -1    0    0    0    0  0.00000000000E+00  0.00000000000E+00  0.45593999997E+02  0.45594000000E+02  0.51100000000E-03 0.  1.
         11   -1    0    0    0    0 -0.00000000000E+00 -0.00000000000E+00 -0.45593999997E+02  0.45594000000E+02  0.51100000000E-03 0. -1.
    9900012    2    1    2    0    0  0.68868040040E+01  0.41459823437E+02  0.10829498290E+02  0.47787273485E+02  0.20000011128E+02 0.  0.
        -12    1    1    2    0    0 -0.68868040040E+01 -0.41459823437E+02 -0.10829498290E+02  0.43400726515E+02  0.00000000000E+00 0.  1.
         11    1    3    3    0    0  0.16014053235E+01  0.42016307673E+01  0.36443647290E+00  0.45112098509E+01  0.51100000000E-03 0. -1.
        -11    1    3    3    0    0 -0.53765786126E+01  0.16860218660E+02 -0.66622594962E+00  0.17709275200E+02  0.51100000000E-03 0.  1.
        -12    1    3    3    0    0  0.10661977293E+02  0.20397974010E+02  0.11131287767E+02  0.25566788434E+02  0.00000000000E+00 0.  1.
</event>
<event>
 7    1  0.2740409E-010  0.4778727E+02  0.7816164E-02  0.1312668E+00
        -11   -1    0    0    0    0  0.00000000000E+00  0.00000000000E+00  0.45593999997E+02  0.45594000000E+02  0.51100000000E-03 0.  1.
         11   -1    0    0    0    0 -0.00000000000E+00 -0.00000000000E+00 -0.45593999997E+02  0.45594000000E+02  0.51100000000E-03 0. -1.
    9900012    2    1    2    0    0 -0.22288977972E+02  0.59098554182E+01 -0.36768168655E+02  0.47787272398E+02  0.20000006173E+02 0.  0.
        -12    1    1    2    0    0  0.22288977972E+02 -0.59098554182E+01  0.36768168655E+02  0.43400727602E+02  0.00000000000E+00 0.  1.
         11    1    3    3    0    0 -0.23573656320E+01 -0.19813954556E+01 -0.37712192290E+01  0.48687981483E+01  0.51100000000E-03 0. -1.
        -11    1    3    3    0    0 -0.17231152860E+02  0.16153143742E+00 -0.13896741077E+02  0.22137256698E+02  0.51100000000E-03 0.  1.
        -12    1    3    3    0    0 -0.27004594799E+01  0.77297194364E+01 -0.19100208349E+02  0.20781217552E+02  0.00000000000E+00 0.  1.
</event>
<event>
 7    1  0.2740409E-010  0.4778727E+02  0.7816164E-02  0.1312668E+00
        -11   -1    0    0    0    0  0.00000000000E+00  0.00000000000E+00  0.45593999997E+02  0.45594000000E+02  0.51100000000E-03 0.  1.
         11   -1    0    0    0    0 -0.00000000000E+00 -0.00000000000E+00 -0.45593999997E+02  0.45594000000E+02  0.51100000000E-03 0. -1.
    9900012    2    1    2    0    0  0.31258135848E+02 -0.29943920841E+02 -0.31485851364E+01  0.47787273735E+02  0.20000012266E+02 0.  0.
        -12    1    1    2    0    0 -0.31258135848E+02  0.29943920841E+02  0.31485851364E+01  0.43400726265E+02  0.00000000000E+00 0.  1.
         11    1    3    3    0    0  0.26944262322E+02 -0.14045542047E+02 -0.25303354101E+01  0.30490541501E+02  0.51100000000E-03 0.  1.
        -11    1    3    3    0    0  0.23679044894E+01 -0.68136176004E+01  0.22787228664E+01  0.75647164282E+01  0.51100000000E-03 0. -1.
         12    1    3    3    0    0  0.19459690360E+01 -0.90847611936E+01 -0.28969725927E+01  0.97320158054E+01  0.00000000000E+00 0. -1.
</event>
<event>
 7    1  0.2740409E-010  0.4778727E+02  0.7816164E-02  0.1312668E+00
        -11   -1    0    0    0    0  0.00000000000E+00  0.00000000000E+00  0.45593999997E+02  0.45594000000E+02  0.51100000000E-03 0.  1.
         11   -1    0    0    0    0 -0.00000000000E+00 -0.00000000000E+00 -0.45593999997E+02  0.45594000000E+02  0.51100000000E-03 0. -1.
    9900012    2    1    2    0    0 -0.28101129349E+01 -0.43200591315E+02 -0.30717280819E+01  0.47787270305E+02  0.19999996629E+02 0.  0.
        -12    1    1    2    0    0  0.28101129349E+01  0.43200591315E+02  0.30717280819E+01  0.43400729695E+02  0.00000000000E+00 0.  1.
         11    1    3    3    0    0  0.46054963815E+01 -0.31088587819E+02 -0.83869190498E+01  0.32527700517E+02  0.51100000000E-03 0. -1.
        -11    1    3    3    0    0 -0.31545196679E+01 -0.43395890233E+01  0.27683242221E+01  0.60371058037E+01  0.51100000000E-03 0.  1.
         12    1    3    3    0    0 -0.42610896486E+01 -0.77724144724E+01  0.25468667458E+01  0.92224639845E+01  0.00000000000E+00 0. -1.
</event>
<event>
 7    1  0.2740409E-010  0.4778726E+02  0.7816164E-02  0.1312668E+00
        -11   -1    0    0    0    0  0.00000000000E+00  0.00000000000E+00  0.45593999997E+02  0.45594000000E+02  0.51100000000E-03 0.  1.
         11   -1    0    0    0    0 -0.00000000000E+00 -0.00000000000E+00 -0.45593999997E+02  0.45594000000E+02  0.51100000000E-03 0. -1.
    9900012    2    1    2    0    0  0.41911537358E+02 -0.49570939050E+01  0.10122949125E+02  0.47787264491E+02  0.19999970121E+02 0.  0.
        -12    1    1    2    0    0 -0.41911537358E+02  0.49570939050E+01 -0.10122949125E+02  0.43400735509E+02  0.00000000000E+00 0.  1.
         11    1    3    3    0    0  0.12468833914E+02  0.31385078054E+01 -0.33004211862E+01  0.13274593428E+02  0.51100000000E-03 0. -1.
        -11    1    3    3    0    0  0.26701689740E+02 -0.42009654246E+01  0.11569715841E+02  0.29402154179E+02  0.51100000000E-03 0.  1.
         12    1    3    3    0    0  0.27410137050E+01 -0.38946362858E+01  0.18536544699E+01  0.51105168842E+01  0.00000000000E+00 0. -1.
</event>
<event>
 7    1  0.2740409E-010  0.4778727E+02  0.7816164E-02  0.1312668E+00
        -11   -1    0    0    0    0  0.00000000000E+00  0.00000000000E+00  0.45593999997E+02  0.45594000000E+02  0.51100000000E-03 0.  1.
         11   -1    0    0    0    0 -0.00000000000E+00 -0.00000000000E+00 -0.45593999997E+02  0.45594000000E+02  0.51100000000E-03 0. -1.
    9900012    2    1    2    0    0  0.34454299637E+02 -0.45196230132E+01  0.26001875639E+02  0.47787270831E+02  0.19999999028E+02 0.  0.
        -12    1    1    2    0    0 -0.34454299637E+02  0.45196230132E+01 -0.26001875639E+02  0.43400729169E+02  0.00000000000E+00 0.  1.
         11    1    3    3    0    0  0.73466266458E+01 -0.29233490261E+01  0.24046377815E+00  0.79105445887E+01  0.51100000000E-03 0. -1.
        -11    1    3    3    0    0  0.16101320153E+02  0.51507617698E+01  0.18517337245E+02  0.25073385020E+02  0.51100000000E-03 0.  1.
        -12    1    3    3    0    0  0.11006352838E+02 -0.67470357569E+01  0.72440746154E+01  0.14803341222E+02  0.00000000000E+00 0.  1.
</event>
<event>
 7    1  0.2740409E-010  0.4778727E+02  0.7816164E-02  0.1312668E+00
        -11   -1    0    0    0    0  0.00000000000E+00  0.00000000000E+00  0.45593999997E+02  0.45594000000E+02  0.51100000000E-03 0.  1.
         11   -1    0    0    0    0 -0.00000000000E+00 -0.00000000000E+00 -0.45593999997E+02  0.45594000000E+02  0.51100000000E-03 0. -1.
    9900012    2    1    2    0    0 -0.32139783846E+02  0.12591008900E+02 -0.26308257817E+02  0.47787266824E+02  0.19999980759E+02 0.  0.
        -12    1    1    2    0    0  0.32139783846E+02 -0.12591008900E+02  0.26308257817E+02  0.43400733176E+02  0.00000000000E+00 0.  1.
         11    1    3    3    0    0 -0.37248297521E+01  0.66656609154E+01 -0.17120452207E+01  0.78253748294E+01  0.51100000000E-03 0. -1.
        -11    1    3    3    0    0 -0.16523358855E+02  0.81699597647E+00 -0.20591705280E+02  0.26414147665E+02  0.51100000000E-03 0.  1.
        -12    1    3    3    0    0 -0.11891595240E+02  0.51083520085E+01 -0.40045073162E+01  0.13547744330E+02  0.00000000000E+00 0.  1.
</event>
<event>
 7    1  0.2740409E-010  0.4778727E+02  0.7816164E-02  0.1312668E+00
        -11   -1    0    0    0    0  0.00000000000E+00  0.00000000000E+00  0.45593999997E+02  0.45594000000E+02  0.51100000000E-03 0. -1.
         11   -1    0    0    0    0 -0.00000000000E+00 -0.00000000000E+00 -0.45593999997E+02  0.45594000000E+02  0.51100000000E-03 0.  1.
    9900012    2    1    2    0    0 -0.35011500485E+02  0.18372364705E+02  0.17896207934E+02  0.47787271786E+02  0.20000003383E+02 0.  0.
        -12    1    1    2    0    0  0.35011500485E+02 -0.18372364705E+02 -0.17896207934E+02  0.43400728214E+02  0.00000000000E+00 0.  1.
         11    1    3    3    0    0 -0.90634491554E+00 -0.22777410647E+01 -0.19339781078E+01  0.31224729056E+01  0.51100000000E-03 0.  1.
        -11    1    3    3    0    0 -0.22737966431E+02  0.14442509934E+02  0.15070496503E+02  0.30866180128E+02  0.51100000000E-03 0. -1.
        -12    1    3    3    0    0 -0.11367189139E+02  0.62075958352E+01  0.47596895384E+01  0.13798618752E+02  0.00000000000E+00 0.  1.
</event>
<event>
 7    1  0.2740409E-010  0.4778727E+02  0.7816164E-02  0.1312668E+00
        -11   -1    0    0    0    0  0.00000000000E+00  0.00000000000E+00  0.45593999997E+02  0.45594000000E+02  0.51100000000E-03 0.  1.
         11   -1    0    0    0    0 -0.00000000000E+00 -0.00000000000E+00 -0.45593999997E+02  0.45594000000E+02  0.51100000000E-03 0. -1.
    9900012    2    1    2    0    0 -0.98956662219E+01 -0.20137878618E+02 -0.37150575278E+02  0.47787267187E+02  0.19999982414E+02 0.  0.
        -12    1    1    2    0    0  0.98956662219E+01  0.20137878618E+02  0.37150575278E+02  0.43400732813E+02  0.00000000000E+00 0.  1.
         11    1    3    3    0    0 -0.10368352757E+02 -0.30037921584E+01 -0.14242904786E+02  0.17871369373E+02  0.51100000000E-03 0. -1.
        -11    1    3    3    0    0  0.34136976505E+01 -0.22989933424E+01 -0.47700032035E+01  0.63001295907E+01  0.51100000000E-03 0.  1.
         12    1    3    3    0    0 -0.29410111150E+01 -0.14835093117E+02 -0.18137667288E+02  0.23615768224E+02  0.00000000000E+00 0. -1.
</event>
<event>
 7    1  0.2740409E-010  0.4778727E+02  0.7816164E-02  0.1312668E+00
        -11   -1    0    0    0    0  0.00000000000E+00  0.00000000000E+00  0.45593999997E+02  0.45594000000E+02  0.51100000000E-03 0. -1.
         11   -1    0    0    0    0 -0.00000000000E+00 -0.00000000000E+00 -0.45593999997E+02  0.45594000000E+02  0.51100000000E-03 0.  1.
    9900012    2    1    2    0    0  0.14437985250E+02  0.37649583444E+02  0.16052312613E+02  0.47787270838E+02  0.19999999057E+02 0.  0.
        -12    1    1    2    0    0 -0.14437985250E+02 -0.37649583444E+02 -0.16052312613E+02  0.43400729162E+02  0.00000000000E+00 0.  1.
         11    1    3    3    0    0  0.62315271087E+01  0.25155644381E+02  0.18926127435E+01  0.25985002552E+02  0.51100000000E-03 0. -1.
        -11    1    3    3    0    0  0.30767845232E+01  0.27124102743E+01  0.83948967219E+01  0.93433432844E+01  0.51100000000E-03 0.  1.
         12    1    3    3    0    0  0.51296736177E+01  0.97815287888E+01  0.57648031474E+01  0.12458925002E+02  0.00000000000E+00 0. -1.
</event>
<event>
 7    1  0.2740409E-010  0.4778729E+02  0.7816164E-02  0.1312668E+00
        -11   -1    0    0    0    0  0.00000000000E+00  0.00000000000E+00  0.45593999997E+02  0.45594000000E+02  0.51100000000E-03 0. -1.
         11   -1    0    0    0    0 -0.00000000000E+00 -0.00000000000E+00 -0.45593999997E+02  0.45594000000E+02  0.51100000000E-03 0.  1.
    9900012    2    1    2    0    0  0.32909625043E+02 -0.13658219798E+02  0.24779655410E+02  0.47787289052E+02  0.20000082106E+02 0.  0.
        -12    1    1    2    0    0 -0.32909625043E+02  0.13658219798E+02 -0.24779655410E+02  0.43400710948E+02  0.00000000000E+00 0.  1.
         11    1    3    3    0    0  0.12484379701E+02 -0.11988952070E+02  0.15764671013E+02  0.23411953372E+02  0.51100000000E-03 0. -1.
        -11    1    3    3    0    0  0.18067215765E+01 -0.31547319582E+01 -0.91073074518E-03  0.36354611363E+01  0.51100000000E-03 0.  1.
         12    1    3    3    0    0  0.18618523765E+02  0.14854642304E+01  0.90158951282E+01  0.20739874545E+02  0.00000000000E+00 0. -1.
</event>
<event>
 7    1  0.2740409E-010  0.4778727E+02  0.7816164E-02  0.1312668E+00
        -11   -1    0    0    0    0  0.00000000000E+00  0.00000000000E+00  0.45593999997E+02  0.45594000000E+02  0.51100000000E-03 0.  1.
         11   -1    0    0    0    0 -0.00000000000E+00 -0.00000000000E+00 -0.45593999997E+02  0.45594000000E+02  0.51100000000E-03 0. -1.
    9900012    2    1    2    0    0 -0.24988316222E+02  0.83446587087E+01 -0.34490205227E+02  0.47787268057E+02  0.19999986379E+02 0.  0.
        -12    1    1    2    0    0  0.24988316222E+02 -0.83446587087E+01  0.34490205227E+02  0.43400731943E+02  0.00000000000E+00 0.  1.
         11    1    3    3    0    0 -0.94196901549E+01 -0.74788211596E+00 -0.19612056975E+02  0.21769765027E+02  0.51100000000E-03 0. -1.
        -11    1    3    3    0    0 -0.18986030549E+01  0.24938019222E+01  0.16786675663E+01  0.35555121497E+01  0.51100000000E-03 0.  1.
        -12    1    3    3    0    0 -0.13670023012E+02  0.65987389024E+01 -0.16556815819E+02  0.22461990881E+02  0.00000000000E+00 0.  1.
</event>
<event>
 7    1  0.2740409E-010  0.4778727E+02  0.7816164E-02  0.1312668E+00
        -11   -1    0    0    0    0  0.00000000000E+00  0.00000000000E+00  0.45593999997E+02  0.45594000000E+02  0.51100000000E-03 0.  1.
         11   -1    0    0    0    0 -0.00000000000E+00 -0.00000000000E+00 -0.45593999997E+02  0.45594000000E+02  0.51100000000E-03 0. -1.
    9900012    2    1    2    0    0  0.38272903049E+02  0.12650100004E+02 -0.16086733107E+02  0.47787272818E+02  0.20000008086E+02 0.  0.
        -12    1    1    2    0    0 -0.38272903049E+02 -0.12650100004E+02  0.16086733107E+02  0.43400727182E+02  0.00000000000E+00 0.  1.
         11    1    3    3    0    0  0.28334244827E+02  0.10760847976E+02 -0.84268369692E+01  0.31458494253E+02  0.51100000000E-03 0. -1.
        -11    1    3    3    0    0  0.79367550787E+01 -0.20246150511E+01 -0.85533667997E+01  0.11842771262E+02  0.51100000000E-03 0.  1.
        -12    1    3    3    0    0  0.20019031431E+01  0.39138670785E+01  0.89347066198E+00  0.44860073034E+01  0.00000000000E+00 0.  1.
</event>
<event>
 7    1  0.2740409E-010  0.4778730E+02  0.7816164E-02  0.1312668E+00
        -11   -1    0    0    0    0  0.00000000000E+00  0.00000000000E+00  0.45593999997E+02  0.45594000000E+02  0.51100000000E-03 0.  1.
         11   -1    0    0    0    0 -0.00000000000E+00 -0.00000000000E+00 -0.45593999997E+02  0.45594000000E+02  0.51100000000E-03 0. -1.
    9900012    2    1    2    0    0 -0.39746198239E+02 -0.78631071769E+01 -0.15557371990E+02  0.47787302400E+02  0.20000142961E+02 0.  0.
        -12    1    1    2    0    0  0.39746198239E+02  0.78631071769E+01  0.15557371990E+02  0.43400697600E+02  0.00000000000E+00 0.  1.
         11    1    3    3    0    0 -0.19327912123E+02 -0.32893227687E+01 -0.16559123674E+02  0.25663055322E+02  0.51100000000E-03 0. -1.
        -11    1    3    3    0    0 -0.18491008880E+02 -0.59685200041E+01 -0.25834748627E+00  0.19432122481E+02  0.51100000000E-03 0.  1.
         12    1    3    3    0    0 -0.19272772361E+01  0.13947355959E+01  0.12600991702E+01  0.26921245970E+01  0.00000000000E+00 0. -1.
</event>
<event>
 7    1  0.2740409E-010  0.4778727E+02  0.7816164E-02  0.1312668E+00
        -11   -1    0    0    0    0  0.00000000000E+00  0.00000000000E+00  0.45593999997E+02  0.45594000000E+02  0.51100000000E-03 0.  1.
         11   -1    0    0    0    0 -0.00000000000E+00 -0.00000000000E+00 -0.45593999997E+02  0.45594000000E+02  0.51100000000E-03 0. -1.
    9900012    2    1    2    0    0 -0.38315154818E+02  0.20292334132E+02  0.19476892168E+01  0.47787269516E+02  0.19999993031E+02 0.  0.
        -12    1    1    2    0    0  0.38315154818E+02 -0.20292334132E+02 -0.19476892168E+01  0.43400730484E+02  0.00000000000E+00 0.  1.
         11    1    3    3    0    0 -0.95029281730E+01 -0.23659595264E+01 -0.11767755934E+01  0.98634785649E+01  0.51100000000E-03 0. -1.
        -11    1    3    3    0    0 -0.27547031401E+02  0.20089628186E+02  0.58950459597E+00  0.34099554478E+02  0.51100000000E-03 0.  1.
        -12    1    3    3    0    0 -0.12651952440E+01  0.25686654731E+01  0.25349602142E+01  0.38242364736E+01  0.00000000000E+00 0.  1.
</event>
<event>
 7    1  0.2740409E-010  0.4778730E+02  0.7816164E-02  0.1312668E+00
        -11   -1    0    0    0    0  0.00000000000E+00  0.00000000000E+00  0.45593999997E+02  0.45594000000E+02  0.51100000000E-03 0.  1.
         11   -1    0    0    0    0 -0.00000000000E+00 -0.00000000000E+00 -0.45593999997E+02  0.45594000000E+02  0.51100000000E-03 0. -1.
    9900012    2    1    2    0    0 -0.25343522281E+02 -0.22623398129E+02 -0.27009417748E+02  0.47787298259E+02  0.20000124081E+02 0.  0.
        -12    1    1    2    0    0  0.25343522281E+02  0.22623398129E+02  0.27009417748E+02  0.43400701741E+02  0.00000000000E+00 0.  1.
         11    1    3    3    0    0 -0.24434219777E+02 -0.21348737892E+02 -0.21653699842E+02  0.39008748029E+02  0.51100000000E-03 0. -1.
        -11    1    3    3    0    0  0.28423116253E+01 -0.99381495852E+00 -0.14036343560E+01  0.33221368445E+01  0.51100000000E-03 0.  1.
        -12    1    3    3    0    0 -0.37516141294E+01 -0.28084527905E+00 -0.39520835500E+01  0.54564133854E+01  0.00000000000E+00 0.  1.
</event>
<event>
 7    1  0.2740409E-010  0.4778727E+02  0.7816164E-02  0.1312668E+00
        -11   -1    0    0    0    0  0.00000000000E+00  0.00000000000E+00  0.45593999997E+02  0.45594000000E+02  0.51100000000E-03 0.  1.
         11   -1    0    0    0    0 -0.00000000000E+00 -0.00000000000E+00 -0.45593999997E+02  0.45594000000E+02  0.51100000000E-03 0. -1.
    9900012    2    1    2    0    0 -0.35724945168E+02 -0.49361292192E+01 -0.24145108766E+02  0.47787270096E+02  0.19999995674E+02 0.  0.
        -12    1    1    2    0    0  0.35724945168E+02  0.49361292192E+01  0.24145108766E+02  0.43400729904E+02  0.00000000000E+00 0.  1.
         11    1    3    3    0    0 -0.24278778710E+02 -0.36595313410E+01 -0.21461558806E+02  0.32610577608E+02  0.51100000000E-03 0. -1.
        -11    1    3    3    0    0 -0.26461141957E+01 -0.32875915459E+01  0.23611260940E+01  0.48358138097E+01  0.51100000000E-03 0.  1.
         12    1    3    3    0    0 -0.88000522616E+01  0.20109936678E+01 -0.50446760543E+01  0.10340878678E+02  0.00000000000E+00 0. -1.
</event>
<event>
 7    1  0.2740409E-010  0.4778727E+02  0.7816164E-02  0.1312668E+00
        -11   -1    0    0    0    0  0.00000000000E+00  0.00000000000E+00  0.45593999997E+02  0.45594000000E+02  0.51100000000E-03 0.  1.
         11   -1    0    0    0    0 -0.00000000000E+00 -0.00000000000E+00 -0.45593999997E+02  0.45594000000E+02  0.51100000000E-03 0. -1.
    9900012    2    1    2    0    0 -0.43257825188E+02 -0.72259265503E+00 -0.34440622951E+01  0.47787272526E+02  0.20000006756E+02 0.  0.
        -12    1    1    2    0    0  0.43257825188E+02  0.72259265503E+00  0.34440622951E+01  0.43400727474E+02  0.00000000000E+00 0.  1.
         11    1    3    3    0    0 -0.81815289536E+00  0.21144940681E+01  0.23461283912E+01  0.32626336009E+01  0.51100000000E-03 0. -1.
        -11    1    3    3    0    0 -0.14840426078E+01  0.21468007780E+01 -0.15843013574E+01  0.30530553704E+01  0.51100000000E-03 0.  1.
         12    1    3    3    0    0 -0.40955629685E+02 -0.49838875012E+01 -0.42058893289E+01  0.41471583555E+02  0.00000000000E+00 0. -1.
</event>
<event>
 7    1  0.2740409E-010  0.4778727E+02  0.7816164E-02  0.1312668E+00
        -11   -1    0    0    0    0  0.00000000000E+00  0.00000000000E+00  0.45593999997E+02  0.45594000000E+02  0.51100000000E-03 0. -1.
         11   -1    0    0    0    0 -0.00000000000E+00 -0.00000000000E+00 -0.45593999997E+02  0.45594000000E+02  0.51100000000E-03 0.  1.
    9900012    2    1    2    0    0 -0.12597589785E+02 -0.23499951261E+02  0.34244362926E+02  0.47787269938E+02  0.19999994955E+02 0.  0.
        -12    1    1    2    0    0  0.12597589785E+02  0.23499951261E+02 -0.34244362926E+02  0.43400730062E+02  0.00000000000E+00 0.  1.
         11    1    3    3    0    0 -0.76758625309E+01 -0.25532933888E+01  0.10720038248E+02  0.13429720512E+02  0.51100000000E-03 0. -1.
        -11    1    3    3    0    0  0.37505976083E+01 -0.10863652823E+02  0.85137968123E+01  0.14302820404E+02  0.51100000000E-03 0.  1.
        -12    1    3    3    0    0 -0.86723248622E+01 -0.10083005049E+02  0.15010527866E+02  0.20054729022E+02  0.00000000000E+00 0.  1.
</event>
<event>
 7    1  0.2740409E-010  0.4778727E+02  0.7816164E-02  0.1312668E+00
        -11   -1    0    0    0    0  0.00000000000E+00  0.00000000000E+00  0.45593999997E+02  0.45594000000E+02  0.51100000000E-03 0.  1.
         11   -1    0    0    0    0 -0.00000000000E+00 -0.00000000000E+00 -0.45593999997E+02  0.45594000000E+02  0.51100000000E-03 0. -1.
    9900012    2    1    2    0    0 -0.71221718694E+01 -0.42728171595E+02  0.26835311844E+01  0.47787270518E+02  0.19999997599E+02 0.  0.
        -12    1    1    2    0    0  0.71221718694E+01  0.42728171595E+02 -0.26835311844E+01  0.43400729482E+02  0.00000000000E+00 0.  1.
         11    1    3    3    0    0 -0.67069772223E+01 -0.16789381353E+02  0.10066279467E+02  0.20692917925E+02  0.51100000000E-03 0.  1.
        -11    1    3    3    0    0  0.59860789606E+00 -0.20213248251E+02 -0.51661744695E+01  0.20871585833E+02  0.51100000000E-03 0. -1.
        -12    1    3    3    0    0 -0.10138025431E+01 -0.57255419901E+01 -0.22165738131E+01  0.62227667597E+01  0.00000000000E+00 0.  1.
</event>
<event>
 7    1  0.2740409E-010  0.4778727E+02  0.7816164E-02  0.1312668E+00
        -11   -1    0    0    0    0  0.00000000000E+00  0.00000000000E+00  0.45593999997E+02  0.45594000000E+02  0.51100000000E-03 0.  1.
         11   -1    0    0    0    0 -0.00000000000E+00 -0.00000000000E+00 -0.45593999997E+02  0.45594000000E+02  0.51100000000E-03 0. -1.
    9900012    2    1    2    0    0 -0.38235038095E+02  0.86439633948E+01 -0.18627584924E+02  0.47787272340E+02  0.20000005908E+02 0.  0.
        -12    1    1    2    0    0  0.38235038095E+02 -0.86439633948E+01  0.18627584924E+02  0.43400727660E+02  0.00000000000E+00 0.  1.
         11    1    3    3    0    0 -0.54577229823E+00  0.33162881816E+01  0.51356782058E+00  0.33999098329E+01  0.51100000000E-03 0. -1.
        -11    1    3    3    0    0 -0.35082122117E+02  0.74597085791E+01 -0.19780400174E+02  0.40959330752E+02  0.51100000000E-03 0.  1.
        -12    1    3    3    0    0 -0.26071436799E+01 -0.21320333658E+01  0.63924742957E+00  0.34280317555E+01  0.00000000000E+00 0.  1.
</event>
<event>
 7    1  0.2740409E-010  0.4778727E+02  0.7816164E-02  0.1312668E+00
        -11   -1    0    0    0    0  0.00000000000E+00  0.00000000000E+00  0.45593999997E+02  0.45594000000E+02  0.51100000000E-03 0. -1.
         11   -1    0    0    0    0 -0.00000000000E+00 -0.00000000000E+00 -0.45593999997E+02  0.45594000000E+02  0.51100000000E-03 0.  1.
    9900012    2    1    2    0    0 -0.37805291411E+02  0.21049065617E+02  0.33645450437E+01  0.47787269760E+02  0.19999994143E+02 0.  0.
        -12    1    1    2    0    0  0.37805291411E+02 -0.21049065617E+02 -0.33645450437E+01  0.43400730240E+02  0.00000000000E+00 0.  1.
         11    1    3    3    0    0 -0.24417501073E+02  0.19587722240E+02  0.87873626224E+01  0.32513242891E+02  0.51100000000E-03 0. -1.
        -11    1    3    3    0    0 -0.87361745198E+01  0.17451425333E+00 -0.11223499504E+01  0.88097031810E+01  0.51100000000E-03 0.  1.
         12    1    3    3    0    0 -0.46516158183E+01  0.12868291242E+01 -0.43004676283E+01  0.64643236876E+01  0.00000000000E+00 0. -1.
</event>
<event>
 7    1  0.2740409E-010  0.4778727E+02  0.7816164E-02  0.1312668E+00
        -11   -1    0    0    0    0  0.00000000000E+00  0.00000000000E+00  0.45593999997E+02  0.45594000000E+02  0.51100000000E-03 0.  1.
         11   -1    0    0    0    0 -0.00000000000E+00 -0.00000000000E+00 -0.45593999997E+02  0.45594000000E+02  0.51100000000E-03 0. -1.
    9900012    2    1    2    0    0  0.39505070586E+02  0.16225799594E+02  0.77263228686E+01  0.47787271440E+02  0.20000001806E+02 0.  0.
        -12    1    1    2    0    0 -0.39505070586E+02 -0.16225799594E+02 -0.77263228686E+01  0.43400728560E+02  0.00000000000E+00 0.  1.
         11    1    3    3    0    0  0.13033559223E+02  0.15343587705E+01 -0.49616520418E+01  0.14030178691E+02  0.51100000000E-03 0. -1.
        -11    1    3    3    0    0  0.12997051771E+02  0.10481780728E+02  0.97585591458E+01  0.19339611135E+02  0.51100000000E-03 0.  1.
        -12    1    3    3    0    0  0.13474459591E+02  0.42096600952E+01  0.29294157647E+01  0.14417481614E+02  0.00000000000E+00 0.  1.
</event>
<event>
 7    1  0.2740409E-010  0.4778727E+02  0.7816164E-02  0.1312668E+00
        -11   -1    0    0    0    0  0.00000000000E+00  0.00000000000E+00  0.45593999997E+02  0.45594000000E+02  0.51100000000E-03 0.  1.
         11   -1    0    0    0    0 -0.00000000000E+00 -0.00000000000E+00 -0.45593999997E+02  0.45594000000E+02  0.51100000000E-03 0. -1.
    9900012    2    1    2    0    0  0.84229981669E+01  0.41557870145E+02 -0.92530833329E+01  0.47787273966E+02  0.20000013319E+02 0.  0.
        -12    1    1    2    0    0 -0.84229981669E+01 -0.41557870145E+02  0.92530833329E+01  0.43400726034E+02  0.00000000000E+00 0.  1.
         11    1    3    3    0    0  0.66811498122E+01  0.18786147514E+02  0.18927090004E+01  0.20028465964E+02  0.51100000000E-03 0. -1.
        -11    1    3    3    0    0 -0.17181402701E+01  0.53485190286E+01 -0.79118376697E+01  0.97033930848E+01  0.51100000000E-03 0.  1.
        -12    1    3    3    0    0  0.34599886248E+01  0.17423203603E+02 -0.32339546636E+01  0.18055414917E+02  0.00000000000E+00 0.  1.
</event>
<event>
 7    1  0.2740409E-010  0.4778727E+02  0.7816164E-02  0.1312668E+00
        -11   -1    0    0    0    0  0.00000000000E+00  0.00000000000E+00  0.45593999997E+02  0.45594000000E+02  0.51100000000E-03 0.  1.
         11   -1    0    0    0    0 -0.00000000000E+00 -0.00000000000E+00 -0.45593999997E+02  0.45594000000E+02  0.51100000000E-03 0. -1.
    9900012    2    1    2    0    0 -0.14280196370E+01  0.30498607241E+02 -0.30845083438E+02  0.47787268946E+02  0.19999990434E+02 0.  0.
        -12    1    1    2    0    0  0.14280196370E+01 -0.30498607241E+02  0.30845083438E+02  0.43400731054E+02  0.00000000000E+00 0.  1.
         11    1    3    3    0    0  0.74123647254E+01  0.13658728115E+02 -0.13193176220E+02  0.20385384558E+02  0.51100000000E-03 0. -1.
        -11    1    3    3    0    0 -0.22394371804E+01  0.14098155242E+01  0.48619642362E+00  0.26905475132E+01  0.51100000000E-03 0.  1.
         12    1    3    3    0    0 -0.66009471820E+01  0.15430063601E+02 -0.18138103642E+02  0.24711336875E+02  0.00000000000E+00 0. -1.
</event>
<event>
 7    1  0.2740409E-010  0.4778727E+02  0.7816164E-02  0.1312668E+00
        -11   -1    0    0    0    0  0.00000000000E+00  0.00000000000E+00  0.45593999997E+02  0.45594000000E+02  0.51100000000E-03 0.  1.
         11   -1    0    0    0    0 -0.00000000000E+00 -0.00000000000E+00 -0.45593999997E+02  0.45594000000E+02  0.51100000000E-03 0. -1.
    9900012    2    1    2    0    0 -0.15313275902E+02  0.17278469156E+02 -0.36750258183E+02  0.47787269687E+02  0.19999993810E+02 0.  0.
        -12    1    1    2    0    0  0.15313275902E+02 -0.17278469156E+02  0.36750258183E+02  0.43400730313E+02  0.00000000000E+00 0.  1.
         11    1    3    3    0    0 -0.48109055846E+01  0.44599912042E+01 -0.11507037107E+02  0.13245687499E+02  0.51100000000E-03 0. -1.
        -11    1    3    3    0    0 -0.40229704306E+01  0.13219806306E+02 -0.24337607826E+02  0.27986902737E+02  0.51100000000E-03 0.  1.
        -12    1    3    3    0    0 -0.64793998868E+01 -0.40132835506E+00 -0.90561325002E+00  0.65546794506E+01  0.00000000000E+00 0.  1.
</event>
<event>
 7    1  0.2740409E-010  0.4778727E+02  0.7816164E-02  0.1312668E+00
        -11   -1    0    0    0    0  0.00000000000E+00  0.00000000000E+00  0.45593999997E+02  0.45594000000E+02  0.51100000000E-03 0. -1.
         11   -1    0    0    0    0 -0.00000000000E+00 -0.00000000000E+00 -0.45593999997E+02  0.45594000000E+02  0.51100000000E-03 0.  1.
    9900012    2    1    2    0    0  0.38334288999E+02 -0.99650251004E+01  0.17742713090E+02  0.47787270673E+02  0.19999998307E+02 0.  0.
        -12    1    1    2    0    0 -0.38334288999E+02  0.99650251004E+01 -0.17742713090E+02  0.43400729327E+02  0.00000000000E+00 0.  1.
         11    1    3    3    0    0  0.10982818032E+02 -0.23229289578E+01  0.13811658223E+02  0.17798319977E+02  0.51100000000E-03 0. -1.
        -11    1    3    3    0    0  0.24014162124E+01 -0.37714437644E+01  0.30608962262E+00  0.44815487291E+01  0.51100000000E-03 0.  1.
         12    1    3    3    0    0  0.24950054754E+02 -0.38706523781E+01  0.36249652442E+01  0.25507401967E+02  0.00000000000E+00 0. -1.
</event>
<event>
 7    1  0.2740409E-010  0.4778727E+02  0.7816164E-02  0.1312668E+00
        -11   -1    0    0    0    0  0.00000000000E+00  0.00000000000E+00  0.45593999997E+02  0.45594000000E+02  0.51100000000E-03 0.  1.
         11   -1    0    0    0    0 -0.00000000000E+00 -0.00000000000E+00 -0.45593999997E+02  0.45594000000E+02  0.51100000000E-03 0. -1.
    9900012    2    1    2    0    0 -0.25516031351E+02  0.22030425638E+02 -0.27335247251E+02  0.47787271297E+02  0.20000001150E+02 0.  0.
        -12    1    1    2    0    0  0.25516031351E+02 -0.22030425638E+02  0.27335247251E+02  0.43400728703E+02  0.00000000000E+00 0.  1.
         11    1    3    3    0    0 -0.23483076422E+01  0.17842016099E+01 -0.46125768729E+01  0.54748324027E+01  0.51100000000E-03 0.  1.
        -11    1    3    3    0    0 -0.21344347181E+02  0.17398127734E+02 -0.25803894760E+02  0.37737474615E+02  0.51100000000E-03 0. -1.
        -12    1    3    3    0    0 -0.18233765280E+01  0.28480962941E+01  0.30812243821E+01  0.45749642792E+01  0.00000000000E+00 0.  1.
</event>
<event>
 7    1  0.2740409E-010  0.4778727E+02  0.7816164E-02  0.1312668E+00
        -11   -1    0    0    0    0  0.00000000000E+00  0.00000000000E+00  0.45593999997E+02  0.45594000000E+02  0.51100000000E-03 0.  1.
         11   -1    0    0    0    0 -0.00000000000E+00 -0.00000000000E+00 -0.45593999997E+02  0.45594000000E+02  0.51100000000E-03 0. -1.
    9900012    2    1    2    0    0  0.38800448087E+02  0.82670994120E+01  0.17601237961E+02  0.47787270949E+02  0.19999999565E+02 0.  0.
        -12    1    1    2    0    0 -0.38800448087E+02 -0.82670994120E+01 -0.17601237961E+02  0.43400729051E+02  0.00000000000E+00 0.  1.
         11    1    3    3    0    0  0.21106601874E+02  0.97120180513E+01  0.36650156050E+01  0.23521145316E+02  0.51100000000E-03 0. -1.
        -11    1    3    3    0    0  0.60269366513E+01 -0.46963126261E+01  0.41492302669E+01  0.86945632294E+01  0.51100000000E-03 0.  1.
        -12    1    3    3    0    0  0.11666909561E+02  0.32513939868E+01  0.97869920888E+01  0.15571562404E+02  0.00000000000E+00 0.  1.
</event>
<event>
 7    1  0.2740409E-010  0.4778727E+02  0.7816164E-02  0.1312668E+00
        -11   -1    0    0    0    0  0.00000000000E+00  0.00000000000E+00  0.45593999997E+02  0.45594000000E+02  0.51100000000E-03 0.  1.
         11   -1    0    0    0    0 -0.00000000000E+00 -0.00000000000E+00 -0.45593999997E+02  0.45594000000E+02  0.51100000000E-03 0. -1.
    9900012    2    1    2    0    0  0.16171440089E+02  0.76361746797E+01 -0.39544868429E+02  0.47787271235E+02  0.20000000870E+02 0.  0.
        -12    1    1    2    0    0 -0.16171440089E+02 -0.76361746797E+01  0.39544868429E+02  0.43400728765E+02  0.00000000000E+00 0.  1.
         11    1    3    3    0    0  0.72875247435E+01  0.21358338357E+01 -0.84384140020E+01  0.11352384516E+02  0.51100000000E-03 0. -1.
        -11    1    3    3    0    0  0.10801985320E+02 -0.18681001880E+01 -0.14603799022E+02  0.18260438968E+02  0.51100000000E-03 0.  1.
        -12    1    3    3    0    0 -0.19180699752E+01  0.73684410319E+01 -0.16502655404E+02  0.18174447751E+02  0.00000000000E+00 0.  1.
</event>
<event>
 7    1  0.2740409E-010  0.4778727E+02  0.7816164E-02  0.1312668E+00
        -11   -1    0    0    0    0  0.00000000000E+00  0.00000000000E+00  0.45593999997E+02  0.45594000000E+02  0.51100000000E-03 0.  1.
         11   -1    0    0    0    0 -0.00000000000E+00 -0.00000000000E+00 -0.45593999997E+02  0.45594000000E+02  0.51100000000E-03 0. -1.
    9900012    2    1    2    0    0  0.43245538381E+02 -0.81349648979E+00 -0.35756143481E+01  0.47787269771E+02  0.19999994195E+02 0.  0.
        -12    1    1    2    0    0 -0.43245538381E+02  0.81349648979E+00  0.35756143481E+01  0.43400730229E+02  0.00000000000E+00 0.  1.
         11    1    3    3    0    0  0.21926884994E+02 -0.30946564718E+01 -0.10966759831E+02  0.24711030041E+02  0.51100000000E-03 0. -1.
        -11    1    3    3    0    0  0.11233372162E+02  0.21437993634E+01  0.59381922435E+01  0.12885909096E+02  0.51100000000E-03 0.  1.
         12    1    3    3    0    0  0.10085281225E+02  0.13736061867E+00  0.14529532397E+01  0.10190330635E+02  0.00000000000E+00 0. -1.
</event>
<event>
 7    1  0.2740409E-010  0.4778727E+02  0.7816164E-02  0.1312668E+00
        -11   -1    0    0    0    0  0.00000000000E+00  0.00000000000E+00  0.45593999997E+02  0.45594000000E+02  0.51100000000E-03 0. -1.
         11   -1    0    0    0    0 -0.00000000000E+00 -0.00000000000E+00 -0.45593999997E+02  0.45594000000E+02  0.51100000000E-03 0.  1.
    9900012    2    1    2    0    0  0.23572121809E+02 -0.35184918997E+02 -0.94868221313E+01  0.47787271371E+02  0.20000001488E+02 0.  0.
        -12    1    1    2    0    0 -0.23572121809E+02  0.35184918997E+02  0.94868221313E+01  0.43400728629E+02  0.00000000000E+00 0.  1.
         11    1    3    3    0    0  0.89116719291E+01 -0.13827826386E+02 -0.27571049488E+01  0.16680177070E+02  0.51100000000E-03 0. -1.
        -11    1    3    3    0    0  0.13635159842E+02 -0.71512709066E+01 -0.68790026721E+01  0.16863538701E+02  0.51100000000E-03 0.  1.
        -12    1    3    3    0    0  0.10252900379E+01 -0.14205821705E+02  0.14928548952E+00  0.14243555600E+02  0.00000000000E+00 0.  1.
</event>
<event>
 7    1  0.2740409E-010  0.4778727E+02  0.7816164E-02  0.1312668E+00
        -11   -1    0    0    0    0  0.00000000000E+00  0.00000000000E+00  0.45593999997E+02  0.45594000000E+02  0.51100000000E-03 0.  1.
         11   -1    0    0    0    0 -0.00000000000E+00 -0.00000000000E+00 -0.45593999997E+02  0.45594000000E+02  0.51100000000E-03 0. -1.
    9900012    2    1    2    0    0 -0.24906005398E+02 -0.56186308163E+01 -0.35096227134E+02  0.47787271018E+02  0.19999999882E+02 0.  0.
        -12    1    1    2    0    0  0.24906005398E+02  0.56186308163E+01  0.35096227134E+02  0.43400728982E+02  0.00000000000E+00 0.  1.
         11    1    3    3    0    0 -0.18333869600E+02  0.29417465587E+01 -0.15499121160E+02  0.24186926310E+02  0.51100000000E-03 0. -1.
        -11    1    3    3    0    0 -0.19165330128E+01 -0.58720474860E+01 -0.15949100644E+02  0.17103445620E+02  0.51100000000E-03 0.  1.
         12    1    3    3    0    0 -0.46556027850E+01 -0.26883298891E+01 -0.36480053296E+01  0.64968990888E+01  0.00000000000E+00 0. -1.
</event>
<event>
 7    1  0.2740409E-010  0.4778727E+02  0.7816164E-02  0.1312668E+00
        -11   -1    0    0    0    0  0.00000000000E+00  0.00000000000E+00  0.45593999997E+02  0.45594000000E+02  0.51100000000E-03 0. -1.
         11   -1    0    0    0    0 -0.00000000000E+00 -0.00000000000E+00 -0.45593999997E+02  0.45594000000E+02  0.51100000000E-03 0.  1.
    9900012    2    1    2    0    0 -0.84414027486E+00 -0.37505790735E+02  0.21822612241E+02  0.47787270554E+02  0.19999997763E+02 0.  0.
        -12    1    1    2    0    0  0.84414027486E+00  0.37505790735E+02 -0.21822612241E+02  0.43400729446E+02  0.00000000000E+00 0.  1.
         11    1    3    3    0    0  0.91622209900E+01 -0.17087682089E+02  0.11576321931E+02  0.22581992878E+02  0.51100000000E-03 0. -1.
        -11    1    3    3    0    0 -0.83481270026E+01 -0.13573168205E+02  0.78686998228E+01  0.17771847308E+02  0.51100000000E-03 0.  1.
        -12    1    3    3    0    0 -0.16582342622E+01 -0.68449404413E+01  0.23775904872E+01  0.74334303682E+01  0.00000000000E+00 0.  1.
</event>
<event>
 7    1  0.2740409E-010  0.4778727E+02  0.7816164E-02  0.1312668E+00
        -11   -1    0    0    0    0  0.00000000000E+00  0.00000000000E+00  0.45593999997E+02  0.45594000000E+02  0.51100000000E-03 0. -1.
         11   -1    0    0    0    0 -0.00000000000E+00 -0.00000000000E+00 -0.45593999997E+02  0.45594000000E+02  0.51100000000E-03 0.  1.
    9900012    2    1    2    0    0 -0.17263652487E+01  0.29647177812E+02  0.31649449089E+02  0.47787272853E+02  0.20000008248E+02 0.  0.
        -12    1    1    2    0    0  0.17263652487E+01 -0.29647177812E+02 -0.31649449089E+02  0.43400727147E+02  0.00000000000E+00 0.  1.
         11    1    3    3    0    0 -0.46664025523E+01  0.16841426238E+02  0.18730658014E+02  0.25617308610E+02  0.51100000000E-03 0. -1.
        -11    1    3    3    0    0  0.25069053410E+01  0.73446549531E+01 -0.39746125889E+00  0.77708755287E+01  0.51100000000E-03 0.  1.
        -12    1    3    3    0    0  0.43313196261E+00  0.54610966212E+01  0.13316252334E+02  0.14399088715E+02  0.00000000000E+00 0.  1.
</event>
<event>
 7    1  0.2740409E-010  0.4778728E+02  0.7816164E-02  0.1312668E+00
        -11   -1    0    0    0    0  0.00000000000E+00  0.00000000000E+00  0.45593999997E+02  0.45594000000E+02  0.51100000000E-03 0. -1.
         11   -1    0    0    0    0 -0.00000000000E+00 -0.00000000000E+00 -0.45593999997E+02  0.45594000000E+02  0.51100000000E-03 0.  1.
    9900012    2    1    2    0    0  0.39958610268E+02 -0.11903988173E+02 -0.12051021344E+02  0.47787278988E+02  0.20000036216E+02 0.  0.
        -12    1    1    2    0    0 -0.39958610268E+02  0.11903988173E+02  0.12051021344E+02  0.43400721012E+02  0.00000000000E+00 0.  1.
         11    1    3    3    0    0  0.82462056476E+01 -0.43183198658E+01 -0.39694991870E+01  0.10119521634E+02  0.51100000000E-03 0. -1.
        -11    1    3    3    0    0  0.29321626826E+01 -0.70461245386E+01 -0.39310059062E+01  0.85847688790E+01  0.51100000000E-03 0.  1.
        -12    1    3    3    0    0  0.28780241938E+02 -0.53954376899E+00 -0.41505162504E+01  0.29082988475E+02  0.00000000000E+00 0.  1.
</event>
<event>
 7    1  0.2740409E-010  0.4778727E+02  0.7816164E-02  0.1312668E+00
        -11   -1    0    0    0    0  0.00000000000E+00  0.00000000000E+00  0.45593999997E+02  0.45594000000E+02  0.51100000000E-03 0.  1.
         11   -1    0    0    0    0 -0.00000000000E+00 -0.00000000000E+00 -0.45593999997E+02  0.45594000000E+02  0.51100000000E-03 0. -1.
    9900012    2    1    2    0    0  0.42229100311E+02 -0.56479779357E+01  0.82720374685E+01  0.47787272221E+02  0.20000005364E+02 0.  0.
        -12    1    1    2    0    0 -0.42229100311E+02  0.56479779357E+01 -0.82720374685E+01  0.43400727779E+02  0.00000000000E+00 0.  1.
         11    1    3    3    0    0  0.11358949162E+02 -0.15634414742E+01  0.52707746288E+01  0.12619474662E+02  0.51100000000E-03 0. -1.
        -11    1    3    3    0    0  0.17121523570E+02 -0.21785688013E+01  0.96536216098E+01  0.19775872720E+02  0.51100000000E-03 0.  1.
        -12    1    3    3    0    0  0.13748627579E+02 -0.19059676601E+01 -0.66523587701E+01  0.15391924839E+02  0.00000000000E+00 0.  1.
</event>
<event>
 7    1  0.2740409E-010  0.4778727E+02  0.7816164E-02  0.1312668E+00
        -11   -1    0    0    0    0  0.00000000000E+00  0.00000000000E+00  0.45593999997E+02  0.45594000000E+02  0.51100000000E-03 0. -1.
         11   -1    0    0    0    0 -0.00000000000E+00 -0.00000000000E+00 -0.45593999997E+02  0.45594000000E+02  0.51100000000E-03 0.  1.
    9900012    2    1    2    0    0 -0.35387940626E+02  0.39656759730E+00  0.25122887788E+02  0.47787273066E+02  0.20000009216E+02 0.  0.
        -12    1    1    2    0    0  0.35387940626E+02 -0.39656759730E+00 -0.25122887788E+02  0.43400726934E+02  0.00000000000E+00 0.  1.
         11    1    3    3    0    0 -0.22033112334E+02 -0.74062873601E+01  0.14590377408E+02  0.27444311701E+02  0.51100000000E-03 0. -1.
        -11    1    3    3    0    0 -0.11091349543E+02  0.70328709757E+01  0.11783537974E+02  0.17644576399E+02  0.51100000000E-03 0.  1.
        -12    1    3    3    0    0 -0.22634787492E+01  0.76998398167E+00 -0.12510275948E+01  0.26983849656E+01  0.00000000000E+00 0.  1.
</event>
<event>
 7    1  0.2740409E-010  0.4778727E+02  0.7816164E-02  0.1312668E+00
        -11   -1    0    0    0    0  0.00000000000E+00  0.00000000000E+00  0.45593999997E+02  0.45594000000E+02  0.51100000000E-03 0.  1.
         11   -1    0    0    0    0 -0.00000000000E+00 -0.00000000000E+00 -0.45593999997E+02  0.45594000000E+02  0.51100000000E-03 0. -1.
    9900012    2    1    2    0    0  0.41990451040E+02  0.96318669819E+01 -0.52585355769E+01  0.47787273779E+02  0.20000012469E+02 0.  0.
        -12    1    1    2    0    0 -0.41990451040E+02 -0.96318669819E+01  0.52585355769E+01  0.43400726221E+02  0.00000000000E+00 0.  1.
         11    1    3    3    0    0  0.19717486565E+02  0.74571094774E+01  0.33352263078E+01  0.21342715221E+02  0.51100000000E-03 0.  1.
        -11    1    3    3    0    0  0.12433233004E+02 -0.28856835260E+00  0.10080184328E+01  0.12477365750E+02  0.51100000000E-03 0. -1.
         12    1    3    3    0    0  0.98397314702E+01  0.24633258571E+01 -0.96017803175E+01  0.13967192808E+02  0.00000000000E+00 0. -1.
</event>
<event>
 7    1  0.2740409E-010  0.4778728E+02  0.7816164E-02  0.1312668E+00
        -11   -1    0    0    0    0  0.00000000000E+00  0.00000000000E+00  0.45593999997E+02  0.45594000000E+02  0.51100000000E-03 0.  1.
         11   -1    0    0    0    0 -0.00000000000E+00 -0.00000000000E+00 -0.45593999997E+02  0.45594000000E+02  0.51100000000E-03 0. -1.
    9900012    2    1    2    0    0 -0.11841316907E+02  0.35675770026E+02  0.21694353130E+02  0.47787282140E+02  0.20000050587E+02 0.  0.
        -12    1    1    2    0    0  0.11841316907E+02 -0.35675770026E+02 -0.21694353130E+02  0.43400717860E+02  0.00000000000E+00 0.  1.
         11    1    3    3    0    0 -0.93897366489E+01  0.28990965574E+02  0.14812144176E+02  0.33882781092E+02  0.51100000000E-03 0. -1.
        -11    1    3    3    0    0 -0.42764562126E+00 -0.22877444909E+01 -0.14117760649E+00  0.23316489896E+01  0.51100000000E-03 0.  1.
        -12    1    3    3    0    0 -0.20239346367E+01  0.89725489435E+01  0.70233865614E+01  0.11572852058E+02  0.00000000000E+00 0.  1.
</event>
<event>
 7    1  0.2740409E-010  0.4778725E+02  0.7816164E-02  0.1312668E+00
        -11   -1    0    0    0    0  0.00000000000E+00  0.00000000000E+00  0.45593999997E+02  0.45594000000E+02  0.51100000000E-03 0.  1.
         11   -1    0    0    0    0 -0.00000000000E+00 -0.00000000000E+00 -0.45593999997E+02  0.45594000000E+02  0.51100000000E-03 0. -1.
    9900012    2    1    2    0    0 -0.57480418055E+01  0.36998424153E+02 -0.21947712584E+02  0.47787245835E+02  0.19999885058E+02 0.  0.
        -12    1    1    2    0    0  0.57480418055E+01 -0.36998424153E+02  0.21947712584E+02  0.43400754165E+02  0.00000000000E+00 0.  1.
         11    1    3    3    0    0  0.47421522614E+01  0.48431520657E+01 -0.78945712618E+01  0.10405209545E+02  0.51100000000E-03 0. -1.
        -11    1    3    3    0    0 -0.69278222919E+01  0.13394678339E+02 -0.31946804292E+01  0.15414866617E+02  0.51100000000E-03 0.  1.
         12    1    3    3    0    0 -0.35623717750E+01  0.18760593749E+02 -0.10858460893E+02  0.21967169673E+02  0.00000000000E+00 0. -1.
</event>
<event>
 7    1  0.2740409E-010  0.4778727E+02  0.7816164E-02  0.1312668E+00
        -11   -1    0    0    0    0  0.00000000000E+00  0.00000000000E+00  0.45593999997E+02  0.45594000000E+02  0.51100000000E-03 0. -1.
         11   -1    0    0    0    0 -0.00000000000E+00 -0.00000000000E+00 -0.45593999997E+02  0.45594000000E+02  0.51100000000E-03 0.  1.
    9900012    2    1    2    0    0 -0.17841662143E+02  0.39001807453E+02 -0.66450955195E+01  0.47787272045E+02  0.20000004560E+02 0.  0.
        -12    1    1    2    0    0  0.17841662143E+02 -0.39001807453E+02  0.66450955195E+01  0.43400727955E+02  0.00000000000E+00 0.  1.
         11    1    3    3    0    0 -0.93948805258E+01  0.14235306536E+02  0.37523449941E+01  0.17463900637E+02  0.51100000000E-03 0. -1.
        -11    1    3    3    0    0 -0.57231368800E+01  0.25065155806E+02 -0.89422519290E+01  0.27220951510E+02  0.51100000000E-03 0.  1.
        -12    1    3    3    0    0 -0.27236447375E+01 -0.29865488880E+00 -0.14551885847E+01  0.31024198967E+01  0.00000000000E+00 0.  1.
</event>
<event>
 7    1  0.2740409E-010  0.4778728E+02  0.7816164E-02  0.1312668E+00
        -11   -1    0    0    0    0  0.00000000000E+00  0.00000000000E+00  0.45593999997E+02  0.45594000000E+02  0.51100000000E-03 0. -1.
         11   -1    0    0    0    0 -0.00000000000E+00 -0.00000000000E+00 -0.45593999997E+02  0.45594000000E+02  0.51100000000E-03 0.  1.
    9900012    2    1    2    0    0  0.28026667850E+02  0.30737504810E+02 -0.12382830835E+02  0.47787276363E+02  0.20000024249E+02 0.  0.
        -12    1    1    2    0    0 -0.28026667850E+02 -0.30737504810E+02  0.12382830835E+02  0.43400723637E+02  0.00000000000E+00 0.  1.
         11    1    3    3    0    0  0.14809382337E+02  0.13357401654E+02 -0.41302502638E+01  0.20366564552E+02  0.51100000000E-03 0. -1.
        -11    1    3    3    0    0  0.12428153622E+02  0.17513684767E+02 -0.11302185807E+02  0.24267829751E+02  0.51100000000E-03 0.  1.
        -12    1    3    3    0    0  0.78913189123E+00 -0.13358161121E+00  0.30496052354E+01  0.31528820594E+01  0.00000000000E+00 0.  1.
</event>
<event>
 7    1  0.2740409E-010  0.4778727E+02  0.7816164E-02  0.1312668E+00
        -11   -1    0    0    0    0  0.00000000000E+00  0.00000000000E+00  0.45593999997E+02  0.45594000000E+02  0.51100000000E-03 0.  1.
         11   -1    0    0    0    0 -0.00000000000E+00 -0.00000000000E+00 -0.45593999997E+02  0.45594000000E+02  0.51100000000E-03 0. -1.
    9900012    2    1    2    0    0  0.26457160977E+02  0.31291939313E+02 -0.14298844346E+02  0.47787265184E+02  0.19999973281E+02 0.  0.
        -12    1    1    2    0    0 -0.26457160977E+02 -0.31291939313E+02  0.14298844346E+02  0.43400734816E+02  0.00000000000E+00 0.  1.
         11    1    3    3    0    0  0.14984146882E+02  0.16528332322E+02 -0.10030520333E+02  0.24460616622E+02  0.51100000000E-03 0. -1.
        -11    1    3    3    0    0 -0.22389965048E+01  0.19851282779E-01  0.10915248179E+01  0.24909689101E+01  0.51100000000E-03 0.  1.
        -12    1    3    3    0    0  0.13712010599E+02  0.14743755708E+02 -0.53598488309E+01  0.20835679652E+02  0.00000000000E+00 0.  1.
</event>
<event>
 7    1  0.2740409E-010  0.4778722E+02  0.7816164E-02  0.1312668E+00
        -11   -1    0    0    0    0  0.00000000000E+00  0.00000000000E+00  0.45593999997E+02  0.45594000000E+02  0.51100000000E-03 0.  1.
         11   -1    0    0    0    0 -0.00000000000E+00 -0.00000000000E+00 -0.45593999997E+02  0.45594000000E+02  0.51100000000E-03 0. -1.
    9900012    2    1    2    0    0  0.29452746611E+02 -0.27364116755E+02 -0.16351400678E+02  0.47787222670E+02  0.19999779441E+02 0.  0.
        -12    1    1    2    0    0 -0.29452746611E+02  0.27364116755E+02  0.16351400678E+02  0.43400777330E+02  0.00000000000E+00 0.  1.
         11    1    3    3    0    0 -0.21738469662E+01 -0.91665561145E+00  0.30188692564E+00  0.23784457361E+01  0.51100000000E-03 0. -1.
        -11    1    3    3    0    0  0.79794467601E+01 -0.11850933915E+02 -0.75959138257E+01  0.16180670949E+02  0.51100000000E-03 0.  1.
         12    1    3    3    0    0  0.23647146817E+02 -0.14596527229E+02 -0.90573737777E+01  0.29228105985E+02  0.00000000000E+00 0. -1.
</event>
<event>
 7    1  0.2740409E-010  0.4778727E+02  0.7816164E-02  0.1312668E+00
        -11   -1    0    0    0    0  0.00000000000E+00  0.00000000000E+00  0.45593999997E+02  0.45594000000E+02  0.51100000000E-03 0.  1.
         11   -1    0    0    0    0 -0.00000000000E+00 -0.00000000000E+00 -0.45593999997E+02  0.45594000000E+02  0.51100000000E-03 0. -1.
    9900012    2    1    2    0    0  0.57135830495E+01 -0.14525145537E+02 -0.40496892104E+02  0.47787272423E+02  0.20000006284E+02 0.  0.
        -12    1    1    2    0    0 -0.57135830495E+01  0.14525145537E+02  0.40496892104E+02  0.43400727577E+02  0.00000000000E+00 0.  1.
         11    1    3    3    0    0  0.81881535875E+01 -0.26614921323E+01 -0.23489877141E+02  0.25018068029E+02  0.51100000000E-03 0. -1.
        -11    1    3    3    0    0 -0.34473082451E+01 -0.12765504058E+02 -0.12978460961E+02  0.18527883775E+02  0.51100000000E-03 0.  1.
        -12    1    3    3    0    0  0.97273770706E+00  0.90185065255E+00 -0.40285540023E+01  0.42413206193E+01  0.00000000000E+00 0.  1.
</event>
<event>
 7    1  0.2740409E-010  0.4778727E+02  0.7816164E-02  0.1312668E+00
        -11   -1    0    0    0    0  0.00000000000E+00  0.00000000000E+00  0.45593999997E+02  0.45594000000E+02  0.51100000000E-03 0. -1.
         11   -1    0    0    0    0 -0.00000000000E+00 -0.00000000000E+00 -0.45593999997E+02  0.45594000000E+02  0.51100000000E-03 0.  1.
    9900012    2    1    2    0    0  0.68795422078E+01 -0.40146268254E+02  0.14985736476E+02  0.47787271280E+02  0.20000001074E+02 0.  0.
        -12    1    1    2    0    0 -0.68795422078E+01  0.40146268254E+02 -0.14985736476E+02  0.43400728720E+02  0.00000000000E+00 0.  1.
         11    1    3    3    0    0 -0.16480005722E+01 -0.26621718848E+02  0.44248037191E+01  0.27037209703E+02  0.51100000000E-03 0. -1.
        -11    1    3    3    0    0 -0.10924628325E+01 -0.32811530437E+01  0.56270873786E+00  0.35037239790E+01  0.51100000000E-03 0.  1.
         12    1    3    3    0    0  0.96200056124E+01 -0.10243396363E+02  0.99982240188E+01  0.17246337598E+02  0.00000000000E+00 0. -1.
</event>
<event>
 7    1  0.2740409E-010  0.4778727E+02  0.7816164E-02  0.1312668E+00
        -11   -1    0    0    0    0  0.00000000000E+00  0.00000000000E+00  0.45593999997E+02  0.45594000000E+02  0.51100000000E-03 0. -1.
         11   -1    0    0    0    0 -0.00000000000E+00 -0.00000000000E+00 -0.45593999997E+02  0.45594000000E+02  0.51100000000E-03 0.  1.
    9900012    2    1    2    0    0 -0.22508496831E+01  0.37636568465E+02  0.21495246238E+02  0.47787271654E+02  0.20000002779E+02 0.  0.
        -12    1    1    2    0    0  0.22508496831E+01 -0.37636568465E+02 -0.21495246238E+02  0.43400728346E+02  0.00000000000E+00 0.  1.
         11    1    3    3    0    0  0.12858977164E+01  0.22882114573E+01  0.44399555355E+00  0.26620625318E+01  0.51100000000E-03 0. -1.
        -11    1    3    3    0    0 -0.78347133814E+00  0.23971085894E+02  0.23033242624E+02  0.33252925470E+02  0.51100000000E-03 0.  1.
        -12    1    3    3    0    0 -0.27532760613E+01  0.11377271114E+02 -0.19819919396E+01  0.11872283652E+02  0.00000000000E+00 0.  1.
</event>
<event>
 7    1  0.2740409E-010  0.4778727E+02  0.7816164E-02  0.1312668E+00
        -11   -1    0    0    0    0  0.00000000000E+00  0.00000000000E+00  0.45593999997E+02  0.45594000000E+02  0.51100000000E-03 0.  1.
         11   -1    0    0    0    0 -0.00000000000E+00 -0.00000000000E+00 -0.45593999997E+02  0.45594000000E+02  0.51100000000E-03 0. -1.
    9900012    2    1    2    0    0  0.36968094080E+02  0.18115914420E+02 -0.13740342409E+02  0.47787270228E+02  0.19999996279E+02 0.  0.
        -12    1    1    2    0    0 -0.36968094080E+02 -0.18115914420E+02  0.13740342409E+02  0.43400729772E+02  0.00000000000E+00 0.  1.
         11    1    3    3    0    0  0.21921036034E+02  0.18291416705E+02 -0.14329529315E+02  0.31944375976E+02  0.51100000000E-03 0. -1.
        -11    1    3    3    0    0  0.82261896782E+01 -0.24347031924E+01 -0.40868512074E+00  0.85886553107E+01  0.51100000000E-03 0.  1.
        -12    1    3    3    0    0  0.68208683681E+01  0.22592009075E+01  0.99787202673E+00  0.72542389413E+01  0.00000000000E+00 0.  1.
</event>
<event>
 7    1  0.2740409E-010  0.4778726E+02  0.7816164E-02  0.1312668E+00
        -11   -1    0    0    0    0  0.00000000000E+00  0.00000000000E+00  0.45593999997E+02  0.45594000000E+02  0.51100000000E-03 0. -1.
         11   -1    0    0    0    0 -0.00000000000E+00 -0.00000000000E+00 -0.45593999997E+02  0.45594000000E+02  0.51100000000E-03 0.  1.
    9900012    2    1    2    0    0 -0.21020794381E+01 -0.33974206782E+02  0.26925061693E+02  0.47787257937E+02  0.19999940238E+02 0.  0.
        -12    1    1    2    0    0  0.21020794381E+01  0.33974206782E+02 -0.26925061693E+02  0.43400742063E+02  0.00000000000E+00 0.  1.
         11    1    3    3    0    0 -0.11559657669E+01 -0.22845660575E+02  0.55077780210E+01  0.23528622631E+02  0.51100000000E-03 0. -1.
        -11    1    3    3    0    0 -0.16007489963E+01 -0.76226452049E+01  0.15569130706E+02  0.17408760682E+02  0.51100000000E-03 0.  1.
         12    1    3    3    0    0  0.65463532510E+00 -0.35059010029E+01  0.58481529658E+01  0.68498746238E+01  0.00000000000E+00 0. -1.
</event>
<event>
 7    1  0.2740409E-010  0.4778727E+02  0.7816164E-02  0.1312668E+00
        -11   -1    0    0    0    0  0.00000000000E+00  0.00000000000E+00  0.45593999997E+02  0.45594000000E+02  0.51100000000E-03 0. -1.
         11   -1    0    0    0    0 -0.00000000000E+00 -0.00000000000E+00 -0.45593999997E+02  0.45594000000E+02  0.51100000000E-03 0.  1.
    9900012    2    1    2    0    0  0.28645008048E+02  0.14015004095E+02  0.29439195584E+02  0.47787273480E+02  0.20000011104E+02 0.  0.
        -12    1    1    2    0    0 -0.28645008048E+02 -0.14015004095E+02 -0.29439195584E+02  0.43400726520E+02  0.00000000000E+00 0.  1.
         11    1    3    3    0    0  0.12820962103E+02  0.75440275625E+01  0.11644074236E+02  0.18891106008E+02  0.51100000000E-03 0. -1.
        -11    1    3    3    0    0  0.19099409262E+01 -0.45952767389E+01  0.35075414388E+01  0.60882912098E+01  0.51100000000E-03 0.  1.
        -12    1    3    3    0    0  0.13914105018E+02  0.11066253272E+02  0.14287579909E+02  0.22807876262E+02  0.00000000000E+00 0.  1.
</event>
<event>
 7    1  0.2740409E-010  0.4778728E+02  0.7816164E-02  0.1312668E+00
        -11   -1    0    0    0    0  0.00000000000E+00  0.00000000000E+00  0.45593999997E+02  0.45594000000E+02  0.51100000000E-03 0. -1.
         11   -1    0    0    0    0 -0.00000000000E+00 -0.00000000000E+00 -0.45593999997E+02  0.45594000000E+02  0.51100000000E-03 0.  1.
    9900012    2    1    2    0    0  0.29317651048E+02 -0.25785897258E+01  0.31897477947E+02  0.47787275498E+02  0.20000020304E+02 0.  0.
        -12    1    1    2    0    0 -0.29317651048E+02  0.25785897258E+01 -0.31897477947E+02  0.43400724502E+02  0.00000000000E+00 0.  1.
         11    1    3    3    0    0  0.24163558199E+01  0.95568013651E+00  0.64466658293E+01  0.69506546848E+01  0.51100000000E-03 0. -1.
        -11    1    3    3    0    0  0.16698754712E+02 -0.88057864426E+01  0.21684642267E+02  0.28750895539E+02  0.51100000000E-03 0.  1.
        -12    1    3    3    0    0  0.10202540517E+02  0.52715165802E+01  0.37661698504E+01  0.12085725274E+02  0.00000000000E+00 0.  1.
</event>
<event>
 7    1  0.2740409E-010  0.4778727E+02  0.7816164E-02  0.1312668E+00
        -11   -1    0    0    0    0  0.00000000000E+00  0.00000000000E+00  0.45593999997E+02  0.45594000000E+02  0.51100000000E-03 0.  1.
         11   -1    0    0    0    0 -0.00000000000E+00 -0.00000000000E+00 -0.45593999997E+02  0.45594000000E+02  0.51100000000E-03 0. -1.
    9900012    2    1    2    0    0 -0.31701254802E+01  0.15955322237E+02 -0.40236816305E+02  0.47787269711E+02  0.19999993920E+02 0.  0.
        -12    1    1    2    0    0  0.31701254802E+01 -0.15955322237E+02  0.40236816305E+02  0.43400730289E+02  0.00000000000E+00 0.  1.
         11    1    3    3    0    0 -0.14331162571E+01  0.16138502397E+02 -0.38176660223E+02  0.41472430214E+02  0.51100000000E-03 0. -1.
        -11    1    3    3    0    0 -0.36797913131E+01  0.56819626693E+00 -0.20098381660E+01  0.42312126891E+01  0.51100000000E-03 0.  1.
         12    1    3    3    0    0  0.19427820900E+01 -0.75137642652E+00 -0.50317916646E-01  0.20836268083E+01  0.00000000000E+00 0. -1.
</event>
<event>
 7    1  0.2740409E-010  0.4778727E+02  0.7816164E-02  0.1312668E+00
        -11   -1    0    0    0    0  0.00000000000E+00  0.00000000000E+00  0.45593999997E+02  0.45594000000E+02  0.51100000000E-03 0. -1.
         11   -1    0    0    0    0 -0.00000000000E+00 -0.00000000000E+00 -0.45593999997E+02  0.45594000000E+02  0.51100000000E-03 0.  1.
    9900012    2    1    2    0    0  0.41763594633E+02  0.10521512993E+02 -0.53593824208E+01  0.47787273598E+02  0.20000011640E+02 0.  0.
        -12    1    1    2    0    0 -0.41763594633E+02 -0.10521512993E+02  0.53593824208E+01  0.43400726402E+02  0.00000000000E+00 0.  1.
         11    1    3    3    0    0  0.33258411285E+02  0.33078503272E+01 -0.11044302028E+02  0.35200005717E+02  0.51100000000E-03 0. -1.
        -11    1    3    3    0    0  0.32556000960E+01  0.32768115224E+01  0.29339807985E+01  0.54721722675E+01  0.51100000000E-03 0.  1.
         12    1    3    3    0    0  0.52495832523E+01  0.39368511435E+01  0.27509388083E+01  0.71150956126E+01  0.00000000000E+00 0. -1.
</event>
<event>
 7    1  0.2740409E-010  0.4778728E+02  0.7816164E-02  0.1312668E+00
        -11   -1    0    0    0    0  0.00000000000E+00  0.00000000000E+00  0.45593999997E+02  0.45594000000E+02  0.51100000000E-03 0.  1.
         11   -1    0    0    0    0 -0.00000000000E+00 -0.00000000000E+00 -0.45593999997E+02  0.45594000000E+02  0.51100000000E-03 0. -1.
    9900012    2    1    2    0    0  0.40523247451E+02 -0.14814735526E+02 -0.46917259976E+01  0.47787282661E+02  0.20000052966E+02 0.  0.
        -12    1    1    2    0    0 -0.40523247451E+02  0.14814735526E+02  0.46917259976E+01  0.43400717339E+02  0.00000000000E+00 0.  1.
         11    1    3    3    0    0  0.12117208560E+02 -0.41707759441E+01 -0.38299980260E+01  0.13375014034E+02  0.51100000000E-03 0. -1.
        -11    1    3    3    0    0  0.46025674054E+01 -0.10992346850E+01 -0.66109134928E+01  0.81299520960E+01  0.51100000000E-03 0.  1.
        -12    1    3    3    0    0  0.23803471485E+02 -0.95447248966E+01  0.57491855211E+01  0.26282316532E+02  0.00000000000E+00 0.  1.
</event>
<event>
 7    1  0.2740409E-010  0.4778727E+02  0.7816164E-02  0.1312668E+00
        -11   -1    0    0    0    0  0.00000000000E+00  0.00000000000E+00  0.45593999997E+02  0.45594000000E+02  0.51100000000E-03 0.  1.
         11   -1    0    0    0    0 -0.00000000000E+00 -0.00000000000E+00 -0.45593999997E+02  0.45594000000E+02  0.51100000000E-03 0. -1.
    9900012    2    1    2    0    0 -0.13590658047E+02  0.17066019877E+02 -0.37518903214E+02  0.47787272829E+02  0.20000008137E+02 0.  0.
        -12    1    1    2    0    0  0.13590658047E+02 -0.17066019877E+02  0.37518903214E+02  0.43400727171E+02  0.00000000000E+00 0.  1.
         11    1    3    3    0    0 -0.93834595577E+01  0.16184730862E+02 -0.18327316523E+02  0.26189413082E+02  0.51100000000E-03 0. -1.
        -11    1    3    3    0    0 -0.65329502446E+01  0.20769525639E+01 -0.16387758318E+02  0.17763777577E+02  0.51100000000E-03 0.  1.
         12    1    3    3    0    0  0.23257517550E+01 -0.11956635490E+01 -0.28038283723E+01  0.38340821704E+01  0.00000000000E+00 0. -1.
</event>
<event>
 7    1  0.2740409E-010  0.4778726E+02  0.7816164E-02  0.1312668E+00
        -11   -1    0    0    0    0  0.00000000000E+00  0.00000000000E+00  0.45593999997E+02  0.45594000000E+02  0.51100000000E-03 0.  1.
         11   -1    0    0    0    0 -0.00000000000E+00 -0.00000000000E+00 -0.45593999997E+02  0.45594000000E+02  0.51100000000E-03 0. -1.
    9900012    2    1    2    0    0  0.42074739271E+02  0.29960116330E+01 -0.10215882274E+02  0.47787262436E+02  0.19999960753E+02 0.  0.
        -12    1    1    2    0    0 -0.42074739271E+02 -0.29960116330E+01  0.10215882274E+02  0.43400737564E+02  0.00000000000E+00 0.  1.
         11    1    3    3    0    0  0.62404873631E+01 -0.98014284754E+00 -0.40544908669E+01  0.75062146906E+01  0.51100000000E-03 0. -1.
        -11    1    3    3    0    0  0.23942598033E+02 -0.55129683569E+01 -0.44880722787E+01  0.24975660426E+02  0.51100000000E-03 0.  1.
        -12    1    3    3    0    0  0.11891653875E+02  0.94891228374E+01 -0.16733191285E+01  0.15305387320E+02  0.00000000000E+00 0.  1.
</event>
<event>
 7    1  0.2740409E-010  0.4778727E+02  0.7816164E-02  0.1312668E+00
        -11   -1    0    0    0    0  0.00000000000E+00  0.00000000000E+00  0.45593999997E+02  0.45594000000E+02  0.51100000000E-03 0.  1.
         11   -1    0    0    0    0 -0.00000000000E+00 -0.00000000000E+00 -0.45593999997E+02  0.45594000000E+02  0.51100000000E-03 0. -1.
    9900012    2    1    2    0    0 -0.30181459088E+02 -0.37476570167E+01 -0.30962203266E+02  0.47787269166E+02  0.19999991436E+02 0.  0.
        -12    1    1    2    0    0  0.30181459088E+02  0.37476570167E+01  0.30962203266E+02  0.43400730834E+02  0.00000000000E+00 0.  1.
         11    1    3    3    0    0 -0.20688586291E+02 -0.88021859754E+01 -0.21204379572E+02  0.30905044798E+02  0.51100000000E-03 0. -1.
        -11    1    3    3    0    0 -0.10417007442E+02  0.56749070505E+01 -0.66904153066E+01  0.13619114190E+02  0.51100000000E-03 0.  1.
         12    1    3    3    0    0  0.92413464494E+00 -0.62037809179E+00 -0.30674083879E+01  0.32631101785E+01  0.00000000000E+00 0. -1.
</event>
<event>
 7    1  0.2740409E-010  0.4778726E+02  0.7816164E-02  0.1312668E+00
        -11   -1    0    0    0    0  0.00000000000E+00  0.00000000000E+00  0.45593999997E+02  0.45594000000E+02  0.51100000000E-03 0.  1.
         11   -1    0    0    0    0 -0.00000000000E+00 -0.00000000000E+00 -0.45593999997E+02  0.45594000000E+02  0.51100000000E-03 0. -1.
    9900012    2    1    2    0    0 -0.23051244083E+02 -0.36739502466E+02  0.15726583851E+01  0.47787260956E+02  0.19999954001E+02 0.  0.
        -12    1    1    2    0    0  0.23051244083E+02  0.36739502466E+02 -0.15726583851E+01  0.43400739044E+02  0.00000000000E+00 0.  1.
         11    1    3    3    0    0 -0.14583609957E+02 -0.80027358042E+01 -0.13251016508E+00  0.16635594938E+02  0.51100000000E-03 0. -1.
        -11    1    3    3    0    0 -0.60670257466E+01 -0.26512942577E+02  0.34948746279E+01  0.27421872191E+02  0.51100000000E-03 0.  1.
        -12    1    3    3    0    0 -0.24006083792E+01 -0.22238240843E+01 -0.17897060777E+01  0.37297938271E+01  0.00000000000E+00 0.  1.
</event>
<event>
 7    1  0.2740409E-010  0.4778727E+02  0.7816164E-02  0.1312668E+00
        -11   -1    0    0    0    0  0.00000000000E+00  0.00000000000E+00  0.45593999997E+02  0.45594000000E+02  0.51100000000E-03 0.  1.
         11   -1    0    0    0    0 -0.00000000000E+00 -0.00000000000E+00 -0.45593999997E+02  0.45594000000E+02  0.51100000000E-03 0. -1.
    9900012    2    1    2    0    0  0.16054220283E+02 -0.12315411791E+02 -0.38395523288E+02  0.47787267691E+02  0.19999984709E+02 0.  0.
        -12    1    1    2    0    0 -0.16054220283E+02  0.12315411791E+02  0.38395523288E+02  0.43400732309E+02  0.00000000000E+00 0.  1.
         11    1    3    3    0    0  0.61553923267E+01 -0.12859674844E+01 -0.15490376699E+02  0.16718084149E+02  0.51100000000E-03 0. -1.
        -11    1    3    3    0    0 -0.13637684322E+01 -0.98195252192E+00  0.15795982332E+01  0.23063447121E+01  0.51100000000E-03 0.  1.
        -12    1    3    3    0    0  0.11262596388E+02 -0.10047491785E+02 -0.24484744821E+02  0.28762838829E+02  0.00000000000E+00 0.  1.
</event>
<event>
 7    1  0.2740409E-010  0.4778727E+02  0.7816164E-02  0.1312668E+00
        -11   -1    0    0    0    0  0.00000000000E+00  0.00000000000E+00  0.45593999997E+02  0.45594000000E+02  0.51100000000E-03 0.  1.
         11   -1    0    0    0    0 -0.00000000000E+00 -0.00000000000E+00 -0.45593999997E+02  0.45594000000E+02  0.51100000000E-03 0. -1.
    9900012    2    1    2    0    0 -0.34160470392E+02  0.51968632348E+00 -0.26765947197E+02  0.47787265667E+02  0.19999975482E+02 0.  0.
        -12    1    1    2    0    0  0.34160470392E+02 -0.51968632348E+00  0.26765947197E+02  0.43400734333E+02  0.00000000000E+00 0.  1.
         11    1    3    3    0    0 -0.13596236582E+02 -0.29544408731E+01 -0.43632492524E+00  0.13920371754E+02  0.51100000000E-03 0. -1.
        -11    1    3    3    0    0 -0.22565132080E+00 -0.46260351981E+00 -0.28581208037E+00  0.58873537478E+00  0.51100000000E-03 0.  1.
         12    1    3    3    0    0 -0.20338582489E+02  0.39367307164E+01 -0.26043810191E+02  0.33278158538E+02  0.00000000000E+00 0. -1.
</event>
<event>
 7    1  0.2740409E-010  0.4778728E+02  0.7816164E-02  0.1312668E+00
        -11   -1    0    0    0    0  0.00000000000E+00  0.00000000000E+00  0.45593999997E+02  0.45594000000E+02  0.51100000000E-03 0.  1.
         11   -1    0    0    0    0 -0.00000000000E+00 -0.00000000000E+00 -0.45593999997E+02  0.45594000000E+02  0.51100000000E-03 0. -1.
    9900012    2    1    2    0    0  0.42729085123E+02  0.74932461076E+01  0.13036389798E+01  0.47787275037E+02  0.20000018205E+02 0.  0.
        -12    1    1    2    0    0 -0.42729085123E+02 -0.74932461076E+01 -0.13036389798E+01  0.43400724963E+02  0.00000000000E+00 0.  1.
         11    1    3    3    0    0  0.24661823155E+02  0.37767775029E+01  0.59133897920E+01  0.25640548917E+02  0.51100000000E-03 0. -1.
        -11    1    3    3    0    0  0.13281754794E+02  0.54000884050E+01  0.12549019904E+01  0.14392384947E+02  0.51100000000E-03 0.  1.
         12    1    3    3    0    0  0.47855071740E+01 -0.16836198003E+01 -0.58646528026E+01  0.77543411738E+01  0.00000000000E+00 0. -1.
</event>
<event>
 7    1  0.2740409E-010  0.4778727E+02  0.7816164E-02  0.1312668E+00
        -11   -1    0    0    0    0  0.00000000000E+00  0.00000000000E+00  0.45593999997E+02  0.45594000000E+02  0.51100000000E-03 0.  1.
         11   -1    0    0    0    0 -0.00000000000E+00 -0.00000000000E+00 -0.45593999997E+02  0.45594000000E+02  0.51100000000E-03 0. -1.
    9900012    2    1    2    0    0  0.50403806820E+01 -0.41815009256E+02  0.10474859998E+02  0.47787272720E+02  0.20000007639E+02 0.  0.
        -12    1    1    2    0    0 -0.50403806820E+01  0.41815009256E+02 -0.10474859998E+02  0.43400727280E+02  0.00000000000E+00 0.  1.
         11    1    3    3    0    0 -0.23638878638E+01 -0.24364148039E+02  0.78382640696E+01  0.25702880371E+02  0.51100000000E-03 0. -1.
        -11    1    3    3    0    0  0.92784304610E+01 -0.16455243038E+02  0.43165434231E+01  0.19377740906E+02  0.51100000000E-03 0.  1.
        -12    1    3    3    0    0 -0.18741619152E+01 -0.99561817922E+00 -0.16799474952E+01  0.27066514422E+01  0.00000000000E+00 0.  1.
</event>
<event>
 7    1  0.2740409E-010  0.4778727E+02  0.7816164E-02  0.1312668E+00
        -11   -1    0    0    0    0  0.00000000000E+00  0.00000000000E+00  0.45593999997E+02  0.45594000000E+02  0.51100000000E-03 0.  1.
         11   -1    0    0    0    0 -0.00000000000E+00 -0.00000000000E+00 -0.45593999997E+02  0.45594000000E+02  0.51100000000E-03 0. -1.
    9900012    2    1    2    0    0 -0.35554102560E+02 -0.34856360108E+01 -0.24645070432E+02  0.47787270008E+02  0.19999995273E+02 0.  0.
        -12    1    1    2    0    0  0.35554102560E+02  0.34856360108E+01  0.24645070432E+02  0.43400729992E+02  0.00000000000E+00 0.  1.
         11    1    3    3    0    0 -0.11079546708E+02  0.12755231486E-01 -0.18916840924E+02  0.21922668377E+02  0.51100000000E-03 0. -1.
        -11    1    3    3    0    0 -0.20264106002E+02 -0.44151888374E+01 -0.35675387771E+01  0.21044125492E+02  0.51100000000E-03 0.  1.
         12    1    3    3    0    0 -0.42104498508E+01  0.91679759513E+00 -0.21606907306E+01  0.48204761394E+01  0.00000000000E+00 0. -1.
</event>
<event>
 7    1  0.2740409E-010  0.4778726E+02  0.7816164E-02  0.1312668E+00
        -11   -1    0    0    0    0  0.00000000000E+00  0.00000000000E+00  0.45593999997E+02  0.45594000000E+02  0.51100000000E-03 0.  1.
         11   -1    0    0    0    0 -0.00000000000E+00 -0.00000000000E+00 -0.45593999997E+02  0.45594000000E+02  0.51100000000E-03 0. -1.
    9900012    2    1    2    0    0  0.35877692469E+02 -0.24211898824E+02  0.31936274045E+01  0.47787261325E+02  0.19999955685E+02 0.  0.
        -12    1    1    2    0    0 -0.35877692469E+02  0.24211898824E+02 -0.31936274045E+01  0.43400738675E+02  0.00000000000E+00 0.  1.
         11    1    3    3    0    0  0.52579989640E+01 -0.39157152760E+01 -0.59429567318E+01  0.88486221642E+01  0.51100000000E-03 0. -1.
        -11    1    3    3    0    0  0.24971184374E+02 -0.18617327731E+02  0.10537524971E+02  0.32881672307E+02  0.51100000000E-03 0.  1.
        -12    1    3    3    0    0  0.56485091305E+01 -0.16788558165E+01 -0.14009408343E+01  0.60569668540E+01  0.00000000000E+00 0.  1.
</event>
<event>
 7    1  0.2740409E-010  0.4778728E+02  0.7816164E-02  0.1312668E+00
        -11   -1    0    0    0    0  0.00000000000E+00  0.00000000000E+00  0.45593999997E+02  0.45594000000E+02  0.51100000000E-03 0. -1.
         11   -1    0    0    0    0 -0.00000000000E+00 -0.00000000000E+00 -0.45593999997E+02  0.45594000000E+02  0.51100000000E-03 0.  1.
    9900012    2    1    2    0    0  0.39915222522E+02  0.16841444452E+02  0.26006464352E+01  0.47787278784E+02  0.20000035289E+02 0.  0.
        -12    1    1    2    0    0 -0.39915222522E+02 -0.16841444452E+02 -0.26006464352E+01  0.43400721216E+02  0.00000000000E+00 0.  1.
         11    1    3    3    0    0  0.16010614646E+02  0.12953465360E+02 -0.18361044653E+01  0.20676153560E+02  0.51100000000E-03 0.  1.
        -11    1    3    3    0    0  0.13099089287E+02  0.75901765775E+01  0.40974324610E+01  0.15683936803E+02  0.51100000000E-03 0. -1.
         12    1    3    3    0    0  0.10805518589E+02 -0.37021974858E+01  0.33931843952E+00  0.11427188420E+02  0.00000000000E+00 0. -1.
</event>
<event>
 7    1  0.2740409E-010  0.4778727E+02  0.7816164E-02  0.1312668E+00
        -11   -1    0    0    0    0  0.00000000000E+00  0.00000000000E+00  0.45593999997E+02  0.45594000000E+02  0.51100000000E-03 0.  1.
         11   -1    0    0    0    0 -0.00000000000E+00 -0.00000000000E+00 -0.45593999997E+02  0.45594000000E+02  0.51100000000E-03 0. -1.
    9900012    2    1    2    0    0 -0.25925899257E+02  0.31842263941E+02 -0.14054941928E+02  0.47787269387E+02  0.19999992443E+02 0.  0.
        -12    1    1    2    0    0  0.25925899257E+02 -0.31842263941E+02  0.14054941928E+02  0.43400730613E+02  0.00000000000E+00 0.  1.
         11    1    3    3    0    0 -0.85028827474E+01  0.12628332366E+02 -0.13964237734E+02  0.20658502587E+02  0.51100000000E-03 0. -1.
        -11    1    3    3    0    0 -0.64109982417E+01  0.76486218269E+01  0.38222316432E+01  0.10686990657E+02  0.51100000000E-03 0.  1.
         12    1    3    3    0    0 -0.11012018267E+02  0.11565309748E+02 -0.39129358367E+01  0.16441776143E+02  0.00000000000E+00 0. -1.
</event>
<event>
 7    1  0.2740409E-010  0.4778727E+02  0.7816164E-02  0.1312668E+00
        -11   -1    0    0    0    0  0.00000000000E+00  0.00000000000E+00  0.45593999997E+02  0.45594000000E+02  0.51100000000E-03 0.  1.
         11   -1    0    0    0    0 -0.00000000000E+00 -0.00000000000E+00 -0.45593999997E+02  0.45594000000E+02  0.51100000000E-03 0. -1.
    9900012    2    1    2    0    0 -0.26201583557E+02 -0.14942535883E+01 -0.34566855575E+02  0.47787270985E+02  0.19999999728E+02 0.  0.
        -12    1    1    2    0    0  0.26201583557E+02  0.14942535883E+01  0.34566855575E+02  0.43400729015E+02  0.00000000000E+00 0.  1.
         11    1    3    3    0    0 -0.87533850747E+01 -0.22890454161E+01 -0.23706585266E+02  0.25374468751E+02  0.51100000000E-03 0. -1.
        -11    1    3    3    0    0 -0.15734667952E+02 -0.77609120979E+00 -0.12019275570E+02  0.19815273872E+02  0.51100000000E-03 0.  1.
         12    1    3    3    0    0 -0.17135305300E+01  0.15708830376E+01  0.11590052603E+01  0.25975283614E+01  0.00000000000E+00 0. -1.
</event>
<event>
 7    1  0.2740409E-010  0.4778727E+02  0.7816164E-02  0.1312668E+00
        -11   -1    0    0    0    0  0.00000000000E+00  0.00000000000E+00  0.45593999997E+02  0.45594000000E+02  0.51100000000E-03 0.  1.
         11   -1    0    0    0    0 -0.00000000000E+00 -0.00000000000E+00 -0.45593999997E+02  0.45594000000E+02  0.51100000000E-03 0. -1.
    9900012    2    1    2    0    0 -0.18936807219E+02  0.25017950407E+02 -0.29985373451E+02  0.47787272688E+02  0.20000007495E+02 0.  0.
        -12    1    1    2    0    0  0.18936807219E+02 -0.25017950407E+02  0.29985373451E+02  0.43400727312E+02  0.00000000000E+00 0.  1.
         11    1    3    3    0    0 -0.11010520754E+01  0.11980712784E+02 -0.58446112717E+01  0.13375697203E+02  0.51100000000E-03 0. -1.
        -11    1    3    3    0    0 -0.12234324225E+02  0.47810255915E+01 -0.19239099339E+02  0.23295489662E+02  0.51100000000E-03 0.  1.
        -12    1    3    3    0    0 -0.56014309187E+01  0.82562120310E+01 -0.49016628402E+01  0.11116085824E+02  0.00000000000E+00 0.  1.
</event>
<event>
 7    1  0.2740409E-010  0.4778728E+02  0.7816164E-02  0.1312668E+00
        -11   -1    0    0    0    0  0.00000000000E+00  0.00000000000E+00  0.45593999997E+02  0.45594000000E+02  0.51100000000E-03 0.  1.
         11   -1    0    0    0    0 -0.00000000000E+00 -0.00000000000E+00 -0.45593999997E+02  0.45594000000E+02  0.51100000000E-03 0. -1.
    9900012    2    1    2    0    0  0.14846048836E+02 -0.36544663069E+02 -0.18102628320E+02  0.47787277460E+02  0.20000029251E+02 0.  0.
        -12    1    1    2    0    0 -0.14846048836E+02  0.36544663069E+02  0.18102628320E+02  0.43400722540E+02  0.00000000000E+00 0.  1.
         11    1    3    3    0    0  0.50118410560E+01 -0.41669404037E+00 -0.20570080967E+01  0.54335501530E+01  0.51100000000E-03 0. -1.
        -11    1    3    3    0    0  0.73280740050E+01 -0.24219629425E+02 -0.47416134529E+01  0.25744397770E+02  0.51100000000E-03 0.  1.
        -12    1    3    3    0    0  0.25061337753E+01 -0.11908339604E+02 -0.11304006770E+02  0.16609329537E+02  0.00000000000E+00 0.  1.
</event>
<event>
 7    1  0.2740409E-010  0.4778727E+02  0.7816164E-02  0.1312668E+00
        -11   -1    0    0    0    0  0.00000000000E+00  0.00000000000E+00  0.45593999997E+02  0.45594000000E+02  0.51100000000E-03 0.  1.
         11   -1    0    0    0    0 -0.00000000000E+00 -0.00000000000E+00 -0.45593999997E+02  0.45594000000E+02  0.51100000000E-03 0. -1.
    9900012    2    1    2    0    0 -0.16528173555E+02 -0.14634496329E+02 -0.37366752473E+02  0.47787271962E+02  0.20000004183E+02 0.  0.
        -12    1    1    2    0    0  0.16528173555E+02  0.14634496329E+02  0.37366752473E+02  0.43400728038E+02  0.00000000000E+00 0.  1.
         11    1    3    3    0    0  0.48938917849E+00 -0.26901715101E+01 -0.17633869606E+02  0.17844603724E+02  0.51100000000E-03 0. -1.
        -11    1    3    3    0    0 -0.56138121884E+01 -0.92217004447E+01 -0.95342745690E+01  0.14403368988E+02  0.51100000000E-03 0.  1.
         12    1    3    3    0    0 -0.11403750545E+02 -0.27226243741E+01 -0.10198608298E+02  0.15539299250E+02  0.00000000000E+00 0. -1.
</event>
<event>
 7    1  0.2740409E-010  0.4778729E+02  0.7816164E-02  0.1312668E+00
        -11   -1    0    0    0    0  0.00000000000E+00  0.00000000000E+00  0.45593999997E+02  0.45594000000E+02  0.51100000000E-03 0.  1.
         11   -1    0    0    0    0 -0.00000000000E+00 -0.00000000000E+00 -0.45593999997E+02  0.45594000000E+02  0.51100000000E-03 0. -1.
    9900012    2    1    2    0    0 -0.18093423446E+02  0.22347380706E+02 -0.32509142617E+02  0.47787288599E+02  0.20000080040E+02 0.  0.
        -12    1    1    2    0    0  0.18093423446E+02 -0.22347380706E+02  0.32509142617E+02  0.43400711401E+02  0.00000000000E+00 0.  1.
         11    1    3    3    0    0 -0.14544243717E+02  0.10367090593E+02 -0.10742995759E+02  0.20842829722E+02  0.51100000000E-03 0. -1.
        -11    1    3    3    0    0 -0.36609459530E+01  0.56127321559E+00 -0.22522711823E+01  0.43347754997E+01  0.51100000000E-03 0.  1.
         12    1    3    3    0    0  0.11176622427E+00  0.11419016897E+02 -0.19513875675E+02  0.22609683378E+02  0.00000000000E+00 0. -1.
</event>
<event>
 7    1  0.2740409E-010  0.4778728E+02  0.7816164E-02  0.1312668E+00
        -11   -1    0    0    0    0  0.00000000000E+00  0.00000000000E+00  0.45593999997E+02  0.45594000000E+02  0.51100000000E-03 0. -1.
         11   -1    0    0    0    0 -0.00000000000E+00 -0.00000000000E+00 -0.45593999997E+02  0.45594000000E+02  0.51100000000E-03 0.  1.
    9900012    2    1    2    0    0  0.41384135058E+02 -0.99701646723E+01 -0.84600106692E+01  0.47787278823E+02  0.20000035468E+02 0.  0.
        -12    1    1    2    0    0 -0.41384135058E+02  0.99701646723E+01  0.84600106692E+01  0.43400721177E+02  0.00000000000E+00 0.  1.
         11    1    3    3    0    0  0.15837497626E+02 -0.99953617744E+01 -0.76541615415E+01  0.20231652855E+02  0.51100000000E-03 0. -1.
        -11    1    3    3    0    0  0.19654067408E+02  0.26537189385E+01  0.30099252861E+01  0.20059517451E+02  0.51100000000E-03 0.  1.
         12    1    3    3    0    0  0.58925700240E+01 -0.26285218364E+01 -0.38157744138E+01  0.74961085177E+01  0.00000000000E+00 0. -1.
</event>
<event>
 7    1  0.2740409E-010  0.4778727E+02  0.7816164E-02  0.1312668E+00
        -11   -1    0    0    0    0  0.00000000000E+00  0.00000000000E+00  0.45593999997E+02  0.45594000000E+02  0.51100000000E-03 0. -1.
         11   -1    0    0    0    0 -0.00000000000E+00 -0.00000000000E+00 -0.45593999997E+02  0.45594000000E+02  0.51100000000E-03 0.  1.
    9900012    2    1    2    0    0  0.43324050763E+02  0.37629790547E+00 -0.25511415461E+01  0.47787270769E+02  0.19999998743E+02 0.  0.
        -12    1    1    2    0    0 -0.43324050763E+02 -0.37629790547E+00  0.25511415461E+01  0.43400729231E+02  0.00000000000E+00 0.  1.
         11    1    3    3    0    0  0.18822350147E+02 -0.74637800796E+01 -0.68119948736E+01  0.21363336644E+02  0.51100000000E-03 0. -1.
        -11    1    3    3    0    0  0.19804391511E+02  0.64645801680E+01  0.17055056987E+01  0.20902475208E+02  0.51100000000E-03 0.  1.
        -12    1    3    3    0    0  0.46973091044E+01  0.13754978171E+01  0.25553476287E+01  0.55214589169E+01  0.00000000000E+00 0.  1.
</event>
<event>
 7    1  0.2740409E-010  0.4778727E+02  0.7816164E-02  0.1312668E+00
        -11   -1    0    0    0    0  0.00000000000E+00  0.00000000000E+00  0.45593999997E+02  0.45594000000E+02  0.51100000000E-03 0.  1.
         11   -1    0    0    0    0 -0.00000000000E+00 -0.00000000000E+00 -0.45593999997E+02  0.45594000000E+02  0.51100000000E-03 0. -1.
    9900012    2    1    2    0    0  0.24809178846E+02 -0.28146361144E+02  0.21815372773E+02  0.47787268556E+02  0.19999988654E+02 0.  0.
        -12    1    1    2    0    0 -0.24809178846E+02  0.28146361144E+02 -0.21815372773E+02  0.43400731444E+02  0.00000000000E+00 0.  1.
         11    1    3    3    0    0  0.11272937898E+02 -0.19873034392E+01  0.78111839178E+01  0.13857961548E+02  0.51100000000E-03 0. -1.
        -11    1    3    3    0    0  0.10538160794E+02 -0.25217720280E+02  0.10648996444E+02  0.29332360536E+02  0.51100000000E-03 0.  1.
        -12    1    3    3    0    0  0.29980801532E+01 -0.94133742447E+00  0.33551924113E+01  0.45969464722E+01  0.00000000000E+00 0.  1.
</event>
<event>
 7    1  0.2740409E-010  0.4778730E+02  0.7816164E-02  0.1312668E+00
        -11   -1    0    0    0    0  0.00000000000E+00  0.00000000000E+00  0.45593999997E+02  0.45594000000E+02  0.51100000000E-03 0.  1.
         11   -1    0    0    0    0 -0.00000000000E+00 -0.00000000000E+00 -0.45593999997E+02  0.45594000000E+02  0.51100000000E-03 0. -1.
    9900012    2    1    2    0    0  0.19231834336E+02  0.47748821689E+01 -0.38612927394E+02  0.47787295932E+02  0.20000113471E+02 0.  0.
        -12    1    1    2    0    0 -0.19231834336E+02 -0.47748821689E+01  0.38612927394E+02  0.43400704068E+02  0.00000000000E+00 0.  1.
         11    1    3    3    0    0  0.58699879201E+01  0.91070618795E+01 -0.26616422027E+02  0.28737245102E+02  0.51100000000E-03 0. -1.
        -11    1    3    3    0    0  0.78686152426E+01 -0.58867448684E+00 -0.47214369708E+01  0.91953037371E+01  0.51100000000E-03 0.  1.
         12    1    3    3    0    0  0.54932311737E+01 -0.37435052237E+01 -0.72750683962E+01  0.98547470925E+01  0.00000000000E+00 0. -1.
</event>
<event>
 7    1  0.2740409E-010  0.4778727E+02  0.7816164E-02  0.1312668E+00
        -11   -1    0    0    0    0  0.00000000000E+00  0.00000000000E+00  0.45593999997E+02  0.45594000000E+02  0.51100000000E-03 0.  1.
         11   -1    0    0    0    0 -0.00000000000E+00 -0.00000000000E+00 -0.45593999997E+02  0.45594000000E+02  0.51100000000E-03 0. -1.
    9900012    2    1    2    0    0 -0.22013218545E+02  0.32455641549E+02 -0.18592276298E+02  0.47787271930E+02  0.20000004037E+02 0.  0.
        -12    1    1    2    0    0  0.22013218545E+02 -0.32455641549E+02  0.18592276298E+02  0.43400728070E+02  0.00000000000E+00 0.  1.
         11    1    3    3    0    0 -0.14009067351E+01  0.65671291352E+01 -0.11534583540E+02  0.13346772736E+02  0.51100000000E-03 0. -1.
        -11    1    3    3    0    0 -0.16108042109E+02  0.22439172949E+02 -0.78406211619E+01  0.28713426192E+02  0.51100000000E-03 0.  1.
        -12    1    3    3    0    0 -0.45042697010E+01  0.34493394653E+01  0.78292840433E+00  0.57270730022E+01  0.00000000000E+00 0.  1.
</event>
<event>
 7    1  0.2740409E-010  0.4778725E+02  0.7816164E-02  0.1312668E+00
        -11   -1    0    0    0    0  0.00000000000E+00  0.00000000000E+00  0.45593999997E+02  0.45594000000E+02  0.51100000000E-03 0.  1.
         11   -1    0    0    0    0 -0.00000000000E+00 -0.00000000000E+00 -0.45593999997E+02  0.45594000000E+02  0.51100000000E-03 0. -1.
    9900012    2    1    2    0    0 -0.27208022974E+02  0.27408947935E+02 -0.19801463256E+02  0.47787252447E+02  0.19999915208E+02 0.  0.
        -12    1    1    2    0    0  0.27208022974E+02 -0.27408947935E+02  0.19801463256E+02  0.43400747553E+02  0.00000000000E+00 0.  1.
         11    1    3    3    0    0 -0.10700665096E+02  0.15245699058E+02 -0.18430689031E+02  0.26203546930E+02  0.51100000000E-03 0. -1.
        -11    1    3    3    0    0 -0.13757583929E+02  0.12715628330E+02 -0.12791946014E+01  0.18777504054E+02  0.51100000000E-03 0.  1.
         12    1    3    3    0    0 -0.27497739485E+01 -0.55237945311E+00 -0.91579623066E-01  0.28062014638E+01  0.00000000000E+00 0. -1.
</event>
<event>
 7    1  0.2740409E-010  0.4778726E+02  0.7816164E-02  0.1312668E+00
        -11   -1    0    0    0    0  0.00000000000E+00  0.00000000000E+00  0.45593999997E+02  0.45594000000E+02  0.51100000000E-03 0.  1.
         11   -1    0    0    0    0 -0.00000000000E+00 -0.00000000000E+00 -0.45593999997E+02  0.45594000000E+02  0.51100000000E-03 0. -1.
    9900012    2    1    2    0    0  0.16481030690E+02 -0.16242618634E+01 -0.40116844368E+02  0.47787264969E+02  0.19999972298E+02 0.  0.
        -12    1    1    2    0    0 -0.16481030690E+02  0.16242618634E+01  0.40116844368E+02  0.43400735031E+02  0.00000000000E+00 0.  1.
         11    1    3    3    0    0  0.16458375689E+02 -0.63820551534E+01 -0.28394874839E+02  0.33434677742E+02  0.51100000000E-03 0. -1.
        -11    1    3    3    0    0 -0.31102096953E+01  0.25897008770E+01 -0.82884530652E+01  0.92237958269E+01  0.51100000000E-03 0.  1.
        -12    1    3    3    0    0  0.31328646967E+01  0.21680924131E+01 -0.34335164632E+01  0.51287913998E+01  0.00000000000E+00 0.  1.
</event>
<event>
 7    1  0.2740409E-010  0.4778727E+02  0.7816164E-02  0.1312668E+00
        -11   -1    0    0    0    0  0.00000000000E+00  0.00000000000E+00  0.45593999997E+02  0.45594000000E+02  0.51100000000E-03 0.  1.
         11   -1    0    0    0    0 -0.00000000000E+00 -0.00000000000E+00 -0.45593999997E+02  0.45594000000E+02  0.51100000000E-03 0. -1.
    9900012    2    1    2    0    0  0.23420273423E+01 -0.56814666740E+01 -0.42963462573E+02  0.47787271067E+02  0.20000000104E+02 0.  0.
        -12    1    1    2    0    0 -0.23420273423E+01  0.56814666740E+01  0.42963462573E+02  0.43400728933E+02  0.00000000000E+00 0.  1.
         11    1    3    3    0    0  0.39410522691E+01 -0.80595029290E+01 -0.22154035324E+02  0.23901647680E+02  0.51100000000E-03 0. -1.
        -11    1    3    3    0    0  0.58141205748E+00  0.66547766946E+01 -0.14435013849E+02  0.15905776244E+02  0.51100000000E-03 0.  1.
        -12    1    3    3    0    0 -0.21804369843E+01 -0.42767404395E+01 -0.63744134001E+01  0.79798471430E+01  0.00000000000E+00 0.  1.
</event>
<event>
 7    1  0.2740409E-010  0.4778728E+02  0.7816164E-02  0.1312668E+00
        -11   -1    0    0    0    0  0.00000000000E+00  0.00000000000E+00  0.45593999997E+02  0.45594000000E+02  0.51100000000E-03 0. -1.
         11   -1    0    0    0    0 -0.00000000000E+00 -0.00000000000E+00 -0.45593999997E+02  0.45594000000E+02  0.51100000000E-03 0.  1.
    9900012    2    1    2    0    0 -0.20943026862E+01  0.34334715947E+01  0.43213975918E+02  0.47787279435E+02  0.20000038257E+02 0.  0.
        -12    1    1    2    0    0  0.20943026862E+01 -0.34334715947E+01 -0.43213975918E+02  0.43400720565E+02  0.00000000000E+00 0.  1.
         11    1    3    3    0    0 -0.35702860824E+01 -0.40692226578E+01  0.58592300043E+01  0.79772233423E+01  0.51100000000E-03 0. -1.
        -11    1    3    3    0    0  0.26847022847E+01  0.16456351085E+01  0.15508265124E+01  0.35101003405E+01  0.51100000000E-03 0.  1.
         12    1    3    3    0    0 -0.12087188885E+01  0.58570591441E+01  0.35803919401E+02  0.36299955752E+02  0.00000000000E+00 0. -1.
</event>
<event>
 7    1  0.2740409E-010  0.4778727E+02  0.7816164E-02  0.1312668E+00
        -11   -1    0    0    0    0  0.00000000000E+00  0.00000000000E+00  0.45593999997E+02  0.45594000000E+02  0.51100000000E-03 0.  1.
         11   -1    0    0    0    0 -0.00000000000E+00 -0.00000000000E+00 -0.45593999997E+02  0.45594000000E+02  0.51100000000E-03 0. -1.
    9900012    2    1    2    0    0  0.32907073524E+02  0.13468980358E+02 -0.24886431778E+02  0.47787269517E+02  0.19999993037E+02 0.  0.
        -12    1    1    2    0    0 -0.32907073524E+02 -0.13468980358E+02  0.24886431778E+02  0.43400730483E+02  0.00000000000E+00 0.  1.
         11    1    3    3    0    0  0.18949302532E+02  0.14366995363E+02 -0.72469788339E+01  0.24859712884E+02  0.51100000000E-03 0. -1.
        -11    1    3    3    0    0  0.11741950165E+02 -0.28485795016E+00 -0.11788080244E+02  0.16640714343E+02  0.51100000000E-03 0.  1.
         12    1    3    3    0    0  0.22158208272E+01 -0.61315705505E+00 -0.58513726997E+01  0.62868422903E+01  0.00000000000E+00 0. -1.
</event>
<event>
 7    1  0.2740409E-010  0.4778727E+02  0.7816164E-02  0.1312668E+00
        -11   -1    0    0    0    0  0.00000000000E+00  0.00000000000E+00  0.45593999997E+02  0.45594000000E+02  0.51100000000E-03 0. -1.
         11   -1    0    0    0    0 -0.00000000000E+00 -0.00000000000E+00 -0.45593999997E+02  0.45594000000E+02  0.51100000000E-03 0.  1.
    9900012    2    1    2    0    0 -0.42562656293E+01  0.15203893540E+02  0.40427083621E+02  0.47787271135E+02  0.20000000413E+02 0.  0.
        -12    1    1    2    0    0  0.42562656293E+01 -0.15203893540E+02 -0.40427083621E+02  0.43400728865E+02  0.00000000000E+00 0.  1.
         11    1    3    3    0    0  0.76863440114E+00  0.85955082425E+01  0.36663635438E+02  0.37665577449E+02  0.51100000000E-03 0. -1.
        -11    1    3    3    0    0 -0.50671930349E+01  0.33560790728E+01  0.18740867188E+01  0.63601818595E+01  0.51100000000E-03 0.  1.
         12    1    3    3    0    0  0.42293004386E-01  0.32523062247E+01  0.18893614647E+01  0.37615118266E+01  0.00000000000E+00 0. -1.
</event>
<event>
 7    1  0.2740409E-010  0.4778727E+02  0.7816164E-02  0.1312668E+00
        -11   -1    0    0    0    0  0.00000000000E+00  0.00000000000E+00  0.45593999997E+02  0.45594000000E+02  0.51100000000E-03 0.  1.
         11   -1    0    0    0    0 -0.00000000000E+00 -0.00000000000E+00 -0.45593999997E+02  0.45594000000E+02  0.51100000000E-03 0. -1.
    9900012    2    1    2    0    0 -0.39094322351E+02  0.18821003411E+02 -0.10134229412E+01  0.47787271486E+02  0.20000002015E+02 0.  0.
        -12    1    1    2    0    0  0.39094322351E+02 -0.18821003411E+02  0.10134229412E+01  0.43400728514E+02  0.00000000000E+00 0.  1.
         11    1    3    3    0    0 -0.20644554592E+02  0.14727799912E+02 -0.71476986563E+01  0.26347586623E+02  0.51100000000E-03 0. -1.
        -11    1    3    3    0    0 -0.14281375631E+02  0.53709877059E+01  0.73178272734E+01  0.16922050559E+02  0.51100000000E-03 0.  1.
         12    1    3    3    0    0 -0.41683921283E+01 -0.12777842072E+01 -0.11835515583E+01  0.45176343042E+01  0.00000000000E+00 0. -1.
</event>
<event>
 7    1  0.2740409E-010  0.4778727E+02  0.7816164E-02  0.1312668E+00
        -11   -1    0    0    0    0  0.00000000000E+00  0.00000000000E+00  0.45593999997E+02  0.45594000000E+02  0.51100000000E-03 0. -1.
         11   -1    0    0    0    0 -0.00000000000E+00 -0.00000000000E+00 -0.45593999997E+02  0.45594000000E+02  0.51100000000E-03 0.  1.
    9900012    2    1    2    0    0 -0.14462047246E+02  0.90266990752E+01  0.39912299258E+02  0.47787265689E+02  0.19999975581E+02 0.  0.
        -12    1    1    2    0    0  0.14462047246E+02 -0.90266990752E+01 -0.39912299258E+02  0.43400734311E+02  0.00000000000E+00 0.  1.
         11    1    3    3    0    0 -0.92097061242E+01  0.28025723407E+01  0.26503259096E+02  0.28197443884E+02  0.51100000000E-03 0. -1.
        -11    1    3    3    0    0  0.18333112976E+01  0.16048631368E+01 -0.11945118133E+01  0.27135723198E+01  0.51100000000E-03 0.  1.
        -12    1    3    3    0    0 -0.70856524192E+01  0.46192635977E+01  0.14603551975E+02  0.16876249485E+02  0.00000000000E+00 0.  1.
</event>
<event>
 7    1  0.2740409E-010  0.4778727E+02  0.7816164E-02  0.1312668E+00
        -11   -1    0    0    0    0  0.00000000000E+00  0.00000000000E+00  0.45593999997E+02  0.45594000000E+02  0.51100000000E-03 0.  1.
         11   -1    0    0    0    0 -0.00000000000E+00 -0.00000000000E+00 -0.45593999997E+02  0.45594000000E+02  0.51100000000E-03 0. -1.
    9900012    2    1    2    0    0 -0.33045051127E+02 -0.26853417116E+02 -0.83989138082E+01  0.47787272264E+02  0.20000005562E+02 0.  0.
        -12    1    1    2    0    0  0.33045051127E+02  0.26853417116E+02  0.83989138082E+01  0.43400727736E+02  0.00000000000E+00 0.  1.
         11    1    3    3    0    0 -0.19744967370E+02 -0.11599423294E+02 -0.69165368547E+01  0.23921723172E+02  0.51100000000E-03 0. -1.
        -11    1    3    3    0    0  0.18294010706E+01 -0.41548952530E+01 -0.22887864916E+01  0.50841328372E+01  0.51100000000E-03 0.  1.
        -12    1    3    3    0    0 -0.15129484828E+02 -0.11099098569E+02  0.80640953808E+00  0.18781416255E+02  0.00000000000E+00 0.  1.
</event>
<event>
 7    1  0.2740409E-010  0.4778730E+02  0.7816164E-02  0.1312668E+00
        -11   -1    0    0    0    0  0.00000000000E+00  0.00000000000E+00  0.45593999997E+02  0.45594000000E+02  0.51100000000E-03 0. -1.
         11   -1    0    0    0    0 -0.00000000000E+00 -0.00000000000E+00 -0.45593999997E+02  0.45594000000E+02  0.51100000000E-03 0.  1.
    9900012    2    1    2    0    0  0.14884858820E+02 -0.36269253177E+02  0.18617268481E+02  0.47787303764E+02  0.20000149179E+02 0.  0.
        -12    1    1    2    0    0 -0.14884858820E+02  0.36269253177E+02 -0.18617268481E+02  0.43400696236E+02  0.00000000000E+00 0.  1.
         11    1    3    3    0    0 -0.44766647792E+01 -0.90603672278E+01  0.28509297716E+01  0.10500408691E+02  0.51100000000E-03 0. -1.
        -11    1    3    3    0    0  0.14198281594E+02 -0.21627196215E+02  0.99699995098E+01  0.27725939242E+02  0.51100000000E-03 0.  1.
        -12    1    3    3    0    0  0.51632420046E+01 -0.55816897339E+01  0.57963391995E+01  0.95609558308E+01  0.00000000000E+00 0.  1.
</event>
<event>
 7    1  0.2740409E-010  0.4778727E+02  0.7816164E-02  0.1312668E+00
        -11   -1    0    0    0    0  0.00000000000E+00  0.00000000000E+00  0.45593999997E+02  0.45594000000E+02  0.51100000000E-03 0. -1.
         11   -1    0    0    0    0 -0.00000000000E+00 -0.00000000000E+00 -0.45593999997E+02  0.45594000000E+02  0.51100000000E-03 0.  1.
    9900012    2    1    2    0    0 -0.44121130246E+01 -0.20878303608E+02 -0.37792234169E+02  0.47787271131E+02  0.20000000394E+02 0.  0.
        -12    1    1    2    0    0  0.44121130246E+01  0.20878303608E+02  0.37792234169E+02  0.43400728869E+02  0.00000000000E+00 0.  1.
         11    1    3    3    0    0 -0.25374348684E+01 -0.19599611550E+02 -0.15703652692E+02  0.25242584193E+02  0.51100000000E-03 0. -1.
        -11    1    3    3    0    0 -0.12354201315E+01  0.21279874745E+00 -0.19124055754E+02  0.19165099920E+02  0.51100000000E-03 0.  1.
         12    1    3    3    0    0 -0.63925802468E+00 -0.14914908056E+01 -0.29645257235E+01  0.33795870177E+01  0.00000000000E+00 0. -1.
</event>
<event>
 7    1  0.2740409E-010  0.4778727E+02  0.7816164E-02  0.1312668E+00
        -11   -1    0    0    0    0  0.00000000000E+00  0.00000000000E+00  0.45593999997E+02  0.45594000000E+02  0.51100000000E-03 0. -1.
         11   -1    0    0    0    0 -0.00000000000E+00 -0.00000000000E+00 -0.45593999997E+02  0.45594000000E+02  0.51100000000E-03 0.  1.
    9900012    2    1    2    0    0  0.95542497700E+01  0.10554015652E+01  0.42322872840E+02  0.47787272741E+02  0.20000007737E+02 0.  0.
        -12    1    1    2    0    0 -0.95542497700E+01 -0.10554015652E+01 -0.42322872840E+02  0.43400727259E+02  0.00000000000E+00 0.  1.
         11    1    3    3    0    0 -0.37259599138E+00  0.31073327395E+01  0.25272826075E+02  0.25465861121E+02  0.51100000000E-03 0. -1.
        -11    1    3    3    0    0  0.49842002764E+01 -0.27931560081E+01  0.13857934803E+01  0.58791493188E+01  0.51100000000E-03 0.  1.
        -12    1    3    3    0    0  0.49426454850E+01  0.74122483383E+00  0.15664253285E+02  0.16442262302E+02  0.00000000000E+00 0.  1.
</event>
<event>
 7    1  0.2740409E-010  0.4778728E+02  0.7816164E-02  0.1312668E+00
        -11   -1    0    0    0    0  0.00000000000E+00  0.00000000000E+00  0.45593999997E+02  0.45594000000E+02  0.51100000000E-03 0.  1.
         11   -1    0    0    0    0 -0.00000000000E+00 -0.00000000000E+00 -0.45593999997E+02  0.45594000000E+02  0.51100000000E-03 0. -1.
    9900012    2    1    2    0    0 -0.16042555699E+02  0.40326889568E+02 -0.26273742810E-01  0.47787282196E+02  0.20000050846E+02 0.  0.
        -12    1    1    2    0    0  0.16042555699E+02 -0.40326889568E+02  0.26273742810E-01  0.43400717804E+02  0.00000000000E+00 0.  1.
         11    1    3    3    0    0 -0.34382901483E+01  0.17526620560E+02  0.53022904728E+01  0.18631117838E+02  0.51100000000E-03 0. -1.
        -11    1    3    3    0    0 -0.68489048442E+01  0.13161900337E+02  0.30509403306E+01  0.15147651805E+02  0.51100000000E-03 0.  1.
         12    1    3    3    0    0 -0.57553607066E+01  0.96383686714E+01 -0.83795045463E+01  0.14008512553E+02  0.00000000000E+00 0. -1.
</event>
<event>
 7    1  0.2740409E-010  0.4778726E+02  0.7816164E-02  0.1312668E+00
        -11   -1    0    0    0    0  0.00000000000E+00  0.00000000000E+00  0.45593999997E+02  0.45594000000E+02  0.51100000000E-03 0.  1.
         11   -1    0    0    0    0 -0.00000000000E+00 -0.00000000000E+00 -0.45593999997E+02  0.45594000000E+02  0.51100000000E-03 0. -1.
    9900012    2    1    2    0    0  0.12493837217E+02  0.23454595319E+02 -0.34313415904E+02  0.47787256677E+02  0.19999934493E+02 0.  0.
        -12    1    1    2    0    0 -0.12493837217E+02 -0.23454595319E+02  0.34313415904E+02  0.43400743323E+02  0.00000000000E+00 0.  1.
         11    1    3    3    0    0  0.89490108351E+01  0.10158250477E+02 -0.22179778652E+02  0.25984946199E+02  0.51100000000E-03 0. -1.
        -11    1    3    3    0    0  0.22707248900E+01  0.14191691724E+02 -0.61733423942E+01  0.15641945598E+02  0.51100000000E-03 0.  1.
        -12    1    3    3    0    0  0.12741014917E+01 -0.89534688216E+00 -0.59602948582E+01  0.61603648794E+01  0.00000000000E+00 0.  1.
</event>
<event>
 7    1  0.2740409E-010  0.4778727E+02  0.7816164E-02  0.1312668E+00
        -11   -1    0    0    0    0  0.00000000000E+00  0.00000000000E+00  0.45593999997E+02  0.45594000000E+02  0.51100000000E-03 0. -1.
         11   -1    0    0    0    0 -0.00000000000E+00 -0.00000000000E+00 -0.45593999997E+02  0.45594000000E+02  0.51100000000E-03 0.  1.
    9900012    2    1    2    0    0  0.30330853771E+02  0.27359817988E+02 -0.14666389801E+02  0.47787270506E+02  0.19999997546E+02 0.  0.
        -12    1    1    2    0    0 -0.30330853771E+02 -0.27359817988E+02  0.14666389801E+02  0.43400729494E+02  0.00000000000E+00 0.  1.
         11    1    3    3    0    0  0.59195663586E+01  0.80513986600E+01 -0.19931269204E+01  0.10190134515E+02  0.51100000000E-03 0. -1.
        -11    1    3    3    0    0  0.15449016275E+02  0.19747712002E+02 -0.13689857628E+02  0.28566701512E+02  0.51100000000E-03 0.  1.
        -12    1    3    3    0    0  0.89622711372E+01 -0.43929267424E+00  0.10165947467E+01  0.90304344784E+01  0.00000000000E+00 0.  1.
</event>
<event>
 7    1  0.2740409E-010  0.4778729E+02  0.7816164E-02  0.1312668E+00
        -11   -1    0    0    0    0  0.00000000000E+00  0.00000000000E+00  0.45593999997E+02  0.45594000000E+02  0.51100000000E-03 0.  1.
         11   -1    0    0    0    0 -0.00000000000E+00 -0.00000000000E+00 -0.45593999997E+02  0.45594000000E+02  0.51100000000E-03 0. -1.
    9900012    2    1    2    0    0 -0.14968401774E+02  0.40678833077E+02 -0.21912068596E+01  0.47787286876E+02  0.20000072183E+02 0.  0.
        -12    1    1    2    0    0  0.14968401774E+02 -0.40678833077E+02  0.21912068596E+01  0.43400713124E+02  0.00000000000E+00 0.  1.
         11    1    3    3    0    0 -0.67035867413E+01  0.61951170183E+01  0.47860902652E+01  0.10306513007E+02  0.51100000000E-03 0.  1.
        -11    1    3    3    0    0 -0.88623948260E+01  0.34130479148E+02 -0.80814552993E+01  0.36176533402E+02  0.51100000000E-03 0. -1.
         12    1    3    3    0    0  0.59757979288E+00  0.35323690996E+00  0.11041581746E+01  0.13042404678E+01  0.00000000000E+00 0. -1.
</event>
<event>
 7    1  0.2740409E-010  0.4778724E+02  0.7816164E-02  0.1312668E+00
        -11   -1    0    0    0    0  0.00000000000E+00  0.00000000000E+00  0.45593999997E+02  0.45594000000E+02  0.51100000000E-03 0.  1.
         11   -1    0    0    0    0 -0.00000000000E+00 -0.00000000000E+00 -0.45593999997E+02  0.45594000000E+02  0.51100000000E-03 0. -1.
    9900012    2    1    2    0    0 -0.44105023527E+01  0.34777849770E+02 -0.25586609023E+02  0.47787240480E+02  0.19999860643E+02 0.  0.
        -12    1    1    2    0    0  0.44105023527E+01 -0.34777849770E+02  0.25586609023E+02  0.43400759520E+02  0.00000000000E+00 0.  1.
         11    1    3    3    0    0 -0.92729090343E+01  0.14303245571E+02 -0.37486763399E+01  0.17453430906E+02  0.51100000000E-03 0.  1.
        -11    1    3    3    0    0  0.32638437070E+01  0.14914607588E+02 -0.15937770564E+02  0.22070585086E+02  0.51100000000E-03 0. -1.
        -12    1    3    3    0    0  0.15985629747E+01  0.55599966110E+01 -0.59001621198E+01  0.82632244880E+01  0.00000000000E+00 0.  1.
</event>
<event>
 7    1  0.2740409E-010  0.4778727E+02  0.7816164E-02  0.1312668E+00
        -11   -1    0    0    0    0  0.00000000000E+00  0.00000000000E+00  0.45593999997E+02  0.45594000000E+02  0.51100000000E-03 0.  1.
         11   -1    0    0    0    0 -0.00000000000E+00 -0.00000000000E+00 -0.45593999997E+02  0.45594000000E+02  0.51100000000E-03 0. -1.
    9900012    2    1    2    0    0  0.10825638141E+02 -0.66697945161E+01 -0.41496297992E+02  0.47787270201E+02  0.19999996154E+02 0.  0.
        -12    1    1    2    0    0 -0.10825638141E+02  0.66697945161E+01  0.41496297992E+02  0.43400729799E+02  0.00000000000E+00 0.  1.
         11    1    3    3    0    0  0.99805501669E+00 -0.11327065446E+02 -0.15161271389E+02  0.18951587686E+02  0.51100000000E-03 0. -1.
        -11    1    3    3    0    0  0.20738070388E+01  0.51282772942E+00 -0.18709131266E+01  0.28397154968E+01  0.51100000000E-03 0.  1.
         12    1    3    3    0    0  0.77537760859E+01  0.41444432001E+01 -0.24464113476E+02  0.25995967018E+02  0.00000000000E+00 0. -1.
</event>
<event>
 7    1  0.2740409E-010  0.4778727E+02  0.7816164E-02  0.1312668E+00
        -11   -1    0    0    0    0  0.00000000000E+00  0.00000000000E+00  0.45593999997E+02  0.45594000000E+02  0.51100000000E-03 0.  1.
         11   -1    0    0    0    0 -0.00000000000E+00 -0.00000000000E+00 -0.45593999997E+02  0.45594000000E+02  0.51100000000E-03 0. -1.
    9900012    2    1    2    0    0 -0.81818060418E+01 -0.99083999829E+01 -0.41454853770E+02  0.47787271418E+02  0.20000001703E+02 0.  0.
        -12    1    1    2    0    0  0.81818060418E+01  0.99083999829E+01  0.41454853770E+02  0.43400728582E+02  0.00000000000E+00 0.  1.
         11    1    3    3    0    0 -0.88263374874E+01 -0.68624025380E+01 -0.29665131423E+02  0.31702000326E+02  0.51100000000E-03 0. -1.
        -11    1    3    3    0    0 -0.16057712062E+01 -0.26564431672E+01  0.86802882578E+00  0.32231453227E+01  0.51100000000E-03 0.  1.
        -12    1    3    3    0    0  0.22503026518E+01 -0.38955427764E+00 -0.12657751173E+02  0.12862125770E+02  0.00000000000E+00 0.  1.
</event>
<event>
 7    1  0.2740409E-010  0.4778727E+02  0.7816164E-02  0.1312668E+00
        -11   -1    0    0    0    0  0.00000000000E+00  0.00000000000E+00  0.45593999997E+02  0.45594000000E+02  0.51100000000E-03 0. -1.
         11   -1    0    0    0    0 -0.00000000000E+00 -0.00000000000E+00 -0.45593999997E+02  0.45594000000E+02  0.51100000000E-03 0.  1.
    9900012    2    1    2    0    0 -0.31678866819E+02 -0.61011333241E+01  0.29031858468E+02  0.47787271470E+02  0.20000001940E+02 0.  0.
        -12    1    1    2    0    0  0.31678866819E+02  0.61011333241E+01 -0.29031858468E+02  0.43400728530E+02  0.00000000000E+00 0.  1.
         11    1    3    3    0    0 -0.27902450117E+02 -0.80811416479E+01  0.27350287541E+02  0.39898493727E+02  0.51100000000E-03 0. -1.
        -11    1    3    3    0    0 -0.32290387049E+01  0.42606033946E+01  0.14023880993E+01  0.55268548820E+01  0.51100000000E-03 0.  1.
        -12    1    3    3    0    0 -0.54737799711E+00 -0.22805950708E+01  0.27918282861E+00  0.23619228609E+01  0.00000000000E+00 0.  1.
</event>
<event>
 7    1  0.2740409E-010  0.4778730E+02  0.7816164E-02  0.1312668E+00
        -11   -1    0    0    0    0  0.00000000000E+00  0.00000000000E+00  0.45593999997E+02  0.45594000000E+02  0.51100000000E-03 0.  1.
         11   -1    0    0    0    0 -0.00000000000E+00 -0.00000000000E+00 -0.45593999997E+02  0.45594000000E+02  0.51100000000E-03 0. -1.
    9900012    2    1    2    0    0 -0.27741530601E+02  0.89996595369E+01 -0.32140858265E+02  0.47787295376E+02  0.20000110937E+02 0.  0.
        -12    1    1    2    0    0  0.27741530601E+02 -0.89996595369E+01  0.32140858265E+02  0.43400704624E+02  0.00000000000E+00 0.  1.
         11    1    3    3    0    0 -0.20652138674E+02  0.50069138271E+01 -0.17467682703E+02  0.27508179823E+02  0.51100000000E-03 0. -1.
        -11    1    3    3    0    0  0.77768501244E+00  0.24327054543E+01  0.94402731541E+00  0.27228730487E+01  0.51100000000E-03 0.  1.
        -12    1    3    3    0    0 -0.78670769390E+01  0.15600402554E+01 -0.15617202877E+02  0.17556242505E+02  0.00000000000E+00 0.  1.
</event>
<event>
 7    1  0.2740409E-010  0.4778727E+02  0.7816164E-02  0.1312668E+00
        -11   -1    0    0    0    0  0.00000000000E+00  0.00000000000E+00  0.45593999997E+02  0.45594000000E+02  0.51100000000E-03 0.  1.
         11   -1    0    0    0    0 -0.00000000000E+00 -0.00000000000E+00 -0.45593999997E+02  0.45594000000E+02  0.51100000000E-03 0. -1.
    9900012    2    1    2    0    0  0.30822669446E+02  0.24888421810E+02 -0.17724353993E+02  0.47787271706E+02  0.20000003016E+02 0.  0.
        -12    1    1    2    0    0 -0.30822669446E+02 -0.24888421810E+02  0.17724353993E+02  0.43400728294E+02  0.00000000000E+00 0.  1.
         11    1    3    3    0    0  0.15831060304E+02  0.20772509712E+02 -0.12968153240E+02  0.29159777585E+02  0.51100000000E-03 0. -1.
        -11    1    3    3    0    0  0.12835149086E+02  0.66765294793E+01 -0.27565797051E+01  0.14728062665E+02  0.51100000000E-03 0.  1.
         12    1    3    3    0    0  0.21564600557E+01 -0.25606173805E+01 -0.19996210481E+01  0.38994314557E+01  0.00000000000E+00 0. -1.
</event>
<event>
 7    1  0.2740409E-010  0.4778727E+02  0.7816164E-02  0.1312668E+00
        -11   -1    0    0    0    0  0.00000000000E+00  0.00000000000E+00  0.45593999997E+02  0.45594000000E+02  0.51100000000E-03 0.  1.
         11   -1    0    0    0    0 -0.00000000000E+00 -0.00000000000E+00 -0.45593999997E+02  0.45594000000E+02  0.51100000000E-03 0. -1.
    9900012    2    1    2    0    0 -0.17114520984E+02  0.33448437208E+02 -0.21723684091E+02  0.47787271542E+02  0.20000002271E+02 0.  0.
        -12    1    1    2    0    0  0.17114520984E+02 -0.33448437208E+02  0.21723684091E+02  0.43400728458E+02  0.00000000000E+00 0.  1.
         11    1    3    3    0    0 -0.12410914268E+02  0.19611566956E+02 -0.34396464286E+01  0.23462214713E+02  0.51100000000E-03 0. -1.
        -11    1    3    3    0    0 -0.57144194940E+01  0.74491614021E+01 -0.12612757647E+02  0.15723430016E+02  0.51100000000E-03 0.  1.
         12    1    3    3    0    0  0.10108127777E+01  0.63877088496E+01 -0.56712800160E+01  0.86016268135E+01  0.00000000000E+00 0. -1.
</event>
<event>
 7    1  0.2740409E-010  0.4778727E+02  0.7816164E-02  0.1312668E+00
        -11   -1    0    0    0    0  0.00000000000E+00  0.00000000000E+00  0.45593999997E+02  0.45594000000E+02  0.51100000000E-03 0.  1.
         11   -1    0    0    0    0 -0.00000000000E+00 -0.00000000000E+00 -0.45593999997E+02  0.45594000000E+02  0.51100000000E-03 0. -1.
    9900012    2    1    2    0    0 -0.13155241402E+02 -0.31467537250E+02 -0.26839468308E+02  0.47787270328E+02  0.19999996736E+02 0.  0.
        -12    1    1    2    0    0  0.13155241402E+02  0.31467537250E+02  0.26839468308E+02  0.43400729672E+02  0.00000000000E+00 0.  1.
         11    1    3    3    0    0 -0.93532132912E+01 -0.13554246442E+02 -0.54738054545E+01  0.17354041083E+02  0.51100000000E-03 0. -1.
        -11    1    3    3    0    0 -0.17780571235E+01 -0.15722988526E+02 -0.22268087250E+02  0.27317422378E+02  0.51100000000E-03 0.  1.
        -12    1    3    3    0    0 -0.20239709878E+01 -0.21903022822E+01  0.90242439669E+00  0.31158068680E+01  0.00000000000E+00 0.  1.
</event>
<event>
 7    1  0.2740409E-010  0.4778727E+02  0.7816164E-02  0.1312668E+00
        -11   -1    0    0    0    0  0.00000000000E+00  0.00000000000E+00  0.45593999997E+02  0.45594000000E+02  0.51100000000E-03 0.  1.
         11   -1    0    0    0    0 -0.00000000000E+00 -0.00000000000E+00 -0.45593999997E+02  0.45594000000E+02  0.51100000000E-03 0. -1.
    9900012    2    1    2    0    0  0.53664624239E+01  0.23336672108E+02 -0.36197017963E+02  0.47787270819E+02  0.19999998973E+02 0.  0.
        -12    1    1    2    0    0 -0.53664624239E+01 -0.23336672108E+02  0.36197017963E+02  0.43400729181E+02  0.00000000000E+00 0.  1.
         11    1    3    3    0    0  0.18509323166E+01  0.72061369160E+01  0.93241453316E-01  0.74406353172E+01  0.51100000000E-03 0. -1.
        -11    1    3    3    0    0  0.99640915809E+00  0.20559897363E+00 -0.59396713989E+00  0.11780914110E+01  0.51100000000E-03 0.  1.
         12    1    3    3    0    0  0.25191209492E+01  0.15924936218E+02 -0.35696292277E+02  0.39168544091E+02  0.00000000000E+00 0. -1.
</event>
<event>
 7    1  0.2740409E-010  0.4778727E+02  0.7816164E-02  0.1312668E+00
        -11   -1    0    0    0    0  0.00000000000E+00  0.00000000000E+00  0.45593999997E+02  0.45594000000E+02  0.51100000000E-03 0. -1.
         11   -1    0    0    0    0 -0.00000000000E+00 -0.00000000000E+00 -0.45593999997E+02  0.45594000000E+02  0.51100000000E-03 0.  1.
    9900012    2    1    2    0    0 -0.39896467017E+02  0.45815012088E+01  0.16459194872E+02  0.47787270403E+02  0.19999997075E+02 0.  0.
        -12    1    1    2    0    0  0.39896467017E+02 -0.45815012088E+01 -0.16459194872E+02  0.43400729597E+02  0.00000000000E+00 0.  1.
         11    1    3    3    0    0 -0.22494322701E+02  0.10120335416E+02  0.36863057802E+01  0.24940019913E+02  0.51100000000E-03 0. -1.
        -11    1    3    3    0    0 -0.15885747399E+02 -0.32818688062E+01  0.10793740066E+02  0.19484159160E+02  0.51100000000E-03 0.  1.
         12    1    3    3    0    0 -0.15163969165E+01 -0.22569654006E+01  0.19791490258E+01  0.33630913300E+01  0.00000000000E+00 0. -1.
</event>
<event>
 7    1  0.2740409E-010  0.4778728E+02  0.7816164E-02  0.1312668E+00
        -11   -1    0    0    0    0  0.00000000000E+00  0.00000000000E+00  0.45593999997E+02  0.45594000000E+02  0.51100000000E-03 0.  1.
         11   -1    0    0    0    0 -0.00000000000E+00 -0.00000000000E+00 -0.45593999997E+02  0.45594000000E+02  0.51100000000E-03 0. -1.
    9900012    2    1    2    0    0  0.26318046148E+01 -0.19936752014E+02 -0.38460660122E+02  0.47787275888E+02  0.20000022085E+02 0.  0.
        -12    1    1    2    0    0 -0.26318046148E+01  0.19936752014E+02  0.38460660122E+02  0.43400724112E+02  0.00000000000E+00 0.  1.
         11    1    3    3    0    0 -0.11193810044E+01 -0.68316750839E+00 -0.15020979005E+02  0.15078114677E+02  0.51100000000E-03 0. -1.
        -11    1    3    3    0    0  0.52469619196E+01 -0.20002617852E+02 -0.19475705157E+02  0.28406661577E+02  0.51100000000E-03 0.  1.
        -12    1    3    3    0    0 -0.14957763004E+01  0.74903334654E+00 -0.39639759595E+01  0.43024996342E+01  0.00000000000E+00 0.  1.
</event>
<event>
 7    1  0.2740409E-010  0.4778727E+02  0.7816164E-02  0.1312668E+00
        -11   -1    0    0    0    0  0.00000000000E+00  0.00000000000E+00  0.45593999997E+02  0.45594000000E+02  0.51100000000E-03 0.  1.
         11   -1    0    0    0    0 -0.00000000000E+00 -0.00000000000E+00 -0.45593999997E+02  0.45594000000E+02  0.51100000000E-03 0. -1.
    9900012    2    1    2    0    0 -0.18175510818E+02 -0.22608774585E+02 -0.32281845355E+02  0.47787269346E+02  0.19999992258E+02 0.  0.
        -12    1    1    2    0    0  0.18175510818E+02  0.22608774585E+02  0.32281845355E+02  0.43400730654E+02  0.00000000000E+00 0.  1.
         11    1    3    3    0    0 -0.78974909164E+01 -0.60976792274E+01 -0.21298595723E+02  0.23519826419E+02  0.51100000000E-03 0. -1.
        -11    1    3    3    0    0 -0.57069802203E+01 -0.20867693018E+01 -0.54304089393E+01  0.81494521817E+01  0.51100000000E-03 0.  1.
         12    1    3    3    0    0 -0.45710396812E+01 -0.14424326056E+02 -0.55528406930E+01  0.16117990746E+02  0.00000000000E+00 0. -1.
</event>
<event>
 7    1  0.2740409E-010  0.4778727E+02  0.7816164E-02  0.1312668E+00
        -11   -1    0    0    0    0  0.00000000000E+00  0.00000000000E+00  0.45593999997E+02  0.45594000000E+02  0.51100000000E-03 0. -1.
         11   -1    0    0    0    0 -0.00000000000E+00 -0.00000000000E+00 -0.45593999997E+02  0.45594000000E+02  0.51100000000E-03 0.  1.
    9900012    2    1    2    0    0  0.32444548064E+02 -0.11459389113E+02  0.26451034588E+02  0.47787268108E+02  0.19999986613E+02 0.  0.
        -12    1    1    2    0    0 -0.32444548064E+02  0.11459389113E+02 -0.26451034588E+02  0.43400731892E+02  0.00000000000E+00 0.  1.
         11    1    3    3    0    0  0.25009464115E+02 -0.35295060573E+01  0.13461311512E+02  0.28620580291E+02  0.51100000000E-03 0. -1.
        -11    1    3    3    0    0  0.64665563907E+01 -0.36192842644E+01  0.25607229849E+01  0.78404638005E+01  0.51100000000E-03 0.  1.
         12    1    3    3    0    0  0.96852755919E+00 -0.43105987915E+01  0.10429000091E+02  0.11326224017E+02  0.00000000000E+00 0. -1.
</event>
<event>
 7    1  0.2740409E-010  0.4778727E+02  0.7816164E-02  0.1312668E+00
        -11   -1    0    0    0    0  0.00000000000E+00  0.00000000000E+00  0.45593999997E+02  0.45594000000E+02  0.51100000000E-03 0. -1.
         11   -1    0    0    0    0 -0.00000000000E+00 -0.00000000000E+00 -0.45593999997E+02  0.45594000000E+02  0.51100000000E-03 0.  1.
    9900012    2    1    2    0    0  0.14532914111E+02 -0.39810907162E+02 -0.93546393665E+01  0.47787271904E+02  0.20000003918E+02 0.  0.
        -12    1    1    2    0    0 -0.14532914111E+02  0.39810907162E+02  0.93546393665E+01  0.43400728096E+02  0.00000000000E+00 0.  1.
         11    1    3    3    0    0  0.71149822603E+01 -0.26030453088E+02  0.14209288038E+01  0.27022703408E+02  0.51100000000E-03 0. -1.
        -11    1    3    3    0    0  0.29800471174E+01 -0.90568311189E+01 -0.10632951842E+02  0.14281685330E+02  0.51100000000E-03 0.  1.
        -12    1    3    3    0    0  0.44378847332E+01 -0.47236229547E+01 -0.14261632859E+00  0.64828831658E+01  0.00000000000E+00 0.  1.
</event>
<event>
 7    1  0.2740409E-010  0.4778725E+02  0.7816164E-02  0.1312668E+00
        -11   -1    0    0    0    0  0.00000000000E+00  0.00000000000E+00  0.45593999997E+02  0.45594000000E+02  0.51100000000E-03 0.  1.
         11   -1    0    0    0    0 -0.00000000000E+00 -0.00000000000E+00 -0.45593999997E+02  0.45594000000E+02  0.51100000000E-03 0. -1.
    9900012    2    1    2    0    0  0.34067937264E+02  0.24057621525E+02 -0.12009652576E+02  0.47787248188E+02  0.19999895787E+02 0.  0.
        -12    1    1    2    0    0 -0.34067937264E+02 -0.24057621525E+02  0.12009652576E+02  0.43400751812E+02  0.00000000000E+00 0.  1.
         11    1    3    3    0    0  0.31007838212E+02  0.16365982411E+02 -0.80041880452E+01  0.35963849035E+02  0.51100000000E-03 0. -1.
        -11    1    3    3    0    0  0.39266973532E+01  0.63115018087E+00 -0.99874283411E+00  0.41005841247E+01  0.51100000000E-03 0.  1.
         12    1    3    3    0    0 -0.86659830185E+00  0.70604889335E+01 -0.30067216972E+01  0.77228150283E+01  0.00000000000E+00 0. -1.
</event>
<event>
 7    1  0.2740409E-010  0.4778727E+02  0.7816164E-02  0.1312668E+00
        -11   -1    0    0    0    0  0.00000000000E+00  0.00000000000E+00  0.45593999997E+02  0.45594000000E+02  0.51100000000E-03 0. -1.
         11   -1    0    0    0    0 -0.00000000000E+00 -0.00000000000E+00 -0.45593999997E+02  0.45594000000E+02  0.51100000000E-03 0.  1.
    9900012    2    1    2    0    0  0.26087353352E+02  0.32601969871E+02 -0.11839961987E+02  0.47787272538E+02  0.20000006810E+02 0.  0.
        -12    1    1    2    0    0 -0.26087353352E+02 -0.32601969871E+02  0.11839961987E+02  0.43400727462E+02  0.00000000000E+00 0.  1.
         11    1    3    3    0    0  0.53746954903E+01  0.77895191421E+01 -0.40593086322E+01  0.10297667062E+02  0.51100000000E-03 0. -1.
        -11    1    3    3    0    0  0.21713550962E+02  0.20671660512E+02 -0.11223868524E+02  0.32012045680E+02  0.51100000000E-03 0.  1.
        -12    1    3    3    0    0 -0.10008931007E+01  0.41407902175E+01  0.34432151694E+01  0.54775597967E+01  0.00000000000E+00 0.  1.
</event>
<event>
 7    1  0.2740409E-010  0.4778727E+02  0.7816164E-02  0.1312668E+00
        -11   -1    0    0    0    0  0.00000000000E+00  0.00000000000E+00  0.45593999997E+02  0.45594000000E+02  0.51100000000E-03 0.  1.
         11   -1    0    0    0    0 -0.00000000000E+00 -0.00000000000E+00 -0.45593999997E+02  0.45594000000E+02  0.51100000000E-03 0. -1.
    9900012    2    1    2    0    0  0.18624954100E+02  0.35801071788E+02 -0.15969271585E+02  0.47787270843E+02  0.19999999080E+02 0.  0.
        -12    1    1    2    0    0 -0.18624954100E+02 -0.35801071788E+02  0.15969271585E+02  0.43400729157E+02  0.00000000000E+00 0.  1.
         11    1    3    3    0    0 -0.24948876284E+01  0.11240687130E+02 -0.54831497885E+00  0.11527278994E+02  0.51100000000E-03 0. -1.
        -11    1    3    3    0    0  0.12143247662E+01  0.55261949573E+00 -0.17703070661E+01  0.22167454329E+01  0.51100000000E-03 0.  1.
         12    1    3    3    0    0  0.19905516963E+02  0.24007765163E+02 -0.13650649540E+02  0.34043246416E+02  0.00000000000E+00 0. -1.
</event>
<event>
 7    1  0.2740409E-010  0.4778727E+02  0.7816164E-02  0.1312668E+00
        -11   -1    0    0    0    0  0.00000000000E+00  0.00000000000E+00  0.45593999997E+02  0.45594000000E+02  0.51100000000E-03 0.  1.
         11   -1    0    0    0    0 -0.00000000000E+00 -0.00000000000E+00 -0.45593999997E+02  0.45594000000E+02  0.51100000000E-03 0. -1.
    9900012    2    1    2    0    0 -0.36570153542E+02  0.11800138137E+02 -0.20174337937E+02  0.47787270728E+02  0.19999998557E+02 0.  0.
        -12    1    1    2    0    0  0.36570153542E+02 -0.11800138137E+02  0.20174337937E+02  0.43400729272E+02  0.00000000000E+00 0.  1.
         11    1    3    3    0    0 -0.29133890282E+02  0.68066419738E+01 -0.12785204928E+02  0.32535755766E+02  0.51100000000E-03 0. -1.
        -11    1    3    3    0    0 -0.87750207991E+00 -0.18469191698E+01  0.12761607246E+01  0.24103333330E+01  0.51100000000E-03 0.  1.
        -12    1    3    3    0    0 -0.65587611802E+01  0.68404153329E+01 -0.86652937339E+01  0.12841181629E+02  0.00000000000E+00 0.  1.
</event>
<event>
 7    1  0.2740409E-010  0.4778727E+02  0.7816164E-02  0.1312668E+00
        -11   -1    0    0    0    0  0.00000000000E+00  0.00000000000E+00  0.45593999997E+02  0.45594000000E+02  0.51100000000E-03 0.  1.
         11   -1    0    0    0    0 -0.00000000000E+00 -0.00000000000E+00 -0.45593999997E+02  0.45594000000E+02  0.51100000000E-03 0. -1.
    9900012    2    1    2    0    0 -0.21623730325E+02 -0.10657124263E+02 -0.36089654584E+02  0.47787272141E+02  0.20000004998E+02 0.  0.
        -12    1    1    2    0    0  0.21623730325E+02  0.10657124263E+02  0.36089654584E+02  0.43400727859E+02  0.00000000000E+00 0.  1.
         11    1    3    3    0    0 -0.90905633480E+01 -0.10194956087E+02 -0.20403370142E+02  0.24553471955E+02  0.51100000000E-03 0. -1.
        -11    1    3    3    0    0 -0.68067200401E+01  0.34657615470E+01 -0.20142906072E+01  0.78993865405E+01  0.51100000000E-03 0.  1.
        -12    1    3    3    0    0 -0.57264469366E+01 -0.39279297223E+01 -0.13671993835E+02  0.15334413645E+02  0.00000000000E+00 0.  1.
</event>
<event>
 7    1  0.2740409E-010  0.4778727E+02  0.7816164E-02  0.1312668E+00
        -11   -1    0    0    0    0  0.00000000000E+00  0.00000000000E+00  0.45593999997E+02  0.45594000000E+02  0.51100000000E-03 0.  1.
         11   -1    0    0    0    0 -0.00000000000E+00 -0.00000000000E+00 -0.45593999997E+02  0.45594000000E+02  0.51100000000E-03 0. -1.
    9900012    2    1    2    0    0 -0.17914745031E+02  0.41955125366E+01 -0.39307539538E+02  0.47787273284E+02  0.20000010212E+02 0.  0.
        -12    1    1    2    0    0  0.17914745031E+02 -0.41955125366E+01  0.39307539538E+02  0.43400726716E+02  0.00000000000E+00 0.  1.
         11    1    3    3    0    0  0.21844615800E+01 -0.85854325913E+00 -0.26837102424E+01  0.35652867835E+01  0.51100000000E-03 0.  1.
        -11    1    3    3    0    0 -0.13116377196E+02  0.96237005565E+01 -0.21666493711E+02  0.27094130603E+02  0.51100000000E-03 0. -1.
        -12    1    3    3    0    0 -0.69828294142E+01 -0.45696447608E+01 -0.14957335584E+02  0.17127855897E+02  0.00000000000E+00 0.  1.
</event>
<event>
 7    1  0.2740409E-010  0.4778727E+02  0.7816164E-02  0.1312668E+00
        -11   -1    0    0    0    0  0.00000000000E+00  0.00000000000E+00  0.45593999997E+02  0.45594000000E+02  0.51100000000E-03 0. -1.
         11   -1    0    0    0    0 -0.00000000000E+00 -0.00000000000E+00 -0.45593999997E+02  0.45594000000E+02  0.51100000000E-03 0.  1.
    9900012    2    1    2    0    0 -0.21261147568E+02 -0.13963491972E+02  0.35165436127E+02  0.47787269569E+02  0.19999993273E+02 0.  0.
        -12    1    1    2    0    0  0.21261147568E+02  0.13963491972E+02 -0.35165436127E+02  0.43400730431E+02  0.00000000000E+00 0.  1.
         11    1    3    3    0    0 -0.14463993711E+02  0.40978313033E+00  0.18465494296E+02  0.23459529325E+02  0.51100000000E-03 0. -1.
        -11    1    3    3    0    0 -0.43042241106E-01 -0.69296150170E+01  0.35789295805E+01  0.77993688284E+01  0.51100000000E-03 0.  1.
         12    1    3    3    0    0 -0.67541116159E+01 -0.74436600855E+01  0.13121012250E+02  0.16528371416E+02  0.00000000000E+00 0. -1.
</event>
<event>
 7    1  0.2740409E-010  0.4778727E+02  0.7816164E-02  0.1312668E+00
        -11   -1    0    0    0    0  0.00000000000E+00  0.00000000000E+00  0.45593999997E+02  0.45594000000E+02  0.51100000000E-03 0.  1.
         11   -1    0    0    0    0 -0.00000000000E+00 -0.00000000000E+00 -0.45593999997E+02  0.45594000000E+02  0.51100000000E-03 0. -1.
    9900012    2    1    2    0    0 -0.26205028618E+02 -0.19975254973E+02 -0.28247282485E+02  0.47787270698E+02  0.19999998422E+02 0.  0.
        -12    1    1    2    0    0  0.26205028618E+02  0.19975254973E+02  0.28247282485E+02  0.43400729302E+02  0.00000000000E+00 0.  1.
         11    1    3    3    0    0 -0.13793941004E+02 -0.18249160330E+02 -0.21315506044E+02  0.31267482459E+02  0.51100000000E-03 0. -1.
        -11    1    3    3    0    0 -0.56640551879E+01  0.58654740000E+00  0.10771706487E+01  0.57953305248E+01  0.51100000000E-03 0.  1.
        -12    1    3    3    0    0 -0.67470324265E+01 -0.23126420433E+01 -0.80089470892E+01  0.10724457714E+02  0.00000000000E+00 0.  1.
</event>
<event>
 7    1  0.2740409E-010  0.4778728E+02  0.7816164E-02  0.1312668E+00
        -11   -1    0    0    0    0  0.00000000000E+00  0.00000000000E+00  0.45593999997E+02  0.45594000000E+02  0.51100000000E-03 0.  1.
         11   -1    0    0    0    0 -0.00000000000E+00 -0.00000000000E+00 -0.45593999997E+02  0.45594000000E+02  0.51100000000E-03 0. -1.
    9900012    2    1    2    0    0 -0.18899324854E+02  0.37558412673E+02  0.10761220179E+02  0.47787277630E+02  0.20000030026E+02 0.  0.
        -12    1    1    2    0    0  0.18899324854E+02 -0.37558412673E+02 -0.10761220179E+02  0.43400722370E+02  0.00000000000E+00 0.  1.
         11    1    3    3    0    0  0.98073088369E+00  0.47530429038E+01 -0.99165667250E+00  0.49534465909E+01  0.51100000000E-03 0. -1.
        -11    1    3    3    0    0 -0.81204911377E+01  0.26069466630E+02  0.10383894439E+02  0.29212749454E+02  0.51100000000E-03 0.  1.
        -12    1    3    3    0    0 -0.11759564600E+02  0.67359031394E+01  0.13689824120E+01  0.13621081585E+02  0.00000000000E+00 0.  1.
</event>
<event>
 7    1  0.2740409E-010  0.4778727E+02  0.7816164E-02  0.1312668E+00
        -11   -1    0    0    0    0  0.00000000000E+00  0.00000000000E+00  0.45593999997E+02  0.45594000000E+02  0.51100000000E-03 0. -1.
         11   -1    0    0    0    0 -0.00000000000E+00 -0.00000000000E+00 -0.45593999997E+02  0.45594000000E+02  0.51100000000E-03 0.  1.
    9900012    2    1    2    0    0  0.12242209763E+02  0.41498032953E+02  0.34153872548E+01  0.47787270640E+02  0.19999998157E+02 0.  0.
        -12    1    1    2    0    0 -0.12242209763E+02 -0.41498032953E+02 -0.34153872548E+01  0.43400729360E+02  0.00000000000E+00 0.  1.
         11    1    3    3    0    0 -0.12669172669E+01  0.62408299573E+00  0.10216220374E+01  0.17430636234E+01  0.51100000000E-03 0. -1.
        -11    1    3    3    0    0  0.85668492859E+01  0.86970826570E+01 -0.40427638577E+01  0.12859785896E+02  0.51100000000E-03 0.  1.
        -12    1    3    3    0    0  0.49422777444E+01  0.32176867300E+02  0.64365290751E+01  0.33184421120E+02  0.00000000000E+00 0.  1.
</event>
<event>
 7    1  0.2740409E-010  0.4778727E+02  0.7816164E-02  0.1312668E+00
        -11   -1    0    0    0    0  0.00000000000E+00  0.00000000000E+00  0.45593999997E+02  0.45594000000E+02  0.51100000000E-03 0.  1.
         11   -1    0    0    0    0 -0.00000000000E+00 -0.00000000000E+00 -0.45593999997E+02  0.45594000000E+02  0.51100000000E-03 0. -1.
    9900012    2    1    2    0    0 -0.17792719697E+02 -0.36964382064E+02 -0.14166052174E+02  0.47787269018E+02  0.19999990762E+02 0.  0.
        -12    1    1    2    0    0  0.17792719697E+02  0.36964382064E+02  0.14166052174E+02  0.43400730982E+02  0.00000000000E+00 0.  1.
         11    1    3    3    0    0 -0.35469958810E+01 -0.19338006369E+02 -0.11707758263E+02  0.22882553920E+02  0.51100000000E-03 0. -1.
        -11    1    3    3    0    0 -0.15270615357E+02 -0.16619736311E+02 -0.38598292304E+01  0.22897720637E+02  0.51100000000E-03 0.  1.
        -12    1    3    3    0    0  0.10248915408E+01 -0.10066393840E+01  0.14015353186E+01  0.20069944616E+01  0.00000000000E+00 0.  1.
</event>
<event>
 7    1  0.2740409E-010  0.4778727E+02  0.7816164E-02  0.1312668E+00
        -11   -1    0    0    0    0  0.00000000000E+00  0.00000000000E+00  0.45593999997E+02  0.45594000000E+02  0.51100000000E-03 0. -1.
         11   -1    0    0    0    0 -0.00000000000E+00 -0.00000000000E+00 -0.45593999997E+02  0.45594000000E+02  0.51100000000E-03 0.  1.
    9900012    2    1    2    0    0 -0.30504216091E+02  0.25549681142E+02  0.17330028340E+02  0.47787270881E+02  0.19999999256E+02 0.  0.
        -12    1    1    2    0    0  0.30504216091E+02 -0.25549681142E+02 -0.17330028340E+02  0.43400729119E+02  0.00000000000E+00 0.  1.
         11    1    3    3    0    0 -0.12639499997E+02  0.21914526176E+01  0.61804224744E+01  0.14239278317E+02  0.51100000000E-03 0.  1.
        -11    1    3    3    0    0 -0.10825137616E+02  0.18206407874E+02  0.12686678263E+02  0.24690255116E+02  0.51100000000E-03 0. -1.
        -12    1    3    3    0    0 -0.70395784772E+01  0.51518206506E+01 -0.15370723975E+01  0.88577374485E+01  0.00000000000E+00 0.  1.
</event>
<event>
 7    1  0.2740409E-010  0.4778727E+02  0.7816164E-02  0.1312668E+00
        -11   -1    0    0    0    0  0.00000000000E+00  0.00000000000E+00  0.45593999997E+02  0.45594000000E+02  0.51100000000E-03 0.  1.
         11   -1    0    0    0    0 -0.00000000000E+00 -0.00000000000E+00 -0.45593999997E+02  0.45594000000E+02  0.51100000000E-03 0. -1.
    9900012    2    1    2    0    0  0.39768875709E+02  0.11714624415E+02  0.12838508640E+02  0.47787271845E+02  0.20000003649E+02 0.  0.
        -12    1    1    2    0    0 -0.39768875709E+02 -0.11714624415E+02 -0.12838508640E+02  0.43400728155E+02  0.00000000000E+00 0.  1.
         11    1    3    3    0    0  0.14786134294E+02  0.12020026706E+02  0.10667831323E+02  0.21838347803E+02  0.51100000000E-03 0.  1.
        -11    1    3    3    0    0  0.22721920857E+02 -0.35733255576E+00  0.39575345093E+01  0.23066760797E+02  0.51100000000E-03 0. -1.
        -12    1    3    3    0    0  0.22608205572E+01  0.51930264415E-01 -0.17868571921E+01  0.28821632448E+01  0.00000000000E+00 0.  1.
</event>
<event>
 7    1  0.2740409E-010  0.4778727E+02  0.7816164E-02  0.1312668E+00
        -11   -1    0    0    0    0  0.00000000000E+00  0.00000000000E+00  0.45593999997E+02  0.45594000000E+02  0.51100000000E-03 0. -1.
         11   -1    0    0    0    0 -0.00000000000E+00 -0.00000000000E+00 -0.45593999997E+02  0.45594000000E+02  0.51100000000E-03 0.  1.
    9900012    2    1    2    0    0  0.18546480013E+02 -0.37534954725E+02  0.11435851116E+02  0.47787269156E+02  0.19999991388E+02 0.  0.
        -12    1    1    2    0    0 -0.18546480013E+02  0.37534954725E+02 -0.11435851116E+02  0.43400730844E+02  0.00000000000E+00 0.  1.
         11    1    3    3    0    0  0.70955578051E+00 -0.70984996384E+01  0.61605547296E+01  0.94257414222E+01  0.51100000000E-03 0. -1.
        -11    1    3    3    0    0  0.14474329861E+02 -0.25035553226E+02 -0.16396967828E+01  0.28965043692E+02  0.51100000000E-03 0.  1.
        -12    1    3    3    0    0  0.33625943709E+01 -0.54009018607E+01  0.69149931690E+01  0.93964840413E+01  0.00000000000E+00 0.  1.
</event>
<event>
 7    1  0.2740409E-010  0.4778726E+02  0.7816164E-02  0.1312668E+00
        -11   -1    0    0    0    0  0.00000000000E+00  0.00000000000E+00  0.45593999997E+02  0.45594000000E+02  0.51100000000E-03 0. -1.
         11   -1    0    0    0    0 -0.00000000000E+00 -0.00000000000E+00 -0.45593999997E+02  0.45594000000E+02  0.51100000000E-03 0.  1.
    9900012    2    1    2    0    0  0.38684983717E+02  0.15803587374E+02  0.11719330304E+02  0.47787262197E+02  0.19999959661E+02 0.  0.
        -12    1    1    2    0    0 -0.38684983717E+02 -0.15803587374E+02 -0.11719330304E+02  0.43400737803E+02  0.00000000000E+00 0.  1.
         11    1    3    3    0    0  0.25607145283E+02  0.14809934780E+02  0.16444019860E+02  0.33844731454E+02  0.51100000000E-03 0. -1.
        -11    1    3    3    0    0  0.63968151837E+01  0.37207496810E+00 -0.22808408166E+01  0.68014645017E+01  0.51100000000E-03 0.  1.
         12    1    3    3    0    0  0.66810232496E+01  0.62157762677E+00 -0.24438487393E+01  0.71410662417E+01  0.00000000000E+00 0. -1.
</event>
<event>
 7    1  0.2740409E-010  0.4778727E+02  0.7816164E-02  0.1312668E+00
        -11   -1    0    0    0    0  0.00000000000E+00  0.00000000000E+00  0.45593999997E+02  0.45594000000E+02  0.51100000000E-03 0.  1.
         11   -1    0    0    0    0 -0.00000000000E+00 -0.00000000000E+00 -0.45593999997E+02  0.45594000000E+02  0.51100000000E-03 0. -1.
    9900012    2    1    2    0    0 -0.28516294341E+02  0.15147499596E+02 -0.28999951218E+02  0.47787274688E+02  0.20000016613E+02 0.  0.
        -12    1    1    2    0    0  0.28516294341E+02 -0.15147499596E+02  0.28999951218E+02  0.43400725312E+02  0.00000000000E+00 0.  1.
         11    1    3    3    0    0 -0.18209530095E+02  0.15879472320E+02 -0.26583372663E+02  0.35922420991E+02  0.51100000000E-03 0. -1.
        -11    1    3    3    0    0 -0.62510218244E+01  0.14700090903E+01  0.44126090801E+00  0.64366848630E+01  0.51100000000E-03 0.  1.
         12    1    3    3    0    0 -0.40557424210E+01 -0.22019818143E+01 -0.28578394630E+01  0.54281688342E+01  0.00000000000E+00 0. -1.
</event>
<event>
 7    1  0.2740409E-010  0.4778727E+02  0.7816164E-02  0.1312668E+00
        -11   -1    0    0    0    0  0.00000000000E+00  0.00000000000E+00  0.45593999997E+02  0.45594000000E+02  0.51100000000E-03 0. -1.
         11   -1    0    0    0    0 -0.00000000000E+00 -0.00000000000E+00 -0.45593999997E+02  0.45594000000E+02  0.51100000000E-03 0.  1.
    9900012    2    1    2    0    0  0.13386105105E+02  0.16558718214E+02  0.37818573151E+02  0.47787269201E+02  0.19999991594E+02 0.  0.
        -12    1    1    2    0    0 -0.13386105105E+02 -0.16558718214E+02 -0.37818573151E+02  0.43400730799E+02  0.00000000000E+00 0.  1.
         11    1    3    3    0    0  0.12993326452E+02  0.18052236642E+02  0.28669934342E+02  0.36286015426E+02  0.51100000000E-03 0. -1.
        -11    1    3    3    0    0 -0.21785391627E+01  0.17486648426E+01  0.42885946721E+01  0.51181936401E+01  0.51100000000E-03 0.  1.
         12    1    3    3    0    0  0.25713178154E+01 -0.32421832711E+01  0.48600441364E+01  0.63830601343E+01  0.00000000000E+00 0. -1.
</event>
<event>
 7    1  0.2740409E-010  0.4778727E+02  0.7816164E-02  0.1312668E+00
        -11   -1    0    0    0    0  0.00000000000E+00  0.00000000000E+00  0.45593999997E+02  0.45594000000E+02  0.51100000000E-03 0.  1.
         11   -1    0    0    0    0 -0.00000000000E+00 -0.00000000000E+00 -0.45593999997E+02  0.45594000000E+02  0.51100000000E-03 0. -1.
    9900012    2    1    2    0    0 -0.33208969882E+02  0.27664613212E+02  0.39314701292E+01  0.47787274635E+02  0.20000016372E+02 0.  0.
        -12    1    1    2    0    0  0.33208969882E+02 -0.27664613212E+02 -0.39314701292E+01  0.43400725365E+02  0.00000000000E+00 0.  1.
         11    1    3    3    0    0 -0.84896797764E+01  0.44303355238E+00  0.19210623606E+01  0.87155850227E+01  0.51100000000E-03 0. -1.
        -11    1    3    3    0    0 -0.21395582645E+02  0.25003672347E+02  0.59710576287E+01  0.33445599367E+02  0.51100000000E-03 0.  1.
        -12    1    3    3    0    0 -0.33237074614E+01  0.22179073121E+01 -0.39606498602E+01  0.56260902454E+01  0.00000000000E+00 0.  1.
</event>
<event>
 7    1  0.2740409E-010  0.4778727E+02  0.7816164E-02  0.1312668E+00
        -11   -1    0    0    0    0  0.00000000000E+00  0.00000000000E+00  0.45593999997E+02  0.45594000000E+02  0.51100000000E-03 0.  1.
         11   -1    0    0    0    0 -0.00000000000E+00 -0.00000000000E+00 -0.45593999997E+02  0.45594000000E+02  0.51100000000E-03 0. -1.
    9900012    2    1    2    0    0  0.14904336364E+02  0.30529263907E+02 -0.27008296714E+02  0.47787270876E+02  0.19999999232E+02 0.  0.
        -12    1    1    2    0    0 -0.14904336364E+02 -0.30529263907E+02  0.27008296714E+02  0.43400729124E+02  0.00000000000E+00 0.  1.
         11    1    3    3    0    0 -0.28474653130E+00  0.12153055480E+01 -0.40993054160E+01  0.42851316569E+01  0.51100000000E-03 0. -1.
        -11    1    3    3    0    0  0.14340267741E+02  0.17511654614E+02 -0.70329707494E+01  0.23701561215E+02  0.51100000000E-03 0.  1.
        -12    1    3    3    0    0  0.84881515361E+00  0.11802303744E+02 -0.15876020548E+02  0.19800578004E+02  0.00000000000E+00 0.  1.
</event>
<event>
 7    1  0.2740409E-010  0.4778727E+02  0.7816164E-02  0.1312668E+00
        -11   -1    0    0    0    0  0.00000000000E+00  0.00000000000E+00  0.45593999997E+02  0.45594000000E+02  0.51100000000E-03 0. -1.
         11   -1    0    0    0    0 -0.00000000000E+00 -0.00000000000E+00 -0.45593999997E+02  0.45594000000E+02  0.51100000000E-03 0.  1.
    9900012    2    1    2    0    0  0.33190477179E+02  0.27088128612E+02 -0.69461321831E+01  0.47787271442E+02  0.20000001812E+02 0.  0.
        -12    1    1    2    0    0 -0.33190477179E+02 -0.27088128612E+02  0.69461321831E+01  0.43400728558E+02  0.00000000000E+00 0.  1.
         11    1    3    3    0    0  0.23901759199E+02  0.15276613629E+02 -0.71550007068E+01  0.29255137192E+02  0.51100000000E-03 0. -1.
        -11    1    3    3    0    0 -0.21689173645E+01  0.10887569354E+01  0.13873848015E+01  0.27954303867E+01  0.51100000000E-03 0.  1.
        -12    1    3    3    0    0  0.11457635344E+02  0.10722758048E+02 -0.11785162779E+01  0.15736703863E+02  0.00000000000E+00 0.  1.
</event>
<event>
 7    1  0.2740409E-010  0.4778728E+02  0.7816164E-02  0.1312668E+00
        -11   -1    0    0    0    0  0.00000000000E+00  0.00000000000E+00  0.45593999997E+02  0.45594000000E+02  0.51100000000E-03 0.  1.
         11   -1    0    0    0    0 -0.00000000000E+00 -0.00000000000E+00 -0.45593999997E+02  0.45594000000E+02  0.51100000000E-03 0. -1.
    9900012    2    1    2    0    0 -0.23376380582E+02  0.32875742990E+02 -0.16011021738E+02  0.47787280382E+02  0.20000042574E+02 0.  0.
        -12    1    1    2    0    0  0.23376380582E+02 -0.32875742990E+02  0.16011021738E+02  0.43400719618E+02  0.00000000000E+00 0.  1.
         11    1    3    3    0    0 -0.56405937743E+01  0.85888316545E+01  0.42851375547E+01  0.11133136640E+02  0.51100000000E-03 0. -1.
        -11    1    3    3    0    0 -0.11691124012E+02  0.19639272599E+02 -0.16032416698E+02  0.27918126626E+02  0.51100000000E-03 0.  1.
        -12    1    3    3    0    0 -0.60446627954E+01  0.46476387370E+01 -0.42637425950E+01  0.87360171163E+01  0.00000000000E+00 0.  1.
</event>
<event>
 7    1  0.2740409E-010  0.4778727E+02  0.7816164E-02  0.1312668E+00
        -11   -1    0    0    0    0  0.00000000000E+00  0.00000000000E+00  0.45593999997E+02  0.45594000000E+02  0.51100000000E-03 0. -1.
         11   -1    0    0    0    0 -0.00000000000E+00 -0.00000000000E+00 -0.45593999997E+02  0.45594000000E+02  0.51100000000E-03 0.  1.
    9900012    2    1    2    0    0 -0.43311840277E+02 -0.23833620890E+01 -0.14238533665E+01  0.47787270957E+02  0.19999999602E+02 0.  0.
        -12    1    1    2    0    0  0.43311840277E+02  0.23833620890E+01  0.14238533665E+01  0.43400729043E+02  0.00000000000E+00 0.  1.
         11    1    3    3    0    0 -0.19642844764E+02 -0.17374976540E+01  0.11901039407E+01  0.19755419413E+02  0.51100000000E-03 0. -1.
        -11    1    3    3    0    0 -0.22685293802E+01  0.50225450667E+01  0.99787594485E+00  0.56007089871E+01  0.51100000000E-03 0.  1.
        -12    1    3    3    0    0 -0.21400466133E+02 -0.56684095018E+01 -0.36118332521E+01  0.22431142557E+02  0.00000000000E+00 0.  1.
</event>
<event>
 7    1  0.2740409E-010  0.4778727E+02  0.7816164E-02  0.1312668E+00
        -11   -1    0    0    0    0  0.00000000000E+00  0.00000000000E+00  0.45593999997E+02  0.45594000000E+02  0.51100000000E-03 0. -1.
         11   -1    0    0    0    0 -0.00000000000E+00 -0.00000000000E+00 -0.45593999997E+02  0.45594000000E+02  0.51100000000E-03 0.  1.
    9900012    2    1    2    0    0 -0.18947270392E+02 -0.38935221940E+02 -0.29449051281E+01  0.47787273865E+02  0.20000012861E+02 0.  0.
        -12    1    1    2    0    0  0.18947270392E+02  0.38935221940E+02  0.29449051281E+01  0.43400726135E+02  0.00000000000E+00 0.  1.
         11    1    3    3    0    0 -0.48271949811E+01 -0.79571760905E+01 -0.12227940202E+01  0.93868891651E+01  0.51100000000E-03 0. -1.
        -11    1    3    3    0    0 -0.92341089780E+01 -0.31632840445E+02 -0.35478353400E+01  0.33143513680E+02  0.51100000000E-03 0.  1.
        -12    1    3    3    0    0 -0.48859664329E+01  0.65479459525E+00  0.18257242321E+01  0.52568710196E+01  0.00000000000E+00 0.  1.
</event>
<event>
 7    1  0.2740409E-010  0.4778727E+02  0.7816164E-02  0.1312668E+00
        -11   -1    0    0    0    0  0.00000000000E+00  0.00000000000E+00  0.45593999997E+02  0.45594000000E+02  0.51100000000E-03 0.  1.
         11   -1    0    0    0    0 -0.00000000000E+00 -0.00000000000E+00 -0.45593999997E+02  0.45594000000E+02  0.51100000000E-03 0. -1.
    9900012    2    1    2    0    0  0.39868323711E+02 -0.17142648908E+02  0.51916637085E+00  0.47787272117E+02  0.20000004889E+02 0.  0.
        -12    1    1    2    0    0 -0.39868323711E+02  0.17142648908E+02 -0.51916637085E+00  0.43400727883E+02  0.00000000000E+00 0.  1.
         11    1    3    3    0    0  0.21049285309E+02 -0.12586994224E+02 -0.51384338297E+01  0.25058099251E+02  0.51100000000E-03 0. -1.
        -11    1    3    3    0    0  0.13322958788E+02  0.17540736676E+01  0.19571854162E+01  0.13579712085E+02  0.51100000000E-03 0.  1.
        -12    1    3    3    0    0  0.54960796135E+01 -0.63097283521E+01  0.37004147844E+01  0.91494607804E+01  0.00000000000E+00 0.  1.
</event>
<event>
 7    1  0.2740409E-010  0.4778727E+02  0.7816164E-02  0.1312668E+00
        -11   -1    0    0    0    0  0.00000000000E+00  0.00000000000E+00  0.45593999997E+02  0.45594000000E+02  0.51100000000E-03 0. -1.
         11   -1    0    0    0    0 -0.00000000000E+00 -0.00000000000E+00 -0.45593999997E+02  0.45594000000E+02  0.51100000000E-03 0.  1.
    9900012    2    1    2    0    0 -0.15957967826E+01 -0.29894212358E+02  0.31423120861E+02  0.47787273917E+02  0.20000013096E+02 0.  0.
        -12    1    1    2    0    0  0.15957967826E+01  0.29894212358E+02 -0.31423120861E+02  0.43400726083E+02  0.00000000000E+00 0.  1.
         11    1    3    3    0    0  0.39229589538E+01 -0.13853551735E+02  0.24140986575E+02  0.28108677232E+02  0.51100000000E-03 0. -1.
        -11    1    3    3    0    0 -0.40083505772E-01 -0.25907156392E+01 -0.12050061486E+01  0.28575259037E+01  0.51100000000E-03 0.  1.
         12    1    3    3    0    0 -0.54786722306E+01 -0.13449944984E+02  0.84871404350E+01  0.16821070781E+02  0.00000000000E+00 0. -1.
</event>
<event>
 7    1  0.2740409E-010  0.4778726E+02  0.7816164E-02  0.1312668E+00
        -11   -1    0    0    0    0  0.00000000000E+00  0.00000000000E+00  0.45593999997E+02  0.45594000000E+02  0.51100000000E-03 0. -1.
         11   -1    0    0    0    0 -0.00000000000E+00 -0.00000000000E+00 -0.45593999997E+02  0.45594000000E+02  0.51100000000E-03 0.  1.
    9900012    2    1    2    0    0 -0.46362668850E+01 -0.19525719972E+02  0.38482148569E+02  0.47787257270E+02  0.19999937197E+02 0.  0.
        -12    1    1    2    0    0  0.46362668850E+01  0.19525719972E+02 -0.38482148569E+02  0.43400742730E+02  0.00000000000E+00 0.  1.
         11    1    3    3    0    0 -0.19184824557E+01 -0.14356295485E+02  0.24730207933E+02  0.28659500688E+02  0.51100000000E-03 0. -1.
        -11    1    3    3    0    0 -0.33248095320E+01 -0.32768941010E+01 -0.53902438005E+00  0.46992489737E+01  0.51100000000E-03 0.  1.
         12    1    3    3    0    0  0.60702510271E+00 -0.18925303857E+01  0.14290965016E+02  0.14428507609E+02  0.00000000000E+00 0. -1.
</event>
<event>
 7    1  0.2740409E-010  0.4778730E+02  0.7816164E-02  0.1312668E+00
        -11   -1    0    0    0    0  0.00000000000E+00  0.00000000000E+00  0.45593999997E+02  0.45594000000E+02  0.51100000000E-03 0.  1.
         11   -1    0    0    0    0 -0.00000000000E+00 -0.00000000000E+00 -0.45593999997E+02  0.45594000000E+02  0.51100000000E-03 0. -1.
    9900012    2    1    2    0    0 -0.41722089798E+02 -0.10249544272E+02 -0.61509885072E+01  0.47787301912E+02  0.20000140739E+02 0.  0.
        -12    1    1    2    0    0  0.41722089798E+02  0.10249544272E+02  0.61509885072E+01  0.43400698088E+02  0.00000000000E+00 0.  1.
         11    1    3    3    0    0  0.67005211470E-01  0.16950163604E+01  0.22527066918E+01  0.28199747979E+01  0.51100000000E-03 0.  1.
        -11    1    3    3    0    0 -0.37984489747E+02 -0.82494839348E+01 -0.72754515775E+01  0.39545007807E+02  0.51100000000E-03 0. -1.
        -12    1    3    3    0    0 -0.38046052625E+01 -0.36950766978E+01 -0.11282436216E+01  0.54223193078E+01  0.00000000000E+00 0.  1.
</event>
<event>
 7    1  0.2740409E-010  0.4778727E+02  0.7816164E-02  0.1312668E+00
        -11   -1    0    0    0    0  0.00000000000E+00  0.00000000000E+00  0.45593999997E+02  0.45594000000E+02  0.51100000000E-03 0.  1.
         11   -1    0    0    0    0 -0.00000000000E+00 -0.00000000000E+00 -0.45593999997E+02  0.45594000000E+02  0.51100000000E-03 0. -1.
    9900012    2    1    2    0    0  0.14133173326E+02 -0.44584204760E+01 -0.40792146812E+02  0.47787270249E+02  0.19999996372E+02 0.  0.
        -12    1    1    2    0    0 -0.14133173326E+02  0.44584204760E+01  0.40792146812E+02  0.43400729751E+02  0.00000000000E+00 0.  1.
         11    1    3    3    0    0  0.58946357317E+01 -0.84789096929E+01 -0.35851885518E+02  0.37309467102E+02  0.51100000000E-03 0. -1.
        -11    1    3    3    0    0  0.49582020448E+01  0.29780335473E+01 -0.28140639646E+01  0.64320609126E+01  0.51100000000E-03 0.  1.
         12    1    3    3    0    0  0.32803355496E+01  0.10424556695E+01 -0.21261973299E+01  0.40457422343E+01  0.00000000000E+00 0. -1.
</event>
<event>
 7    1  0.2740409E-010  0.4778727E+02  0.7816164E-02  0.1312668E+00
        -11   -1    0    0    0    0  0.00000000000E+00  0.00000000000E+00  0.45593999997E+02  0.45594000000E+02  0.51100000000E-03 0.  1.
         11   -1    0    0    0    0 -0.00000000000E+00 -0.00000000000E+00 -0.45593999997E+02  0.45594000000E+02  0.51100000000E-03 0. -1.
    9900012    2    1    2    0    0 -0.11203686795E+02  0.28952580139E+02 -0.30329013456E+02  0.47787267843E+02  0.19999985404E+02 0.  0.
        -12    1    1    2    0    0  0.11203686795E+02 -0.28952580139E+02  0.30329013456E+02  0.43400732157E+02  0.00000000000E+00 0.  1.
         11    1    3    3    0    0  0.14132985779E+01 -0.40090557144E+00 -0.90319736769E+01  0.91506659271E+01  0.51100000000E-03 0. -1.
        -11    1    3    3    0    0 -0.76220255635E+01  0.22130805914E+02 -0.16418981487E+02  0.28591096471E+02  0.51100000000E-03 0.  1.
        -12    1    3    3    0    0 -0.49949598092E+01  0.72226797972E+01 -0.48780582922E+01  0.10045505445E+02  0.00000000000E+00 0.  1.
</event>
<event>
 7    1  0.2740409E-010  0.4778727E+02  0.7816164E-02  0.1312668E+00
        -11   -1    0    0    0    0  0.00000000000E+00  0.00000000000E+00  0.45593999997E+02  0.45594000000E+02  0.51100000000E-03 0.  1.
         11   -1    0    0    0    0 -0.00000000000E+00 -0.00000000000E+00 -0.45593999997E+02  0.45594000000E+02  0.51100000000E-03 0. -1.
    9900012    2    1    2    0    0  0.22036619304E+02  0.17070459893E+02 -0.33265749939E+02  0.47787270625E+02  0.19999998086E+02 0.  0.
        -12    1    1    2    0    0 -0.22036619304E+02 -0.17070459893E+02  0.33265749939E+02  0.43400729375E+02  0.00000000000E+00 0.  1.
         11    1    3    3    0    0  0.21416774654E+02  0.14780903135E+02 -0.20651500930E+02  0.33221044911E+02  0.51100000000E-03 0. -1.
        -11    1    3    3    0    0 -0.24191716390E+00  0.20229773518E+01 -0.13286138122E+02  0.13441444407E+02  0.51100000000E-03 0.  1.
        -12    1    3    3    0    0  0.86176181460E+00  0.26657940632E+00  0.67188911424E+00  0.11247813062E+01  0.00000000000E+00 0.  1.
</event>
<event>
 7    1  0.2740409E-010  0.4778727E+02  0.7816164E-02  0.1312668E+00
        -11   -1    0    0    0    0  0.00000000000E+00  0.00000000000E+00  0.45593999997E+02  0.45594000000E+02  0.51100000000E-03 0.  1.
         11   -1    0    0    0    0 -0.00000000000E+00 -0.00000000000E+00 -0.45593999997E+02  0.45594000000E+02  0.51100000000E-03 0. -1.
    9900012    2    1    2    0    0 -0.45633080243E+01  0.19327840485E+01 -0.43116861110E+02  0.47787272514E+02  0.20000006702E+02 0.  0.
        -12    1    1    2    0    0  0.45633080243E+01 -0.19327840485E+01  0.43116861110E+02  0.43400727486E+02  0.00000000000E+00 0.  1.
         11    1    3    3    0    0  0.52561989477E+01 -0.24223964094E+01 -0.10648773197E+02  0.12119901097E+02  0.51100000000E-03 0. -1.
        -11    1    3    3    0    0  0.14901704284E+01 -0.84591790846E+00 -0.14503791044E+01  0.22449465074E+01  0.51100000000E-03 0.  1.
         12    1    3    3    0    0 -0.11309677400E+02  0.52010983663E+01 -0.31017708808E+02  0.33422424909E+02  0.00000000000E+00 0. -1.
</event>
<event>
 7    1  0.2740409E-010  0.4778728E+02  0.7816164E-02  0.1312668E+00
        -11   -1    0    0    0    0  0.00000000000E+00  0.00000000000E+00  0.45593999997E+02  0.45594000000E+02  0.51100000000E-03 0. -1.
         11   -1    0    0    0    0 -0.00000000000E+00 -0.00000000000E+00 -0.45593999997E+02  0.45594000000E+02  0.51100000000E-03 0.  1.
    9900012    2    1    2    0    0  0.37909356180E+02 -0.36603368352E+01  0.20811177928E+02  0.47787280208E+02  0.20000041780E+02 0.  0.
        -12    1    1    2    0    0 -0.37909356180E+02  0.36603368352E+01 -0.20811177928E+02  0.43400719792E+02  0.00000000000E+00 0.  1.
         11    1    3    3    0    0  0.14790838757E+02  0.49944702856E+01  0.15938687128E+02  0.22310432362E+02  0.51100000000E-03 0. -1.
        -11    1    3    3    0    0  0.11595392333E+02 -0.48236469752E+01  0.44579991421E+01  0.13326456773E+02  0.51100000000E-03 0.  1.
         12    1    3    3    0    0  0.11523125089E+02 -0.38311601456E+01  0.41449165818E+00  0.12150391073E+02  0.00000000000E+00 0. -1.
</event>
<event>
 7    1  0.2740409E-010  0.4778727E+02  0.7816164E-02  0.1312668E+00
        -11   -1    0    0    0    0  0.00000000000E+00  0.00000000000E+00  0.45593999997E+02  0.45594000000E+02  0.51100000000E-03 0.  1.
         11   -1    0    0    0    0 -0.00000000000E+00 -0.00000000000E+00 -0.45593999997E+02  0.45594000000E+02  0.51100000000E-03 0. -1.
    9900012    2    1    2    0    0  0.63431569636E+01 -0.28425781096E+01 -0.42840486336E+02  0.47787272355E+02  0.20000005976E+02 0.  0.
        -12    1    1    2    0    0 -0.63431569636E+01  0.28425781096E+01  0.42840486336E+02  0.43400727645E+02  0.00000000000E+00 0.  1.
         11    1    3    3    0    0  0.15324727366E+01 -0.83106673908E+01 -0.16752246698E+02  0.18763087029E+02  0.51100000000E-03 0. -1.
        -11    1    3    3    0    0 -0.58690138841E+00  0.69756444066E+01 -0.16405368847E+02  0.17836484950E+02  0.51100000000E-03 0.  1.
        -12    1    3    3    0    0  0.53975856154E+01 -0.15075551255E+01 -0.96828707914E+01  0.11187700376E+02  0.00000000000E+00 0.  1.
</event>
<event>
 7    1  0.2740409E-010  0.4778727E+02  0.7816164E-02  0.1312668E+00
        -11   -1    0    0    0    0  0.00000000000E+00  0.00000000000E+00  0.45593999997E+02  0.45594000000E+02  0.51100000000E-03 0.  1.
         11   -1    0    0    0    0 -0.00000000000E+00 -0.00000000000E+00 -0.45593999997E+02  0.45594000000E+02  0.51100000000E-03 0. -1.
    9900012    2    1    2    0    0 -0.21434115647E+02  0.15212347968E+02 -0.34536739328E+02  0.47787271807E+02  0.20000003479E+02 0.  0.
        -12    1    1    2    0    0  0.21434115647E+02 -0.15212347968E+02  0.34536739328E+02  0.43400728193E+02  0.00000000000E+00 0.  1.
         11    1    3    3    0    0 -0.78141186873E+01  0.80162759554E+01 -0.21001103778E+02  0.23798476657E+02  0.51100000000E-03 0. -1.
        -11    1    3    3    0    0  0.14056125999E+01 -0.12714932049E+01  0.24645041591E+00  0.19113293331E+01  0.51100000000E-03 0.  1.
        -12    1    3    3    0    0 -0.15025609559E+02  0.84675652172E+01 -0.13782085966E+02  0.22077465817E+02  0.00000000000E+00 0.  1.
</event>
<event>
 7    1  0.2740409E-010  0.4778728E+02  0.7816164E-02  0.1312668E+00
        -11   -1    0    0    0    0  0.00000000000E+00  0.00000000000E+00  0.45593999997E+02  0.45594000000E+02  0.51100000000E-03 0.  1.
         11   -1    0    0    0    0 -0.00000000000E+00 -0.00000000000E+00 -0.45593999997E+02  0.45594000000E+02  0.51100000000E-03 0. -1.
    9900012    2    1    2    0    0  0.11336275829E+02  0.41727084304E+02 -0.37365066399E+01  0.47787283462E+02  0.20000056615E+02 0.  0.
        -12    1    1    2    0    0 -0.11336275829E+02 -0.41727084304E+02  0.37365066399E+01  0.43400716538E+02  0.00000000000E+00 0.  1.
         11    1    3    3    0    0  0.30195316942E+01  0.26269202724E+02 -0.85493742370E+01  0.27789933133E+02  0.51100000000E-03 0. -1.
        -11    1    3    3    0    0  0.67439716394E+01  0.85992305880E+01  0.65613076637E+01  0.12746712466E+02  0.51100000000E-03 0.  1.
        -12    1    3    3    0    0  0.15727724951E+01  0.68586509915E+01 -0.17484400666E+01  0.72506378624E+01  0.00000000000E+00 0.  1.
</event>
<event>
 7    1  0.2740409E-010  0.4778727E+02  0.7816164E-02  0.1312668E+00
        -11   -1    0    0    0    0  0.00000000000E+00  0.00000000000E+00  0.45593999997E+02  0.45594000000E+02  0.51100000000E-03 0.  1.
         11   -1    0    0    0    0 -0.00000000000E+00 -0.00000000000E+00 -0.45593999997E+02  0.45594000000E+02  0.51100000000E-03 0. -1.
    9900012    2    1    2    0    0 -0.97874470835E+01 -0.33809448735E+02 -0.25391936617E+02  0.47787269714E+02  0.19999993934E+02 0.  0.
        -12    1    1    2    0    0  0.97874470835E+01  0.33809448735E+02  0.25391936617E+02  0.43400730286E+02  0.00000000000E+00 0.  1.
         11    1    3    3    0    0  0.34937929959E+01 -0.58308031313E+01 -0.80150073809E+01  0.10509291043E+02  0.51100000000E-03 0. -1.
        -11    1    3    3    0    0 -0.78430290247E+01 -0.23774896591E+02 -0.93841224879E+01  0.26736128503E+02  0.51100000000E-03 0.  1.
        -12    1    3    3    0    0 -0.54382110548E+01 -0.42037490121E+01 -0.79928067486E+01  0.10541850167E+02  0.00000000000E+00 0.  1.
</event>
<event>
 7    1  0.2740409E-010  0.4778727E+02  0.7816164E-02  0.1312668E+00
        -11   -1    0    0    0    0  0.00000000000E+00  0.00000000000E+00  0.45593999997E+02  0.45594000000E+02  0.51100000000E-03 0.  1.
         11   -1    0    0    0    0 -0.00000000000E+00 -0.00000000000E+00 -0.45593999997E+02  0.45594000000E+02  0.51100000000E-03 0. -1.
    9900012    2    1    2    0    0 -0.23398391219E+02 -0.19513154992E+02 -0.30909147218E+02  0.47787270616E+02  0.19999998045E+02 0.  0.
        -12    1    1    2    0    0  0.23398391219E+02  0.19513154992E+02  0.30909147218E+02  0.43400729384E+02  0.00000000000E+00 0.  1.
         11    1    3    3    0    0 -0.11550475082E+02 -0.33655671250E+01 -0.22538655099E+02  0.25548610346E+02  0.51100000000E-03 0. -1.
        -11    1    3    3    0    0 -0.70672781221E+01 -0.13205858937E+02 -0.57487500408E+01  0.16043355559E+02  0.51100000000E-03 0.  1.
         12    1    3    3    0    0 -0.47806380151E+01 -0.29417289304E+01 -0.26217420780E+01  0.61953047104E+01  0.00000000000E+00 0. -1.
</event>
<event>
 7    1  0.2740409E-010  0.4778727E+02  0.7816164E-02  0.1312668E+00
        -11   -1    0    0    0    0  0.00000000000E+00  0.00000000000E+00  0.45593999997E+02  0.45594000000E+02  0.51100000000E-03 0.  1.
         11   -1    0    0    0    0 -0.00000000000E+00 -0.00000000000E+00 -0.45593999997E+02  0.45594000000E+02  0.51100000000E-03 0. -1.
    9900012    2    1    2    0    0  0.31654302078E+02 -0.59985572499E+01 -0.29079993759E+02  0.47787267678E+02  0.19999984649E+02 0.  0.
        -12    1    1    2    0    0 -0.31654302078E+02  0.59985572499E+01  0.29079993759E+02  0.43400732322E+02  0.00000000000E+00 0.  1.
         11    1    3    3    0    0  0.61302096456E+01  0.48139861918E+01 -0.94042155631E+01  0.12214466995E+02  0.51100000000E-03 0. -1.
        -11    1    3    3    0    0 -0.92955434599E-02  0.11267003376E+01  0.11400328183E+00  0.11324915308E+01  0.51100000000E-03 0.  1.
         12    1    3    3    0    0  0.25533387976E+02 -0.11939243779E+02 -0.19789781477E+02  0.34440309152E+02  0.00000000000E+00 0. -1.
</event>
<event>
 7    1  0.2740409E-010  0.4778728E+02  0.7816164E-02  0.1312668E+00
        -11   -1    0    0    0    0  0.00000000000E+00  0.00000000000E+00  0.45593999997E+02  0.45594000000E+02  0.51100000000E-03 0.  1.
         11   -1    0    0    0    0 -0.00000000000E+00 -0.00000000000E+00 -0.45593999997E+02  0.45594000000E+02  0.51100000000E-03 0. -1.
    9900012    2    1    2    0    0 -0.31012379559E+02  0.25289783807E+02 -0.16801233838E+02  0.47787282156E+02  0.20000050661E+02 0.  0.
        -12    1    1    2    0    0  0.31012379559E+02 -0.25289783807E+02  0.16801233838E+02  0.43400717844E+02  0.00000000000E+00 0.  1.
         11    1    3    3    0    0 -0.15488887171E+02  0.96954692314E+01 -0.16470668233E+02  0.24600623197E+02  0.51100000000E-03 0. -1.
        -11    1    3    3    0    0 -0.14511805325E+02  0.10595162279E+02  0.70604423627E+00  0.17981892454E+02  0.51100000000E-03 0.  1.
        -12    1    3    3    0    0 -0.10116870631E+01  0.49991522966E+01 -0.10366098412E+01  0.52047665040E+01  0.00000000000E+00 0.  1.
</event>
<event>
 7    1  0.2740409E-010  0.4778729E+02  0.7816164E-02  0.1312668E+00
        -11   -1    0    0    0    0  0.00000000000E+00  0.00000000000E+00  0.45593999997E+02  0.45594000000E+02  0.51100000000E-03 0.  1.
         11   -1    0    0    0    0 -0.00000000000E+00 -0.00000000000E+00 -0.45593999997E+02  0.45594000000E+02  0.51100000000E-03 0. -1.
    9900012    2    1    2    0    0  0.35373377019E+02 -0.89629666335E+01 -0.23494912973E+02  0.47787291386E+02  0.20000092746E+02 0.  0.
        -12    1    1    2    0    0 -0.35373377019E+02  0.89629666335E+01  0.23494912973E+02  0.43400708614E+02  0.00000000000E+00 0.  1.
         11    1    3    3    0    0  0.10816972730E+02 -0.25883652260E+01 -0.19703519225E+01  0.11295522146E+02  0.51100000000E-03 0. -1.
        -11    1    3    3    0    0  0.13394231490E+01 -0.43457408295E+00 -0.96392766346E+01  0.97415893624E+01  0.51100000000E-03 0.  1.
        -12    1    3    3    0    0  0.23216981139E+02 -0.59400273246E+01 -0.11885284416E+02  0.26750179878E+02  0.00000000000E+00 0.  1.
</event>
<event>
 7    1  0.2740409E-010  0.4778727E+02  0.7816164E-02  0.1312668E+00
        -11   -1    0    0    0    0  0.00000000000E+00  0.00000000000E+00  0.45593999997E+02  0.45594000000E+02  0.51100000000E-03 0.  1.
         11   -1    0    0    0    0 -0.00000000000E+00 -0.00000000000E+00 -0.45593999997E+02  0.45594000000E+02  0.51100000000E-03 0. -1.
    9900012    2    1    2    0    0 -0.25980057498E+02 -0.16891608565E+02 -0.30386403610E+02  0.47787270147E+02  0.19999995906E+02 0.  0.
        -12    1    1    2    0    0  0.25980057498E+02  0.16891608565E+02  0.30386403610E+02  0.43400729853E+02  0.00000000000E+00 0.  1.
         11    1    3    3    0    0 -0.19474592331E+02 -0.92644100310E+01 -0.75704056225E+01  0.22856073181E+02  0.51100000000E-03 0. -1.
        -11    1    3    3    0    0 -0.43775707655E+01 -0.49600081625E+01 -0.14253231377E+02  0.15713669582E+02  0.51100000000E-03 0.  1.
         12    1    3    3    0    0 -0.21278944010E+01 -0.26671903711E+01 -0.85627666104E+01  0.92175273844E+01  0.00000000000E+00 0. -1.
</event>
<event>
 7    1  0.2740409E-010  0.4778728E+02  0.7816164E-02  0.1312668E+00
        -11   -1    0    0    0    0  0.00000000000E+00  0.00000000000E+00  0.45593999997E+02  0.45594000000E+02  0.51100000000E-03 0.  1.
         11   -1    0    0    0    0 -0.00000000000E+00 -0.00000000000E+00 -0.45593999997E+02  0.45594000000E+02  0.51100000000E-03 0. -1.
    9900012    2    1    2    0    0 -0.37867991309E+02  0.17971955268E+02 -0.11253732570E+02  0.47787280666E+02  0.20000043870E+02 0.  0.
        -12    1    1    2    0    0  0.37867991309E+02 -0.17971955268E+02  0.11253732570E+02  0.43400719334E+02  0.00000000000E+00 0.  1.
         11    1    3    3    0    0 -0.28198924737E+02  0.42373111839E+01 -0.96119879712E+01  0.30091933726E+02  0.51100000000E-03 0. -1.
        -11    1    3    3    0    0 -0.85915290349E+01  0.12250976627E+02 -0.31851804848E+01  0.15298567725E+02  0.51100000000E-03 0.  1.
        -12    1    3    3    0    0 -0.10775375376E+01  0.14836674571E+01  0.15434358861E+01  0.23967792144E+01  0.00000000000E+00 0.  1.
</event>
<event>
 7    1  0.2740409E-010  0.4778727E+02  0.7816164E-02  0.1312668E+00
        -11   -1    0    0    0    0  0.00000000000E+00  0.00000000000E+00  0.45593999997E+02  0.45594000000E+02  0.51100000000E-03 0.  1.
         11   -1    0    0    0    0 -0.00000000000E+00 -0.00000000000E+00 -0.45593999997E+02  0.45594000000E+02  0.51100000000E-03 0. -1.
    9900012    2    1    2    0    0  0.17018484226E+02  0.98779167237E+01 -0.38683602842E+02  0.47787272207E+02  0.20000005302E+02 0.  0.
        -12    1    1    2    0    0 -0.17018484226E+02 -0.98779167237E+01  0.38683602842E+02  0.43400727793E+02  0.00000000000E+00 0.  1.
         11    1    3    3    0    0 -0.16256593234E+01  0.11576540835E+01 -0.13354130598E+02  0.13502434429E+02  0.51100000000E-03 0. -1.
        -11    1    3    3    0    0  0.11649359697E+02  0.48485810971E+01 -0.73371202690E+01  0.14596220542E+02  0.51100000000E-03 0.  1.
         12    1    3    3    0    0  0.69947838516E+01  0.38716815431E+01 -0.17992351974E+02  0.19688617236E+02  0.00000000000E+00 0. -1.
</event>
<event>
 7    1  0.2740409E-010  0.4778727E+02  0.7816164E-02  0.1312668E+00
        -11   -1    0    0    0    0  0.00000000000E+00  0.00000000000E+00  0.45593999997E+02  0.45594000000E+02  0.51100000000E-03 0.  1.
         11   -1    0    0    0    0 -0.00000000000E+00 -0.00000000000E+00 -0.45593999997E+02  0.45594000000E+02  0.51100000000E-03 0. -1.
    9900012    2    1    2    0    0  0.26677096022E+02 -0.34114939929E+02 -0.28507259820E+01  0.47787271698E+02  0.20000002978E+02 0.  0.
        -12    1    1    2    0    0 -0.26677096022E+02  0.34114939929E+02  0.28507259820E+01  0.43400728302E+02  0.00000000000E+00 0.  1.
         11    1    3    3    0    0  0.23438689033E+02 -0.18543972870E+02 -0.37739863214E+01  0.30124641847E+02  0.51100000000E-03 0. -1.
        -11    1    3    3    0    0 -0.80794518842E+00 -0.12455016735E+02  0.12590505135E+01  0.12544537686E+02  0.51100000000E-03 0.  1.
        -12    1    3    3    0    0  0.40463521774E+01 -0.31159503243E+01 -0.33579017412E+00  0.51180921649E+01  0.00000000000E+00 0.  1.
</event>
<event>
 7    1  0.2740409E-010  0.4778728E+02  0.7816164E-02  0.1312668E+00
        -11   -1    0    0    0    0  0.00000000000E+00  0.00000000000E+00  0.45593999997E+02  0.45594000000E+02  0.51100000000E-03 0. -1.
         11   -1    0    0    0    0 -0.00000000000E+00 -0.00000000000E+00 -0.45593999997E+02  0.45594000000E+02  0.51100000000E-03 0.  1.
    9900012    2    1    2    0    0  0.29788497709E+01  0.82935369596E+01  0.42496664105E+02  0.47787276949E+02  0.20000026923E+02 0.  0.
        -12    1    1    2    0    0 -0.29788497709E+01 -0.82935369596E+01 -0.42496664105E+02  0.43400723051E+02  0.00000000000E+00 0.  1.
         11    1    3    3    0    0 -0.28474071338E+01  0.17412710870E+01  0.97046004655E+01  0.10262505680E+02  0.51100000000E-03 0. -1.
        -11    1    3    3    0    0 -0.86525516526E+00 -0.14005847064E+01 -0.11623265937E+01  0.20152685658E+01  0.51100000000E-03 0.  1.
        -12    1    3    3    0    0  0.66915120699E+01  0.79528505790E+01  0.33954390233E+02  0.35509502703E+02  0.00000000000E+00 0.  1.
</event>
<event>
 7    1  0.2740409E-010  0.4778727E+02  0.7816164E-02  0.1312668E+00
        -11   -1    0    0    0    0  0.00000000000E+00  0.00000000000E+00  0.45593999997E+02  0.45594000000E+02  0.51100000000E-03 0. -1.
         11   -1    0    0    0    0 -0.00000000000E+00 -0.00000000000E+00 -0.45593999997E+02  0.45594000000E+02  0.51100000000E-03 0.  1.
    9900012    2    1    2    0    0 -0.32240207914E+02  0.30971297405E+00  0.29053338528E+02  0.47787269498E+02  0.19999992949E+02 0.  0.
        -12    1    1    2    0    0  0.32240207914E+02 -0.30971297405E+00 -0.29053338528E+02  0.43400730502E+02  0.00000000000E+00 0.  1.
         11    1    3    3    0    0 -0.61053906550E+01 -0.12022219529E+01  0.54495087034E+01  0.82715342013E+01  0.51100000000E-03 0. -1.
        -11    1    3    3    0    0 -0.18932026230E+02 -0.71601379763E+01  0.13119636994E+02  0.24120822294E+02  0.51100000000E-03 0.  1.
        -12    1    3    3    0    0 -0.72027910294E+01  0.86720729033E+01  0.10484192831E+02  0.15394913003E+02  0.00000000000E+00 0.  1.
</event>
<event>
 7    1  0.2740409E-010  0.4778727E+02  0.7816164E-02  0.1312668E+00
        -11   -1    0    0    0    0  0.00000000000E+00  0.00000000000E+00  0.45593999997E+02  0.45594000000E+02  0.51100000000E-03 0.  1.
         11   -1    0    0    0    0 -0.00000000000E+00 -0.00000000000E+00 -0.45593999997E+02  0.45594000000E+02  0.51100000000E-03 0. -1.
    9900012    2    1    2    0    0 -0.29127339407E+02 -0.22338729258E+01 -0.32097211718E+02  0.47787273171E+02  0.20000009696E+02 0.  0.
        -12    1    1    2    0    0  0.29127339407E+02  0.22338729258E+01  0.32097211718E+02  0.43400726829E+02  0.00000000000E+00 0.  1.
         11    1    3    3    0    0 -0.13913685452E+02 -0.72202436446E+01 -0.12360305961E+02  0.19962457886E+02  0.51100000000E-03 0. -1.
        -11    1    3    3    0    0 -0.75241308997E+01  0.70013379884E+01 -0.58560535890E+01  0.11828974737E+02  0.51100000000E-03 0.  1.
         12    1    3    3    0    0 -0.76895230553E+01 -0.20149672696E+01 -0.13880852169E+02  0.15995840548E+02  0.00000000000E+00 0. -1.
</event>
<event>
 7    1  0.2740409E-010  0.4778727E+02  0.7816164E-02  0.1312668E+00
        -11   -1    0    0    0    0  0.00000000000E+00  0.00000000000E+00  0.45593999997E+02  0.45594000000E+02  0.51100000000E-03 0.  1.
         11   -1    0    0    0    0 -0.00000000000E+00 -0.00000000000E+00 -0.45593999997E+02  0.45594000000E+02  0.51100000000E-03 0. -1.
    9900012    2    1    2    0    0 -0.22862829930E+02  0.24088153098E+02 -0.27940567811E+02  0.47787269111E+02  0.19999991186E+02 0.  0.
        -12    1    1    2    0    0  0.22862829930E+02 -0.24088153098E+02  0.27940567811E+02  0.43400730889E+02  0.00000000000E+00 0.  1.
         11    1    3    3    0    0 -0.16633965264E+02  0.10134233744E+02 -0.13298315231E+02  0.23584670493E+02  0.51100000000E-03 0.  1.
        -11    1    3    3    0    0  0.23261780781E+01  0.37333511190E+01  0.50499742864E-02  0.43987544592E+01  0.51100000000E-03 0. -1.
         12    1    3    3    0    0 -0.85550427438E+01  0.10220568235E+02 -0.14647302554E+02  0.19803844159E+02  0.00000000000E+00 0. -1.
</event>
<event>
 7    1  0.2740409E-010  0.4778727E+02  0.7816164E-02  0.1312668E+00
        -11   -1    0    0    0    0  0.00000000000E+00  0.00000000000E+00  0.45593999997E+02  0.45594000000E+02  0.51100000000E-03 0.  1.
         11   -1    0    0    0    0 -0.00000000000E+00 -0.00000000000E+00 -0.45593999997E+02  0.45594000000E+02  0.51100000000E-03 0. -1.
    9900012    2    1    2    0    0  0.23460127833E+02  0.33024335051E+02 -0.15576873098E+02  0.47787270985E+02  0.19999999731E+02 0.  0.
        -12    1    1    2    0    0 -0.23460127833E+02 -0.33024335051E+02  0.15576873098E+02  0.43400729015E+02  0.00000000000E+00 0.  1.
         11    1    3    3    0    0  0.46013936045E+01 -0.19607288506E+01 -0.11623407239E+01  0.51350089532E+01  0.51100000000E-03 0.  1.
        -11    1    3    3    0    0  0.18034682490E+02  0.29390089343E+02 -0.12145710115E+02  0.36558793724E+02  0.51100000000E-03 0. -1.
        -12    1    3    3    0    0  0.82405173828E+00  0.55949745588E+01 -0.22688222587E+01  0.60934683082E+01  0.00000000000E+00 0.  1.
</event>
<event>
 7    1  0.2740409E-010  0.4778727E+02  0.7816164E-02  0.1312668E+00
        -11   -1    0    0    0    0  0.00000000000E+00  0.00000000000E+00  0.45593999997E+02  0.45594000000E+02  0.51100000000E-03 0.  1.
         11   -1    0    0    0    0 -0.00000000000E+00 -0.00000000000E+00 -0.45593999997E+02  0.45594000000E+02  0.51100000000E-03 0. -1.
    9900012    2    1    2    0    0  0.30933050861E+02  0.29108367907E+02 -0.89147296473E+01  0.47787272789E+02  0.20000007953E+02 0.  0.
        -12    1    1    2    0    0 -0.30933050861E+02 -0.29108367907E+02  0.89147296473E+01  0.43400727211E+02  0.00000000000E+00 0.  1.
         11    1    3    3    0    0  0.25497270028E+00 -0.19047696296E+01  0.14962995340E+01  0.24355843193E+01  0.51100000000E-03 0. -1.
        -11    1    3    3    0    0  0.13203385934E+01  0.47153843239E+00  0.68315804563E+00  0.15595985608E+01  0.51100000000E-03 0.  1.
         12    1    3    3    0    0  0.29357739568E+02  0.30541599104E+02 -0.11094187227E+02  0.43792089909E+02  0.00000000000E+00 0. -1.
</event>
<event>
 7    1  0.2740409E-010  0.4778727E+02  0.7816164E-02  0.1312668E+00
        -11   -1    0    0    0    0  0.00000000000E+00  0.00000000000E+00  0.45593999997E+02  0.45594000000E+02  0.51100000000E-03 0.  1.
         11   -1    0    0    0    0 -0.00000000000E+00 -0.00000000000E+00 -0.45593999997E+02  0.45594000000E+02  0.51100000000E-03 0. -1.
    9900012    2    1    2    0    0 -0.71350652391E+01 -0.11737294762E+02 -0.41169774030E+02  0.47787268001E+02  0.19999986125E+02 0.  0.
        -12    1    1    2    0    0  0.71350652391E+01  0.11737294762E+02  0.41169774030E+02  0.43400731999E+02  0.00000000000E+00 0.  1.
         11    1    3    3    0    0 -0.92918392856E+01 -0.66599057538E+01 -0.30347930758E+02  0.32429762927E+02  0.51100000000E-03 0. -1.
        -11    1    3    3    0    0 -0.39928343556E+00 -0.10109614313E+01  0.16595663874E+01  0.19838425171E+01  0.51100000000E-03 0.  1.
        -12    1    3    3    0    0  0.25560574821E+01 -0.40664275771E+01 -0.12481409660E+02  0.13373662557E+02  0.00000000000E+00 0.  1.
</event>
<event>
 7    1  0.2740409E-010  0.4778727E+02  0.7816164E-02  0.1312668E+00
        -11   -1    0    0    0    0  0.00000000000E+00  0.00000000000E+00  0.45593999997E+02  0.45594000000E+02  0.51100000000E-03 0. -1.
         11   -1    0    0    0    0 -0.00000000000E+00 -0.00000000000E+00 -0.45593999997E+02  0.45594000000E+02  0.51100000000E-03 0.  1.
    9900012    2    1    2    0    0  0.15002985785E+02  0.37653189801E+02  0.15516794774E+02  0.47787271841E+02  0.20000003631E+02 0.  0.
        -12    1    1    2    0    0 -0.15002985785E+02 -0.37653189801E+02 -0.15516794774E+02  0.43400728159E+02  0.00000000000E+00 0.  1.
         11    1    3    3    0    0  0.53711469843E+01  0.29448633264E+02  0.98663940544E+01  0.31518517620E+02  0.51100000000E-03 0. -1.
        -11    1    3    3    0    0  0.10457410612E+02  0.67412749579E+01  0.24887565087E+01  0.12688425198E+02  0.51100000000E-03 0.  1.
        -12    1    3    3    0    0 -0.82557181164E+00  0.14632815790E+01  0.31616442113E+01  0.35803290232E+01  0.00000000000E+00 0.  1.
</event>
<event>
 7    1  0.2740409E-010  0.4778727E+02  0.7816164E-02  0.1312668E+00
        -11   -1    0    0    0    0  0.00000000000E+00  0.00000000000E+00  0.45593999997E+02  0.45594000000E+02  0.51100000000E-03 0.  1.
         11   -1    0    0    0    0 -0.00000000000E+00 -0.00000000000E+00 -0.45593999997E+02  0.45594000000E+02  0.51100000000E-03 0. -1.
    9900012    2    1    2    0    0  0.83289330279E+01 -0.53270839597E+01 -0.42259606556E+02  0.47787270799E+02  0.19999998882E+02 0.  0.
        -12    1    1    2    0    0 -0.83289330279E+01  0.53270839597E+01  0.42259606556E+02  0.43400729201E+02  0.00000000000E+00 0.  1.
         11    1    3    3    0    0  0.60341510956E+01 -0.92889230124E+01 -0.15326157726E+02  0.18909949261E+02  0.51100000000E-03 0. -1.
        -11    1    3    3    0    0 -0.93102567643E+00  0.50172827408E+01 -0.70315020999E+01  0.86880352758E+01  0.51100000000E-03 0.  1.
        -12    1    3    3    0    0  0.32258076087E+01 -0.10554436881E+01 -0.19901946730E+02  0.20189286262E+02  0.00000000000E+00 0.  1.
</event>
<event>
 7    1  0.2740409E-010  0.4778724E+02  0.7816164E-02  0.1312668E+00
        -11   -1    0    0    0    0  0.00000000000E+00  0.00000000000E+00  0.45593999997E+02  0.45594000000E+02  0.51100000000E-03 0.  1.
         11   -1    0    0    0    0 -0.00000000000E+00 -0.00000000000E+00 -0.45593999997E+02  0.45594000000E+02  0.51100000000E-03 0. -1.
    9900012    2    1    2    0    0 -0.13219789232E+02 -0.37987204538E+01 -0.41163493060E+02  0.47787236581E+02  0.19999842866E+02 0.  0.
        -12    1    1    2    0    0  0.13219789232E+02  0.37987204538E+01  0.41163493060E+02  0.43400763419E+02  0.00000000000E+00 0.  1.
         11    1    3    3    0    0 -0.94792611522E+01  0.16524366193E+01 -0.69040850274E+01  0.11842859836E+02  0.51100000000E-03 0. -1.
        -11    1    3    3    0    0  0.91345905573E+00 -0.57642549058E+01 -0.23565692263E+02  0.24277621262E+02  0.51100000000E-03 0.  1.
        -12    1    3    3    0    0 -0.46539871360E+01  0.31309783272E+00 -0.10693715770E+02  0.11666755482E+02  0.00000000000E+00 0.  1.
</event>
<event>
 7    1  0.2740409E-010  0.4778727E+02  0.7816164E-02  0.1312668E+00
        -11   -1    0    0    0    0  0.00000000000E+00  0.00000000000E+00  0.45593999997E+02  0.45594000000E+02  0.51100000000E-03 0.  1.
         11   -1    0    0    0    0 -0.00000000000E+00 -0.00000000000E+00 -0.45593999997E+02  0.45594000000E+02  0.51100000000E-03 0. -1.
    9900012    2    1    2    0    0  0.43154891517E+02  0.23797249256E+00 -0.46067751566E+01  0.47787266480E+02  0.19999979189E+02 0.  0.
        -12    1    1    2    0    0 -0.43154891517E+02 -0.23797249256E+00  0.46067751566E+01  0.43400733520E+02  0.00000000000E+00 0.  1.
         11    1    3    3    0    0  0.28305574314E+02  0.30311563062E+01  0.32361473229E+01  0.28650760820E+02  0.51100000000E-03 0. -1.
        -11    1    3    3    0    0  0.38275281778E+01 -0.49166483604E+01 -0.27584597377E+01  0.68141399631E+01  0.51100000000E-03 0.  1.
        -12    1    3    3    0    0  0.11021789025E+02  0.21234645468E+01 -0.50844627418E+01  0.12322365697E+02  0.00000000000E+00 0.  1.
</event>
<event>
 7    1  0.2740409E-010  0.4778727E+02  0.7816164E-02  0.1312668E+00
        -11   -1    0    0    0    0  0.00000000000E+00  0.00000000000E+00  0.45593999997E+02  0.45594000000E+02  0.51100000000E-03 0. -1.
         11   -1    0    0    0    0 -0.00000000000E+00 -0.00000000000E+00 -0.45593999997E+02  0.45594000000E+02  0.51100000000E-03 0.  1.
    9900012    2    1    2    0    0 -0.29373189271E+02 -0.19449584221E+02  0.25348620721E+02  0.47787272509E+02  0.20000006676E+02 0.  0.
        -12    1    1    2    0    0  0.29373189271E+02  0.19449584221E+02 -0.25348620721E+02  0.43400727491E+02  0.00000000000E+00 0.  1.
         11    1    3    3    0    0 -0.33790852028E+01 -0.10914637817E+02  0.77205494065E+01  0.13789648976E+02  0.51100000000E-03 0.  1.
        -11    1    3    3    0    0 -0.26507458554E+02 -0.69670503144E+01  0.16385834722E+02  0.31932440071E+02  0.51100000000E-03 0. -1.
         12    1    3    3    0    0  0.51335448662E+00 -0.15678960896E+01  0.12422365928E+01  0.20651834614E+01  0.00000000000E+00 0. -1.
</event>
<event>
 7    1  0.2740409E-010  0.4778727E+02  0.7816164E-02  0.1312668E+00
        -11   -1    0    0    0    0  0.00000000000E+00  0.00000000000E+00  0.45593999997E+02  0.45594000000E+02  0.51100000000E-03 0.  1.
         11   -1    0    0    0    0 -0.00000000000E+00 -0.00000000000E+00 -0.45593999997E+02  0.45594000000E+02  0.51100000000E-03 0. -1.
    9900012    2    1    2    0    0  0.16265548156E+02 -0.40147404559E+02 -0.26909570767E+01  0.47787269596E+02  0.19999993394E+02 0.  0.
        -12    1    1    2    0    0 -0.16265548156E+02  0.40147404559E+02  0.26909570767E+01  0.43400730404E+02  0.00000000000E+00 0.  1.
         11    1    3    3    0    0  0.13048244745E+02 -0.21371838075E+02  0.68229198389E+01  0.25953119061E+02  0.51100000000E-03 0. -1.
        -11    1    3    3    0    0  0.12079004293E+01 -0.11025771183E+01  0.55704932930E-01  0.16363994163E+01  0.51100000000E-03 0.  1.
         12    1    3    3    0    0  0.20094029816E+01 -0.17672989366E+02 -0.95695818485E+01  0.20197751118E+02  0.00000000000E+00 0. -1.
</event>
<event>
 7    1  0.2740409E-010  0.4778727E+02  0.7816164E-02  0.1312668E+00
        -11   -1    0    0    0    0  0.00000000000E+00  0.00000000000E+00  0.45593999997E+02  0.45594000000E+02  0.51100000000E-03 0.  1.
         11   -1    0    0    0    0 -0.00000000000E+00 -0.00000000000E+00 -0.45593999997E+02  0.45594000000E+02  0.51100000000E-03 0. -1.
    9900012    2    1    2    0    0  0.98804559347E+01  0.35748633758E+02 -0.22539632794E+02  0.47787271071E+02  0.20000000122E+02 0.  0.
        -12    1    1    2    0    0 -0.98804559347E+01 -0.35748633758E+02  0.22539632794E+02  0.43400728929E+02  0.00000000000E+00 0.  1.
         11    1    3    3    0    0  0.46082593058E+01  0.19949742514E+02 -0.12292258318E+02  0.23881538791E+02  0.51100000000E-03 0. -1.
        -11    1    3    3    0    0  0.22460341396E+01 -0.73006750605E+00  0.20142524083E+01  0.31040104615E+01  0.51100000000E-03 0.  1.
        -12    1    3    3    0    0  0.30261624893E+01  0.16528958751E+02 -0.12261626884E+02  0.20801721819E+02  0.00000000000E+00 0.  1.
</event>
<event>
 7    1  0.2740409E-010  0.4778727E+02  0.7816164E-02  0.1312668E+00
        -11   -1    0    0    0    0  0.00000000000E+00  0.00000000000E+00  0.45593999997E+02  0.45594000000E+02  0.51100000000E-03 0.  1.
         11   -1    0    0    0    0 -0.00000000000E+00 -0.00000000000E+00 -0.45593999997E+02  0.45594000000E+02  0.51100000000E-03 0. -1.
    9900012    2    1    2    0    0 -0.19171802953E+02 -0.10827090229E+02 -0.37401058492E+02  0.47787273190E+02  0.20000009783E+02 0.  0.
        -12    1    1    2    0    0  0.19171802953E+02  0.10827090229E+02  0.37401058492E+02  0.43400726810E+02  0.00000000000E+00 0.  1.
         11    1    3    3    0    0 -0.14042378568E+02 -0.13616447863E+02 -0.32436415530E+02  0.37877659655E+02  0.51100000000E-03 0. -1.
        -11    1    3    3    0    0 -0.48544790409E+01  0.95985424266E+00 -0.37678794708E+00  0.49627871548E+01  0.51100000000E-03 0.  1.
         12    1    3    3    0    0 -0.27494534452E+00  0.18295033911E+01 -0.45878550145E+01  0.49468263800E+01  0.00000000000E+00 0. -1.
</event>
<event>
 7    1  0.2740409E-010  0.4778725E+02  0.7816164E-02  0.1312668E+00
        -11   -1    0    0    0    0  0.00000000000E+00  0.00000000000E+00  0.45593999997E+02  0.45594000000E+02  0.51100000000E-03 0.  1.
         11   -1    0    0    0    0 -0.00000000000E+00 -0.00000000000E+00 -0.45593999997E+02  0.45594000000E+02  0.51100000000E-03 0. -1.
    9900012    2    1    2    0    0 -0.33622730612E+02 -0.90436839440E+01 -0.25910402544E+02  0.47787248934E+02  0.19999899190E+02 0.  0.
        -12    1    1    2    0    0  0.33622730612E+02  0.90436839440E+01  0.25910402544E+02  0.43400751066E+02  0.00000000000E+00 0.  1.
         11    1    3    3    0    0 -0.18512341704E+02 -0.62385960485E+01 -0.17035398137E+02  0.25919715778E+02  0.51100000000E-03 0. -1.
        -11    1    3    3    0    0 -0.65878400446E+01  0.44545420750E+01 -0.65681265159E+00  0.79795980270E+01  0.51100000000E-03 0.  1.
        -12    1    3    3    0    0 -0.85225488630E+01 -0.72596299706E+01 -0.82181917552E+01  0.13887935129E+02  0.00000000000E+00 0.  1.
</event>
<event>
 7    1  0.2740409E-010  0.4778727E+02  0.7816164E-02  0.1312668E+00
        -11   -1    0    0    0    0  0.00000000000E+00  0.00000000000E+00  0.45593999997E+02  0.45594000000E+02  0.51100000000E-03 0. -1.
         11   -1    0    0    0    0 -0.00000000000E+00 -0.00000000000E+00 -0.45593999997E+02  0.45594000000E+02  0.51100000000E-03 0.  1.
    9900012    2    1    2    0    0  0.40084009514E+02  0.86230384103E+01  0.14231607303E+02  0.47787271244E+02  0.20000000910E+02 0.  0.
        -12    1    1    2    0    0 -0.40084009514E+02 -0.86230384103E+01 -0.14231607303E+02  0.43400728756E+02  0.00000000000E+00 0.  1.
         11    1    3    3    0    0  0.56451809997E+01 -0.17981244054E+01  0.33645678075E+01  0.68133425489E+01  0.51100000000E-03 0. -1.
        -11    1    3    3    0    0  0.17702046781E+02 -0.24000908072E+01  0.15733621576E+01  0.17933163827E+02  0.51100000000E-03 0.  1.
        -12    1    3    3    0    0  0.16736781733E+02  0.12821253623E+02  0.92936773378E+01  0.23040764868E+02  0.00000000000E+00 0.  1.
</event>
<event>
 7    1  0.2740409E-010  0.4778727E+02  0.7816164E-02  0.1312668E+00
        -11   -1    0    0    0    0  0.00000000000E+00  0.00000000000E+00  0.45593999997E+02  0.45594000000E+02  0.51100000000E-03 0. -1.
         11   -1    0    0    0    0 -0.00000000000E+00 -0.00000000000E+00 -0.45593999997E+02  0.45594000000E+02  0.51100000000E-03 0.  1.
    9900012    2    1    2    0    0  0.81912525413E+01 -0.32761319210E+02  0.27262116347E+02  0.47787266801E+02  0.19999980651E+02 0.  0.
        -12    1    1    2    0    0 -0.81912525413E+01  0.32761319210E+02 -0.27262116347E+02  0.43400733199E+02  0.00000000000E+00 0.  1.
         11    1    3    3    0    0  0.19425235957E-01 -0.26027275194E+02  0.23345070360E+02  0.34963005330E+02  0.51100000000E-03 0. -1.
        -11    1    3    3    0    0  0.25500686581E+01  0.88448335735E+00  0.13301386312E+01  0.30090579938E+01  0.51100000000E-03 0.  1.
         12    1    3    3    0    0  0.56217586473E+01 -0.76185273730E+01  0.25869073555E+01  0.98152034767E+01  0.00000000000E+00 0. -1.
</event>
<event>
 7    1  0.2740409E-010  0.4778727E+02  0.7816164E-02  0.1312668E+00
        -11   -1    0    0    0    0  0.00000000000E+00  0.00000000000E+00  0.45593999997E+02  0.45594000000E+02  0.51100000000E-03 0. -1.
         11   -1    0    0    0    0 -0.00000000000E+00 -0.00000000000E+00 -0.45593999997E+02  0.45594000000E+02  0.51100000000E-03 0.  1.
    9900012    2    1    2    0    0 -0.95766231915E+01  0.25814265059E+02  0.33548999160E+02  0.47787270318E+02  0.19999996690E+02 0.  0.
        -12    1    1    2    0    0  0.95766231915E+01 -0.25814265059E+02 -0.33548999160E+02  0.43400729682E+02  0.00000000000E+00 0.  1.
         11    1    3    3    0    0 -0.11222110876E+02  0.10549518441E+02  0.16714353595E+02  0.22728786334E+02  0.51100000000E-03 0. -1.
        -11    1    3    3    0    0  0.47196600239E+01  0.11840203800E+02  0.15872774838E+02  0.20357077347E+02  0.51100000000E-03 0.  1.
        -12    1    3    3    0    0 -0.30741723394E+01  0.34245428172E+01  0.96187072665E+00  0.47014066377E+01  0.00000000000E+00 0.  1.
</event>
<event>
 7    1  0.2740409E-010  0.4778727E+02  0.7816164E-02  0.1312668E+00
        -11   -1    0    0    0    0  0.00000000000E+00  0.00000000000E+00  0.45593999997E+02  0.45594000000E+02  0.51100000000E-03 0. -1.
         11   -1    0    0    0    0 -0.00000000000E+00 -0.00000000000E+00 -0.45593999997E+02  0.45594000000E+02  0.51100000000E-03 0.  1.
    9900012    2    1    2    0    0 -0.36815461457E+01  0.42312751844E+02  0.89275395428E+01  0.47787265986E+02  0.19999976937E+02 0.  0.
        -12    1    1    2    0    0  0.36815461457E+01 -0.42312751844E+02 -0.89275395428E+01  0.43400734014E+02  0.00000000000E+00 0.  1.
         11    1    3    3    0    0  0.22786609197E+01  0.99063703283E+01 -0.42503521804E+01  0.11017892838E+02  0.51100000000E-03 0. -1.
        -11    1    3    3    0    0 -0.42883456135E+01  0.50661175103E+01  0.71431664746E+00  0.66757548833E+01  0.51100000000E-03 0.  1.
         12    1    3    3    0    0 -0.16718614519E+01  0.27340264006E+02  0.12463575076E+02  0.30093618265E+02  0.00000000000E+00 0. -1.
</event>
<event>
 7    1  0.2740409E-010  0.4778727E+02  0.7816164E-02  0.1312668E+00
        -11   -1    0    0    0    0  0.00000000000E+00  0.00000000000E+00  0.45593999997E+02  0.45594000000E+02  0.51100000000E-03 0.  1.
         11   -1    0    0    0    0 -0.00000000000E+00 -0.00000000000E+00 -0.45593999997E+02  0.45594000000E+02  0.51100000000E-03 0. -1.
    9900012    2    1    2    0    0 -0.10656469173E+02 -0.68725294397E+01 -0.41507004282E+02  0.47787269584E+02  0.19999993342E+02 0.  0.
        -12    1    1    2    0    0  0.10656469173E+02  0.68725294397E+01  0.41507004282E+02  0.43400730416E+02  0.00000000000E+00 0.  1.
         11    1    3    3    0    0 -0.38919649109E+01 -0.64389643004E+01 -0.14769791750E+02  0.16575717201E+02  0.51100000000E-03 0. -1.
        -11    1    3    3    0    0 -0.36356103679E+01  0.43959626358E+01 -0.23754787686E+01  0.61794053018E+01  0.51100000000E-03 0.  1.
        -12    1    3    3    0    0 -0.31288938939E+01 -0.48295277751E+01 -0.24361733764E+02  0.25032147082E+02  0.00000000000E+00 0.  1.
</event>
<event>
 7    1  0.2740409E-010  0.4778727E+02  0.7816164E-02  0.1312668E+00
        -11   -1    0    0    0    0  0.00000000000E+00  0.00000000000E+00  0.45593999997E+02  0.45594000000E+02  0.51100000000E-03 0.  1.
         11   -1    0    0    0    0 -0.00000000000E+00 -0.00000000000E+00 -0.45593999997E+02  0.45594000000E+02  0.51100000000E-03 0. -1.
    9900012    2    1    2    0    0 -0.42211151766E+02  0.97734186988E+01 -0.25143978632E+01  0.47787271399E+02  0.20000001615E+02 0.  0.
        -12    1    1    2    0    0  0.42211151766E+02 -0.97734186988E+01  0.25143978632E+01  0.43400728601E+02  0.00000000000E+00 0.  1.
         11    1    3    3    0    0 -0.24810804869E+02  0.11060975182E+02 -0.34264932017E-01  0.27164726846E+02  0.51100000000E-03 0. -1.
        -11    1    3    3    0    0 -0.14156036914E+01 -0.35076853073E+01  0.13846654382E+01  0.40280378179E+01  0.51100000000E-03 0.  1.
         12    1    3    3    0    0 -0.15984743206E+02  0.22201288239E+01 -0.38647983693E+01  0.16594506735E+02  0.00000000000E+00 0. -1.
</event>
<event>
 7    1  0.2740409E-010  0.4778727E+02  0.7816164E-02  0.1312668E+00
        -11   -1    0    0    0    0  0.00000000000E+00  0.00000000000E+00  0.45593999997E+02  0.45594000000E+02  0.51100000000E-03 0. -1.
         11   -1    0    0    0    0 -0.00000000000E+00 -0.00000000000E+00 -0.45593999997E+02  0.45594000000E+02  0.51100000000E-03 0.  1.
    9900012    2    1    2    0    0  0.85127683793E+01  0.39823759208E+02 -0.15007464018E+02  0.47787274209E+02  0.20000014429E+02 0.  0.
        -12    1    1    2    0    0 -0.85127683793E+01 -0.39823759208E+02  0.15007464018E+02  0.43400725791E+02  0.00000000000E+00 0.  1.
         11    1    3    3    0    0 -0.11039866260E+01  0.28907915712E+00 -0.50524909344E+00  0.12480505346E+01  0.51100000000E-03 0. -1.
        -11    1    3    3    0    0 -0.32063591252E+01  0.21079855158E+01  0.11302979866E+01  0.40002394396E+01  0.51100000000E-03 0.  1.
        -12    1    3    3    0    0  0.12823114130E+02  0.37426694535E+02 -0.15632512911E+02  0.42538984235E+02  0.00000000000E+00 0.  1.
</event>
<event>
 7    1  0.2740409E-010  0.4778725E+02  0.7816164E-02  0.1312668E+00
        -11   -1    0    0    0    0  0.00000000000E+00  0.00000000000E+00  0.45593999997E+02  0.45594000000E+02  0.51100000000E-03 0.  1.
         11   -1    0    0    0    0 -0.00000000000E+00 -0.00000000000E+00 -0.45593999997E+02  0.45594000000E+02  0.51100000000E-03 0. -1.
    9900012    2    1    2    0    0 -0.31043455929E+02 -0.27315586841E+02 -0.13182870951E+02  0.47787245088E+02  0.19999881652E+02 0.  0.
        -12    1    1    2    0    0  0.31043455929E+02  0.27315586841E+02  0.13182870951E+02  0.43400754912E+02  0.00000000000E+00 0.  1.
         11    1    3    3    0    0 -0.12551893287E+02 -0.11323528886E+02 -0.13236839602E+02  0.21470590454E+02  0.51100000000E-03 0. -1.
        -11    1    3    3    0    0 -0.88309938740E+01 -0.29392872810E+01 -0.30288461534E+01  0.97877357854E+01  0.51100000000E-03 0.  1.
         12    1    3    3    0    0 -0.96605687677E+01 -0.13052770674E+02  0.30828148043E+01  0.16528918849E+02  0.00000000000E+00 0. -1.
</event>
<event>
 7    1  0.2740409E-010  0.4778727E+02  0.7816164E-02  0.1312668E+00
        -11   -1    0    0    0    0  0.00000000000E+00  0.00000000000E+00  0.45593999997E+02  0.45594000000E+02  0.51100000000E-03 0.  1.
         11   -1    0    0    0    0 -0.00000000000E+00 -0.00000000000E+00 -0.45593999997E+02  0.45594000000E+02  0.51100000000E-03 0. -1.
    9900012    2    1    2    0    0  0.24361184357E+02 -0.32583313717E+02 -0.15115678045E+02  0.47787270066E+02  0.19999995539E+02 0.  0.
        -12    1    1    2    0    0 -0.24361184357E+02  0.32583313717E+02  0.15115678045E+02  0.43400729934E+02  0.00000000000E+00 0.  1.
         11    1    3    3    0    0  0.81537394973E+01 -0.19380351639E+02 -0.10151039789E+02  0.23347914393E+02  0.51100000000E-03 0. -1.
        -11    1    3    3    0    0  0.55885690512E+01  0.15060778952E+01 -0.11514778542E+01  0.59013791757E+01  0.51100000000E-03 0.  1.
         12    1    3    3    0    0  0.10618875809E+02 -0.14709039973E+02 -0.38131604011E+01  0.18537976497E+02  0.00000000000E+00 0. -1.
</event>
<event>
 7    1  0.2740409E-010  0.4778727E+02  0.7816164E-02  0.1312668E+00
        -11   -1    0    0    0    0  0.00000000000E+00  0.00000000000E+00  0.45593999997E+02  0.45594000000E+02  0.51100000000E-03 0.  1.
         11   -1    0    0    0    0 -0.00000000000E+00 -0.00000000000E+00 -0.45593999997E+02  0.45594000000E+02  0.51100000000E-03 0. -1.
    9900012    2    1    2    0    0  0.90634348699E+01 -0.40974133675E+02 -0.11072380495E+02  0.47787273141E+02  0.20000009561E+02 0.  0.
        -12    1    1    2    0    0 -0.90634348699E+01  0.40974133675E+02  0.11072380495E+02  0.43400726859E+02  0.00000000000E+00 0.  1.
         11    1    3    3    0    0 -0.33107515927E+01 -0.13258564073E+02 -0.69297331136E+01  0.15322264803E+02  0.51100000000E-03 0. -1.
        -11    1    3    3    0    0  0.12104101771E+02 -0.14466618570E+02 -0.35950339858E+01  0.19201994744E+02  0.51100000000E-03 0.  1.
        -12    1    3    3    0    0  0.27008469112E+00 -0.13248951031E+02 -0.54761339540E+00  0.13263013594E+02  0.00000000000E+00 0.  1.
</event>
<event>
 7    1 -0.2740409E-010  0.4778727E+02  0.7816164E-02  0.1312668E+00
        -11   -1    0    0    0    0  0.00000000000E+00  0.00000000000E+00  0.45593999997E+02  0.45594000000E+02  0.51100000000E-03 0.  1.
         11   -1    0    0    0    0 -0.00000000000E+00 -0.00000000000E+00 -0.45593999997E+02  0.45594000000E+02  0.51100000000E-03 0. -1.
    9900012    2    1    2    0    0 -0.19252497018E+02 -0.26889564054E+02 -0.28105445212E+02  0.47787270202E+02  0.19999996161E+02 0.  0.
        -12    1    1    2    0    0  0.19252497018E+02  0.26889564054E+02  0.28105445212E+02  0.43400729798E+02  0.00000000000E+00 0.  1.
         11    1    3    3    0    0 -0.16455207435E+01 -0.10173683076E+02 -0.98285001568E+01  0.14241172053E+02  0.51100000000E-03 0. -1.
        -11    1    3    3    0    0 -0.16835866569E+02 -0.19099663387E+02 -0.17597472743E+02  0.30950195344E+02  0.51100000000E-03 0.  1.
        -12    1    3    3    0    0 -0.77110970548E+00  0.23837824094E+01 -0.67947231200E+00  0.25959028056E+01  0.00000000000E+00 0.  1.
</event>
<event>
 7    1  0.2740409E-010  0.4778727E+02  0.7816164E-02  0.1312668E+00
        -11   -1    0    0    0    0  0.00000000000E+00  0.00000000000E+00  0.45593999997E+02  0.45594000000E+02  0.51100000000E-03 0.  1.
         11   -1    0    0    0    0 -0.00000000000E+00 -0.00000000000E+00 -0.45593999997E+02  0.45594000000E+02  0.51100000000E-03 0. -1.
    9900012    2    1    2    0    0 -0.42100509119E+02 -0.84037863833E+01 -0.63676387999E+01  0.47787270542E+02  0.19999997708E+02 0.  0.
        -12    1    1    2    0    0  0.42100509119E+02  0.84037863833E+01  0.63676387999E+01  0.43400729458E+02  0.00000000000E+00 0.  1.
         11    1    3    3    0    0 -0.17988234415E+02 -0.83725003107E+01 -0.57642612884E+01  0.20661608052E+02  0.51100000000E-03 0. -1.
        -11    1    3    3    0    0 -0.15848113597E+02 -0.15370035677E+01  0.53861341413E+01  0.16808793109E+02  0.51100000000E-03 0.  1.
        -12    1    3    3    0    0 -0.82641611069E+01  0.15057174951E+01 -0.59895116528E+01  0.10316869380E+02  0.00000000000E+00 0.  1.
</event>
<event>
 7    1  0.2740409E-010  0.4778727E+02  0.7816164E-02  0.1312668E+00
        -11   -1    0    0    0    0  0.00000000000E+00  0.00000000000E+00  0.45593999997E+02  0.45594000000E+02  0.51100000000E-03 0.  1.
         11   -1    0    0    0    0 -0.00000000000E+00 -0.00000000000E+00 -0.45593999997E+02  0.45594000000E+02  0.51100000000E-03 0. -1.
    9900012    2    1    2    0    0 -0.20524462024E+02 -0.70431222499E+01 -0.37586754927E+02  0.47787271223E+02  0.20000000815E+02 0.  0.
        -12    1    1    2    0    0  0.20524462024E+02  0.70431222499E+01  0.37586754927E+02  0.43400728777E+02  0.00000000000E+00 0.  1.
         11    1    3    3    0    0 -0.14651919649E+02 -0.10952958925E+02 -0.24246661051E+02  0.30373452734E+02  0.51100000000E-03 0. -1.
        -11    1    3    3    0    0 -0.45435500205E+01  0.24279790226E+01 -0.14409336896E+01  0.53493194971E+01  0.51100000000E-03 0.  1.
         12    1    3    3    0    0 -0.13289923549E+01  0.14818576530E+01 -0.11899160187E+02  0.12064498992E+02  0.00000000000E+00 0. -1.
</event>
<event>
 7    1  0.2740409E-010  0.4778727E+02  0.7816164E-02  0.1312668E+00
        -11   -1    0    0    0    0  0.00000000000E+00  0.00000000000E+00  0.45593999997E+02  0.45594000000E+02  0.51100000000E-03 0.  1.
         11   -1    0    0    0    0 -0.00000000000E+00 -0.00000000000E+00 -0.45593999997E+02  0.45594000000E+02  0.51100000000E-03 0. -1.
    9900012    2    1    2    0    0  0.39312431113E+02  0.89795469315E+01 -0.16047547213E+02  0.47787271035E+02  0.19999999959E+02 0.  0.
        -12    1    1    2    0    0 -0.39312431113E+02 -0.89795469315E+01  0.16047547213E+02  0.43400728965E+02  0.00000000000E+00 0.  1.
         11    1    3    3    0    0  0.70095808253E+01  0.15659701198E+01  0.30633384576E+01  0.78083627304E+01  0.51100000000E-03 0. -1.
        -11    1    3    3    0    0  0.28625095375E+02  0.86812516410E+01 -0.12736373294E+02  0.32511158396E+02  0.51100000000E-03 0.  1.
        -12    1    3    3    0    0  0.36777549127E+01 -0.12676748292E+01 -0.63745123763E+01  0.74677499092E+01  0.00000000000E+00 0.  1.
</event>
<event>
 7    1  0.2740409E-010  0.4778727E+02  0.7816164E-02  0.1312668E+00
        -11   -1    0    0    0    0  0.00000000000E+00  0.00000000000E+00  0.45593999997E+02  0.45594000000E+02  0.51100000000E-03 0. -1.
         11   -1    0    0    0    0 -0.00000000000E+00 -0.00000000000E+00 -0.45593999997E+02  0.45594000000E+02  0.51100000000E-03 0.  1.
    9900012    2    1    2    0    0 -0.30639493529E+02 -0.10186855675E+02  0.29001252258E+02  0.47787271610E+02  0.20000002578E+02 0.  0.
        -12    1    1    2    0    0  0.30639493529E+02  0.10186855675E+02 -0.29001252258E+02  0.43400728390E+02  0.00000000000E+00 0.  1.
         11    1    3    3    0    0 -0.10805843250E+02 -0.15835308371E+01  0.13821309081E+01  0.11008365199E+02  0.51100000000E-03 0. -1.
        -11    1    3    3    0    0 -0.86325110501E+01 -0.29604372663E+01  0.38524894810E+01  0.99058624713E+01  0.51100000000E-03 0.  1.
         12    1    3    3    0    0 -0.11201139229E+02 -0.56428875713E+01  0.23766631869E+02  0.26873043939E+02  0.00000000000E+00 0. -1.
</event>
<event>
 7    1  0.2740409E-010  0.4778728E+02  0.7816164E-02  0.1312668E+00
        -11   -1    0    0    0    0  0.00000000000E+00  0.00000000000E+00  0.45593999997E+02  0.45594000000E+02  0.51100000000E-03 0.  1.
         11   -1    0    0    0    0 -0.00000000000E+00 -0.00000000000E+00 -0.45593999997E+02  0.45594000000E+02  0.51100000000E-03 0. -1.
    9900012    2    1    2    0    0 -0.29049783899E+02 -0.28128972998E+02 -0.15763678605E+02  0.47787278466E+02  0.20000033836E+02 0.  0.
        -12    1    1    2    0    0  0.29049783899E+02  0.28128972998E+02  0.15763678605E+02  0.43400721534E+02  0.00000000000E+00 0.  1.
         11    1    3    3    0    0 -0.11389956914E+02 -0.53456747417E+01 -0.88822768600E+01  0.15401370051E+02  0.51100000000E-03 0.  1.
        -11    1    3    3    0    0 -0.17910914077E+02 -0.21992602731E+02 -0.31202960862E+01  0.28534394437E+02  0.51100000000E-03 0. -1.
        -12    1    3    3    0    0  0.25108709218E+00 -0.79069552511E+00 -0.37611056590E+01  0.38515139776E+01  0.00000000000E+00 0.  1.
</event>
<event>
 7    1  0.2740409E-010  0.4778727E+02  0.7816164E-02  0.1312668E+00
        -11   -1    0    0    0    0  0.00000000000E+00  0.00000000000E+00  0.45593999997E+02  0.45594000000E+02  0.51100000000E-03 0. -1.
         11   -1    0    0    0    0 -0.00000000000E+00 -0.00000000000E+00 -0.45593999997E+02  0.45594000000E+02  0.51100000000E-03 0.  1.
    9900012    2    1    2    0    0  0.14600668748E+02  0.22566898680E+02  0.34076074896E+02  0.47787270464E+02  0.19999997354E+02 0.  0.
        -12    1    1    2    0    0 -0.14600668748E+02 -0.22566898680E+02 -0.34076074896E+02  0.43400729536E+02  0.00000000000E+00 0.  1.
         11    1    3    3    0    0  0.52099164178E+01  0.64773461057E+01  0.18851969625E+02  0.20603300722E+02  0.51100000000E-03 0. -1.
        -11    1    3    3    0    0 -0.21192283549E+01  0.70123150692E+01  0.79816702403E+01  0.10833778267E+02  0.51100000000E-03 0.  1.
        -12    1    3    3    0    0  0.11509980685E+02  0.90772375047E+01  0.72424350310E+01  0.16350191475E+02  0.00000000000E+00 0.  1.
</event>
<event>
 7    1  0.2740409E-010  0.4778727E+02  0.7816164E-02  0.1312668E+00
        -11   -1    0    0    0    0  0.00000000000E+00  0.00000000000E+00  0.45593999997E+02  0.45594000000E+02  0.51100000000E-03 0. -1.
         11   -1    0    0    0    0 -0.00000000000E+00 -0.00000000000E+00 -0.45593999997E+02  0.45594000000E+02  0.51100000000E-03 0.  1.
    9900012    2    1    2    0    0  0.29224896643E+02 -0.23537355725E+02 -0.21806461864E+02  0.47787268700E+02  0.19999989311E+02 0.  0.
        -12    1    1    2    0    0 -0.29224896643E+02  0.23537355725E+02  0.21806461864E+02  0.43400731300E+02  0.00000000000E+00 0.  1.
         11    1    3    3    0    0  0.23631283468E+02 -0.21784885212E+02 -0.13106099214E+02  0.34710065095E+02  0.51100000000E-03 0. -1.
        -11    1    3    3    0    0  0.36101737369E+00  0.27983057660E+01 -0.22962553321E+01  0.36378066903E+01  0.51100000000E-03 0.  1.
        -12    1    3    3    0    0  0.52325958018E+01 -0.45507762790E+01 -0.64041073184E+01  0.94393969147E+01  0.00000000000E+00 0.  1.
</event>
<event>
 7    1  0.2740409E-010  0.4778728E+02  0.7816164E-02  0.1312668E+00
        -11   -1    0    0    0    0  0.00000000000E+00  0.00000000000E+00  0.45593999997E+02  0.45594000000E+02  0.51100000000E-03 0. -1.
         11   -1    0    0    0    0 -0.00000000000E+00 -0.00000000000E+00 -0.45593999997E+02  0.45594000000E+02  0.51100000000E-03 0.  1.
    9900012    2    1    2    0    0  0.40141079718E+01 -0.21347566737E+02  0.37573809307E+02  0.47787276340E+02  0.20000024144E+02 0.  0.
        -12    1    1    2    0    0 -0.40141079718E+01  0.21347566737E+02 -0.37573809307E+02  0.43400723660E+02  0.00000000000E+00 0.  1.
         11    1    3    3    0    0 -0.33447334749E+00 -0.10663021603E+02  0.66442812875E+01  0.12568149275E+02  0.51100000000E-03 0.  1.
        -11    1    3    3    0    0  0.72209986770E+01 -0.33391997032E+01  0.21507473275E+02  0.22931735291E+02  0.51100000000E-03 0. -1.
         12    1    3    3    0    0 -0.28724173577E+01 -0.73453454315E+01  0.94220547442E+01  0.12287391773E+02  0.00000000000E+00 0. -1.
</event>
<event>
 7    1  0.2740409E-010  0.4778726E+02  0.7816164E-02  0.1312668E+00
        -11   -1    0    0    0    0  0.00000000000E+00  0.00000000000E+00  0.45593999997E+02  0.45594000000E+02  0.51100000000E-03 0.  1.
         11   -1    0    0    0    0 -0.00000000000E+00 -0.00000000000E+00 -0.45593999997E+02  0.45594000000E+02  0.51100000000E-03 0. -1.
    9900012    2    1    2    0    0 -0.31371304345E+02 -0.16256365200E+02 -0.25203089312E+02  0.47787264330E+02  0.19999969386E+02 0.  0.
        -12    1    1    2    0    0  0.31371304345E+02  0.16256365200E+02  0.25203089312E+02  0.43400735670E+02  0.00000000000E+00 0.  1.
         11    1    3    3    0    0 -0.14422210042E+02 -0.54896519773E+01 -0.17999166965E+02  0.23708783879E+02  0.51100000000E-03 0. -1.
        -11    1    3    3    0    0 -0.41497797297E+01 -0.85674644066E+01 -0.67675779157E+00  0.95435904948E+01  0.51100000000E-03 0.  1.
        -12    1    3    3    0    0 -0.12799314573E+02 -0.21992488160E+01 -0.65271645558E+01  0.14534889956E+02  0.00000000000E+00 0.  1.
</event>
<event>
 7    1  0.2740409E-010  0.4778727E+02  0.7816164E-02  0.1312668E+00
        -11   -1    0    0    0    0  0.00000000000E+00  0.00000000000E+00  0.45593999997E+02  0.45594000000E+02  0.51100000000E-03 0. -1.
         11   -1    0    0    0    0 -0.00000000000E+00 -0.00000000000E+00 -0.45593999997E+02  0.45594000000E+02  0.51100000000E-03 0.  1.
    9900012    2    1    2    0    0 -0.42644498149E+02 -0.75466703017E+01 -0.28492151382E+01  0.47787268648E+02  0.19999989074E+02 0.  0.
        -12    1    1    2    0    0  0.42644498149E+02  0.75466703017E+01  0.28492151382E+01  0.43400731352E+02  0.00000000000E+00 0.  1.
         11    1    3    3    0    0 -0.10501364793E+02 -0.56720793418E+01  0.65484106839E+01  0.13613700060E+02  0.51100000000E-03 0. -1.
        -11    1    3    3    0    0 -0.21247136011E+02 -0.42934699339E+01 -0.67399094064E+01  0.22700243431E+02  0.51100000000E-03 0.  1.
        -12    1    3    3    0    0 -0.10895997344E+02  0.24188789740E+01 -0.26577164157E+01  0.11473325157E+02  0.00000000000E+00 0.  1.
</event>
<event>
 7    1  0.2740409E-010  0.4778727E+02  0.7816164E-02  0.1312668E+00
        -11   -1    0    0    0    0  0.00000000000E+00  0.00000000000E+00  0.45593999997E+02  0.45594000000E+02  0.51100000000E-03 0. -1.
         11   -1    0    0    0    0 -0.00000000000E+00 -0.00000000000E+00 -0.45593999997E+02  0.45594000000E+02  0.51100000000E-03 0.  1.
    9900012    2    1    2    0    0 -0.42065491694E+02  0.10676849805E+02  0.34962067275E+00  0.47787274800E+02  0.20000017125E+02 0.  0.
        -12    1    1    2    0    0  0.42065491694E+02 -0.10676849805E+02 -0.34962067275E+00  0.43400725200E+02  0.00000000000E+00 0.  1.
         11    1    3    3    0    0 -0.52874374095E+01  0.58130123327E+00  0.15276155691E+01  0.55343034856E+01  0.51100000000E-03 0.  1.
        -11    1    3    3    0    0 -0.13033867853E+02 -0.30373171635E+01  0.52363663227E+01  0.14371031253E+02  0.51100000000E-03 0. -1.
        -12    1    3    3    0    0 -0.23744186432E+02  0.13132865736E+02 -0.64143612191E+01  0.27881940062E+02  0.00000000000E+00 0.  1.
</event>
<event>
 7    1  0.2740409E-010  0.4778729E+02  0.7816164E-02  0.1312668E+00
        -11   -1    0    0    0    0  0.00000000000E+00  0.00000000000E+00  0.45593999997E+02  0.45594000000E+02  0.51100000000E-03 0. -1.
         11   -1    0    0    0    0 -0.00000000000E+00 -0.00000000000E+00 -0.45593999997E+02  0.45594000000E+02  0.51100000000E-03 0.  1.
    9900012    2    1    2    0    0  0.39636536577E+02 -0.12014274699E+02  0.12970115581E+02  0.47787288870E+02  0.20000081276E+02 0.  0.
        -12    1    1    2    0    0 -0.39636536577E+02  0.12014274699E+02 -0.12970115581E+02  0.43400711130E+02  0.00000000000E+00 0.  1.
         11    1    3    3    0    0  0.16004550022E+02  0.39482177644E+01  0.78952037843E+01  0.18277535063E+02  0.51100000000E-03 0. -1.
        -11    1    3    3    0    0  0.16070380855E+02 -0.13339816156E+02  0.51286027138E+01  0.21506055007E+02  0.51100000000E-03 0.  1.
         12    1    3    3    0    0  0.75616057000E+01 -0.26226763068E+01 -0.53690916624E-01  0.80036988004E+01  0.00000000000E+00 0. -1.
</event>
<event>
 7    1  0.2740409E-010  0.4778727E+02  0.7816164E-02  0.1312668E+00
        -11   -1    0    0    0    0  0.00000000000E+00  0.00000000000E+00  0.45593999997E+02  0.45594000000E+02  0.51100000000E-03 0.  1.
         11   -1    0    0    0    0 -0.00000000000E+00 -0.00000000000E+00 -0.45593999997E+02  0.45594000000E+02  0.51100000000E-03 0. -1.
    9900012    2    1    2    0    0 -0.26472581482E+02  0.34565226608E+01 -0.34218100173E+02  0.47787268455E+02  0.19999988192E+02 0.  0.
        -12    1    1    2    0    0  0.26472581482E+02 -0.34565226608E+01  0.34218100173E+02  0.43400731545E+02  0.00000000000E+00 0.  1.
         11    1    3    3    0    0 -0.18321966728E+02  0.10839851252E+02 -0.19051264908E+02  0.28568295972E+02  0.51100000000E-03 0.  1.
        -11    1    3    3    0    0 -0.86342392030E+01 -0.73090032719E+01 -0.14459402007E+02  0.18358810476E+02  0.51100000000E-03 0. -1.
        -12    1    3    3    0    0  0.48362444906E+00 -0.74325319062E-01 -0.70743325861E+00  0.86016200577E+00  0.00000000000E+00 0.  1.
</event>
<event>
 7    1  0.2740409E-010  0.4778728E+02  0.7816164E-02  0.1312668E+00
        -11   -1    0    0    0    0  0.00000000000E+00  0.00000000000E+00  0.45593999997E+02  0.45594000000E+02  0.51100000000E-03 0.  1.
         11   -1    0    0    0    0 -0.00000000000E+00 -0.00000000000E+00 -0.45593999997E+02  0.45594000000E+02  0.51100000000E-03 0. -1.
    9900012    2    1    2    0    0  0.15227653794E+02  0.29262883092E+02 -0.28203280182E+02  0.47787276734E+02  0.20000025943E+02 0.  0.
        -12    1    1    2    0    0 -0.15227653794E+02 -0.29262883092E+02  0.28203280182E+02  0.43400723266E+02  0.00000000000E+00 0.  1.
         11    1    3    3    0    0  0.15699557122E+02  0.15318447446E+02 -0.15054732527E+02  0.26604057918E+02  0.51100000000E-03 0. -1.
        -11    1    3    3    0    0 -0.58639683732E+00  0.74121502173E+01 -0.12595760495E+02  0.14626585890E+02  0.51100000000E-03 0.  1.
        -12    1    3    3    0    0  0.11449350969E+00  0.65322854285E+01 -0.55278716047E+00  0.65566329262E+01  0.00000000000E+00 0.  1.
</event>
<event>
 7    1  0.2740409E-010  0.4778727E+02  0.7816164E-02  0.1312668E+00
        -11   -1    0    0    0    0  0.00000000000E+00  0.00000000000E+00  0.45593999997E+02  0.45594000000E+02  0.51100000000E-03 0.  1.
         11   -1    0    0    0    0 -0.00000000000E+00 -0.00000000000E+00 -0.45593999997E+02  0.45594000000E+02  0.51100000000E-03 0. -1.
    9900012    2    1    2    0    0  0.33154065284E+02  0.19348359063E+02  0.20250235984E+02  0.47787273040E+02  0.20000009100E+02 0.  0.
        -12    1    1    2    0    0 -0.33154065284E+02 -0.19348359063E+02 -0.20250235984E+02  0.43400726960E+02  0.00000000000E+00 0.  1.
         11    1    3    3    0    0  0.23822167210E+02  0.75070728605E+01  0.10302979665E+02  0.27018571090E+02  0.51100000000E-03 0. -1.
        -11    1    3    3    0    0  0.10021354005E+02  0.10671285439E+02  0.11565238837E+02  0.18656329185E+02  0.51100000000E-03 0.  1.
         12    1    3    3    0    0 -0.68945593212E+00  0.11700007634E+01 -0.16179825186E+01  0.21123727652E+01  0.00000000000E+00 0. -1.
</event>
<event>
 7    1  0.2740409E-010  0.4778727E+02  0.7816164E-02  0.1312668E+00
        -11   -1    0    0    0    0  0.00000000000E+00  0.00000000000E+00  0.45593999997E+02  0.45594000000E+02  0.51100000000E-03 0.  1.
         11   -1    0    0    0    0 -0.00000000000E+00 -0.00000000000E+00 -0.45593999997E+02  0.45594000000E+02  0.51100000000E-03 0. -1.
    9900012    2    1    2    0    0 -0.34736891044E+02 -0.76860177584E+01 -0.24857531187E+02  0.47787270455E+02  0.19999997310E+02 0.  0.
        -12    1    1    2    0    0  0.34736891044E+02  0.76860177584E+01  0.24857531187E+02  0.43400729545E+02  0.00000000000E+00 0.  1.
         11    1    3    3    0    0 -0.86691099623E+01 -0.18437328802E+01 -0.13385449253E+02  0.16053755649E+02  0.51100000000E-03 0. -1.
        -11    1    3    3    0    0 -0.38125611294E+01 -0.46448541108E+00  0.28006342709E+01  0.47534115793E+01  0.51100000000E-03 0.  1.
        -12    1    3    3    0    0 -0.22255219952E+02 -0.53777994671E+01 -0.14272716205E+02  0.26980103226E+02  0.00000000000E+00 0.  1.
</event>
<event>
 7    1  0.2740409E-010  0.4778726E+02  0.7816164E-02  0.1312668E+00
        -11   -1    0    0    0    0  0.00000000000E+00  0.00000000000E+00  0.45593999997E+02  0.45594000000E+02  0.51100000000E-03 0. -1.
         11   -1    0    0    0    0 -0.00000000000E+00 -0.00000000000E+00 -0.45593999997E+02  0.45594000000E+02  0.51100000000E-03 0.  1.
    9900012    2    1    2    0    0  0.26603526539E+02 -0.17436738074E+02  0.29526881704E+02  0.47787260350E+02  0.19999951241E+02 0.  0.
        -12    1    1    2    0    0 -0.26603526539E+02  0.17436738074E+02 -0.29526881704E+02  0.43400739650E+02  0.00000000000E+00 0.  1.
         11    1    3    3    0    0  0.14798557518E+02 -0.19132686629E+02  0.23480483896E+02  0.33710386034E+02  0.51100000000E-03 0. -1.
        -11    1    3    3    0    0  0.17192295266E+01  0.18984799378E+01  0.18068621329E+01  0.31344420983E+01  0.51100000000E-03 0.  1.
         12    1    3    3    0    0  0.10085739495E+02 -0.20253138228E+00  0.42395356750E+01  0.10942432218E+02  0.00000000000E+00 0. -1.
</event>
<event>
 7    1  0.2740409E-010  0.4778727E+02  0.7816164E-02  0.1312668E+00
        -11   -1    0    0    0    0  0.00000000000E+00  0.00000000000E+00  0.45593999997E+02  0.45594000000E+02  0.51100000000E-03 0. -1.
         11   -1    0    0    0    0 -0.00000000000E+00 -0.00000000000E+00 -0.45593999997E+02  0.45594000000E+02  0.51100000000E-03 0.  1.
    9900012    2    1    2    0    0  0.26855634220E+02  0.33534193338E+02  0.61527076375E+01  0.47787273930E+02  0.20000013156E+02 0.  0.
        -12    1    1    2    0    0 -0.26855634220E+02 -0.33534193338E+02 -0.61527076375E+01  0.43400726070E+02  0.00000000000E+00 0.  1.
         11    1    3    3    0    0  0.18189744582E+01  0.77526073853E+01 -0.27080149058E+01  0.84110007931E+01  0.51100000000E-03 0. -1.
        -11    1    3    3    0    0  0.34748467084E+01  0.12398046022E+02  0.44172924204E+01  0.13612442007E+02  0.51100000000E-03 0.  1.
        -12    1    3    3    0    0  0.21561813053E+02  0.13383539930E+02  0.44434301229E+01  0.25763831129E+02  0.00000000000E+00 0.  1.
</event>
<event>
 7    1  0.2740409E-010  0.4778727E+02  0.7816164E-02  0.1312668E+00
        -11   -1    0    0    0    0  0.00000000000E+00  0.00000000000E+00  0.45593999997E+02  0.45594000000E+02  0.51100000000E-03 0.  1.
         11   -1    0    0    0    0 -0.00000000000E+00 -0.00000000000E+00 -0.45593999997E+02  0.45594000000E+02  0.51100000000E-03 0. -1.
    9900012    2    1    2    0    0  0.11520767969E+02  0.19419464486E+02 -0.37064528328E+02  0.47787274710E+02  0.20000016713E+02 0.  0.
        -12    1    1    2    0    0 -0.11520767969E+02 -0.19419464486E+02  0.37064528328E+02  0.43400725290E+02  0.00000000000E+00 0.  1.
         11    1    3    3    0    0  0.64701045183E+01  0.62543478659E+00 -0.26441860561E+01  0.70174882480E+01  0.51100000000E-03 0. -1.
        -11    1    3    3    0    0  0.69121118792E+01  0.18742876844E+02 -0.31830936999E+02  0.37580330939E+02  0.51100000000E-03 0.  1.
        -12    1    3    3    0    0 -0.18614484283E+01  0.51152855714E-01 -0.25894052727E+01  0.31894555228E+01  0.00000000000E+00 0.  1.
</event>
<event>
 7    1  0.2740409E-010  0.4778727E+02  0.7816164E-02  0.1312668E+00
        -11   -1    0    0    0    0  0.00000000000E+00  0.00000000000E+00  0.45593999997E+02  0.45594000000E+02  0.51100000000E-03 0. -1.
         11   -1    0    0    0    0 -0.00000000000E+00 -0.00000000000E+00 -0.45593999997E+02  0.45594000000E+02  0.51100000000E-03 0.  1.
    9900012    2    1    2    0    0  0.17861189896E+02  0.25638335838E+01  0.39471864064E+02  0.47787269593E+02  0.19999993384E+02 0.  0.
        -12    1    1    2    0    0 -0.17861189896E+02 -0.25638335838E+01 -0.39471864064E+02  0.43400730407E+02  0.00000000000E+00 0.  1.
         11    1    3    3    0    0  0.52629371314E+01 -0.23846323068E-01  0.80823512403E+01  0.96448679477E+01  0.51100000000E-03 0. -1.
        -11    1    3    3    0    0  0.16092471212E+02 -0.56054433737E-01  0.28963676906E+02  0.33134051246E+02  0.51100000000E-03 0.  1.
        -12    1    3    3    0    0 -0.34942184476E+01  0.26437343407E+01  0.24258359177E+01  0.50083503994E+01  0.00000000000E+00 0.  1.
</event>
<event>
 7    1  0.2740409E-010  0.4778727E+02  0.7816164E-02  0.1312668E+00
        -11   -1    0    0    0    0  0.00000000000E+00  0.00000000000E+00  0.45593999997E+02  0.45594000000E+02  0.51100000000E-03 0.  1.
         11   -1    0    0    0    0 -0.00000000000E+00 -0.00000000000E+00 -0.45593999997E+02  0.45594000000E+02  0.51100000000E-03 0. -1.
    9900012    2    1    2    0    0 -0.28883038310E+02 -0.21770996684E+02 -0.23987849327E+02  0.47787272887E+02  0.20000008400E+02 0.  0.
        -12    1    1    2    0    0  0.28883038310E+02  0.21770996684E+02  0.23987849327E+02  0.43400727113E+02  0.00000000000E+00 0.  1.
         11    1    3    3    0    0 -0.90209325335E+01 -0.22479521971E+01 -0.35651875113E+01  0.99569611381E+01  0.51100000000E-03 0. -1.
        -11    1    3    3    0    0 -0.21480139394E+02 -0.18072267283E+02 -0.14654505226E+02  0.31666350545E+02  0.51100000000E-03 0.  1.
        -12    1    3    3    0    0  0.16180336176E+01 -0.14507772042E+01 -0.57681565893E+01  0.61639612038E+01  0.00000000000E+00 0.  1.
</event>
<event>
 7    1  0.2740409E-010  0.4778727E+02  0.7816164E-02  0.1312668E+00
        -11   -1    0    0    0    0  0.00000000000E+00  0.00000000000E+00  0.45593999997E+02  0.45594000000E+02  0.51100000000E-03 0.  1.
         11   -1    0    0    0    0 -0.00000000000E+00 -0.00000000000E+00 -0.45593999997E+02  0.45594000000E+02  0.51100000000E-03 0. -1.
    9900012    2    1    2    0    0  0.33248644179E+02  0.34122440790E+01 -0.27685870943E+02  0.47787271904E+02  0.20000003919E+02 0.  0.
        -12    1    1    2    0    0 -0.33248644179E+02 -0.34122440790E+01  0.27685870943E+02  0.43400728096E+02  0.00000000000E+00 0.  1.
         11    1    3    3    0    0  0.26120920317E+02  0.41772636854E+01 -0.10765751917E+02  0.28559646789E+02  0.51100000000E-03 0. -1.
        -11    1    3    3    0    0  0.10077602120E+01 -0.25326469113E+01 -0.43045277546E+01  0.50949818914E+01  0.51100000000E-03 0.  1.
         12    1    3    3    0    0  0.61199636499E+01  0.17676273048E+01 -0.12615591271E+02  0.14132643224E+02  0.00000000000E+00 0. -1.
</event>
<event>
 7    1  0.2740409E-010  0.4778728E+02  0.7816164E-02  0.1312668E+00
        -11   -1    0    0    0    0  0.00000000000E+00  0.00000000000E+00  0.45593999997E+02  0.45594000000E+02  0.51100000000E-03 0.  1.
         11   -1    0    0    0    0 -0.00000000000E+00 -0.00000000000E+00 -0.45593999997E+02  0.45594000000E+02  0.51100000000E-03 0. -1.
    9900012    2    1    2    0    0 -0.30299835113E+02 -0.20710284549E+01 -0.31004080635E+02  0.47787283615E+02  0.20000057315E+02 0.  0.
        -12    1    1    2    0    0  0.30299835113E+02  0.20710284549E+01  0.31004080635E+02  0.43400716385E+02  0.00000000000E+00 0.  1.
         11    1    3    3    0    0 -0.19763274932E+02 -0.95880617789E+01 -0.14737138749E+02  0.26451866163E+02  0.51100000000E-03 0. -1.
        -11    1    3    3    0    0 -0.49624646055E+01  0.45950855354E+01 -0.49320655055E+01  0.83705517411E+01  0.51100000000E-03 0.  1.
         12    1    3    3    0    0 -0.55740955748E+01  0.29219477886E+01 -0.11334876380E+02  0.12964865711E+02  0.00000000000E+00 0. -1.
</event>
<event>
 7    1  0.2740409E-010  0.4778727E+02  0.7816164E-02  0.1312668E+00
        -11   -1    0    0    0    0  0.00000000000E+00  0.00000000000E+00  0.45593999997E+02  0.45594000000E+02  0.51100000000E-03 0.  1.
         11   -1    0    0    0    0 -0.00000000000E+00 -0.00000000000E+00 -0.45593999997E+02  0.45594000000E+02  0.51100000000E-03 0. -1.
    9900012    2    1    2    0    0  0.25368207225E+02  0.16177235900E+02 -0.31278978127E+02  0.47787269915E+02  0.19999994852E+02 0.  0.
        -12    1    1    2    0    0 -0.25368207225E+02 -0.16177235900E+02  0.31278978127E+02  0.43400730085E+02  0.00000000000E+00 0.  1.
         11    1    3    3    0    0  0.15050541363E+02  0.57671618452E+01 -0.72852450567E+01  0.17687672172E+02  0.51100000000E-03 0. -1.
        -11    1    3    3    0    0  0.93599111844E+01  0.48683879992E+01 -0.21497093936E+02  0.23946485902E+02  0.51100000000E-03 0.  1.
        -12    1    3    3    0    0  0.95775467771E+00  0.55416860561E+01 -0.24966391347E+01  0.61531118416E+01  0.00000000000E+00 0.  1.
</event>
<event>
 7    1  0.2740409E-010  0.4778727E+02  0.7816164E-02  0.1312668E+00
        -11   -1    0    0    0    0  0.00000000000E+00  0.00000000000E+00  0.45593999997E+02  0.45594000000E+02  0.51100000000E-03 0. -1.
         11   -1    0    0    0    0 -0.00000000000E+00 -0.00000000000E+00 -0.45593999997E+02  0.45594000000E+02  0.51100000000E-03 0.  1.
    9900012    2    1    2    0    0 -0.56794136118E+01 -0.23063763776E+02  0.36323968308E+02  0.47787267148E+02  0.19999982233E+02 0.  0.
        -12    1    1    2    0    0  0.56794136118E+01  0.23063763776E+02 -0.36323968308E+02  0.43400732852E+02  0.00000000000E+00 0.  1.
         11    1    3    3    0    0 -0.21155619458E+01 -0.13136533205E+02  0.23577223144E+02  0.27072671800E+02  0.51100000000E-03 0. -1.
        -11    1    3    3    0    0 -0.41839558915E+01  0.15414450275E+01  0.16794493737E+01  0.47646710416E+01  0.51100000000E-03 0.  1.
         12    1    3    3    0    0  0.62010422541E+00 -0.11468675599E+02  0.11067295791E+02  0.15949924306E+02  0.00000000000E+00 0. -1.
</event>
<event>
 7    1  0.2740409E-010  0.4778727E+02  0.7816164E-02  0.1312668E+00
        -11   -1    0    0    0    0  0.00000000000E+00  0.00000000000E+00  0.45593999997E+02  0.45594000000E+02  0.51100000000E-03 0.  1.
         11   -1    0    0    0    0 -0.00000000000E+00 -0.00000000000E+00 -0.45593999997E+02  0.45594000000E+02  0.51100000000E-03 0. -1.
    9900012    2    1    2    0    0  0.14894557257E+02  0.18995909283E+02 -0.36068415415E+02  0.47787274246E+02  0.20000014599E+02 0.  0.
        -12    1    1    2    0    0 -0.14894557257E+02 -0.18995909283E+02  0.36068415415E+02  0.43400725754E+02  0.00000000000E+00 0.  1.
         11    1    3    3    0    0  0.38200761078E+01  0.63167344759E+01 -0.19472378053E+02  0.20824687830E+02  0.51100000000E-03 0. -1.
        -11    1    3    3    0    0  0.28407471557E+01  0.12222188311E+02 -0.72232557766E+01  0.14478506683E+02  0.51100000000E-03 0.  1.
        -12    1    3    3    0    0  0.82337339934E+01  0.45698649610E+00 -0.93727815856E+01  0.12484079733E+02  0.00000000000E+00 0.  1.
</event>
<event>
 7    1  0.2740409E-010  0.4778727E+02  0.7816164E-02  0.1312668E+00
        -11   -1    0    0    0    0  0.00000000000E+00  0.00000000000E+00  0.45593999997E+02  0.45594000000E+02  0.51100000000E-03 0.  1.
         11   -1    0    0    0    0 -0.00000000000E+00 -0.00000000000E+00 -0.45593999997E+02  0.45594000000E+02  0.51100000000E-03 0. -1.
    9900012    2    1    2    0    0 -0.23309357762E+02  0.89343504277E+00 -0.36599167082E+02  0.47787269401E+02  0.19999992505E+02 0.  0.
        -12    1    1    2    0    0  0.23309357762E+02 -0.89343504277E+00  0.36599167082E+02  0.43400730599E+02  0.00000000000E+00 0.  1.
         11    1    3    3    0    0 -0.11837664795E+02  0.96484731910E+01 -0.20788984212E+02  0.25795449357E+02  0.51100000000E-03 0. -1.
        -11    1    3    3    0    0 -0.65676028844E+01 -0.54366867254E+01 -0.56370788726E+01  0.10220940694E+02  0.51100000000E-03 0.  1.
         12    1    3    3    0    0 -0.49040900833E+01 -0.33183514228E+01 -0.10173103998E+02  0.11770879349E+02  0.00000000000E+00 0. -1.
</event>
<event>
 7    1  0.2740409E-010  0.4778727E+02  0.7816164E-02  0.1312668E+00
        -11   -1    0    0    0    0  0.00000000000E+00  0.00000000000E+00  0.45593999997E+02  0.45594000000E+02  0.51100000000E-03 0. -1.
         11   -1    0    0    0    0 -0.00000000000E+00 -0.00000000000E+00 -0.45593999997E+02  0.45594000000E+02  0.51100000000E-03 0.  1.
    9900012    2    1    2    0    0 -0.23726852631E+02 -0.34804735608E+02 -0.10454193017E+02  0.47787270650E+02  0.19999998200E+02 0.  0.
        -12    1    1    2    0    0  0.23726852631E+02  0.34804735608E+02  0.10454193017E+02  0.43400729350E+02  0.00000000000E+00 0.  1.
         11    1    3    3    0    0 -0.19193416352E+02 -0.31879605999E+02 -0.72813164489E+01  0.37917200311E+02  0.51100000000E-03 0. -1.
        -11    1    3    3    0    0 -0.51787030808E+01  0.94282293629E+00 -0.27128404449E+01  0.59217720514E+01  0.51100000000E-03 0.  1.
        -12    1    3    3    0    0  0.64526680112E+00 -0.38679525446E+01 -0.46003612309E+00  0.39482982874E+01  0.00000000000E+00 0.  1.
</event>
<event>
 7    1  0.2740409E-010  0.4778727E+02  0.7816164E-02  0.1312668E+00
        -11   -1    0    0    0    0  0.00000000000E+00  0.00000000000E+00  0.45593999997E+02  0.45594000000E+02  0.51100000000E-03 0.  1.
         11   -1    0    0    0    0 -0.00000000000E+00 -0.00000000000E+00 -0.45593999997E+02  0.45594000000E+02  0.51100000000E-03 0. -1.
    9900012    2    1    2    0    0 -0.10494463168E+02  0.36484164272E+02  0.21033206432E+02  0.47787265298E+02  0.19999973801E+02 0.  0.
        -12    1    1    2    0    0  0.10494463168E+02 -0.36484164272E+02 -0.21033206432E+02  0.43400734702E+02  0.00000000000E+00 0.  1.
         11    1    3    3    0    0 -0.13680282898E+01  0.25825888917E+02  0.54377472421E+01  0.26427582846E+02  0.51100000000E-03 0. -1.
        -11    1    3    3    0    0 -0.53623230836E+01  0.85573594672E+01  0.12409831300E+02  0.15999588215E+02  0.51100000000E-03 0.  1.
         12    1    3    3    0    0 -0.37641117948E+01  0.21009158878E+01  0.31856278898E+01  0.53600942364E+01  0.00000000000E+00 0. -1.
</event>
<event>
 7    1  0.2740409E-010  0.4778726E+02  0.7816164E-02  0.1312668E+00
        -11   -1    0    0    0    0  0.00000000000E+00  0.00000000000E+00  0.45593999997E+02  0.45594000000E+02  0.51100000000E-03 0. -1.
         11   -1    0    0    0    0 -0.00000000000E+00 -0.00000000000E+00 -0.45593999997E+02  0.45594000000E+02  0.51100000000E-03 0.  1.
    9900012    2    1    2    0    0  0.18544811281E+02 -0.29608515256E+02  0.25749753891E+02  0.47787262373E+02  0.19999960466E+02 0.  0.
        -12    1    1    2    0    0 -0.18544811281E+02  0.29608515256E+02 -0.25749753891E+02  0.43400737627E+02  0.00000000000E+00 0.  1.
         11    1    3    3    0    0 -0.96838148040E+00 -0.96997595449E+00  0.41345902943E+01  0.43558527531E+01  0.51100000000E-03 0.  1.
        -11    1    3    3    0    0  0.19657823670E+02 -0.19449466185E+02  0.12044028536E+02  0.30162400269E+02  0.51100000000E-03 0. -1.
        -12    1    3    3    0    0 -0.14463090872E+00 -0.91890731161E+01  0.95711350604E+01  0.13269009352E+02  0.00000000000E+00 0.  1.
</event>
<event>
 7    1  0.2740409E-010  0.4778725E+02  0.7816164E-02  0.1312668E+00
        -11   -1    0    0    0    0  0.00000000000E+00  0.00000000000E+00  0.45593999997E+02  0.45594000000E+02  0.51100000000E-03 0. -1.
         11   -1    0    0    0    0 -0.00000000000E+00 -0.00000000000E+00 -0.45593999997E+02  0.45594000000E+02  0.51100000000E-03 0.  1.
    9900012    2    1    2    0    0  0.47568253816E+01  0.39003467117E+02  0.18431702576E+02  0.47787245459E+02  0.19999883347E+02 0.  0.
        -12    1    1    2    0    0 -0.47568253816E+01 -0.39003467117E+02 -0.18431702576E+02  0.43400754541E+02  0.00000000000E+00 0.  1.
         11    1    3    3    0    0 -0.21572187127E+01 -0.90131523781E+00  0.27527642138E+01  0.36116025267E+01  0.51100000000E-03 0. -1.
        -11    1    3    3    0    0  0.40914775746E+01  0.59391032890E+01  0.24824962114E+01  0.76273143584E+01  0.51100000000E-03 0.  1.
         12    1    3    3    0    0  0.28225665198E+01  0.33965679065E+02  0.13196442151E+02  0.36548328574E+02  0.00000000000E+00 0. -1.
</event>
<event>
 7    1  0.2740409E-010  0.4778727E+02  0.7816164E-02  0.1312668E+00
        -11   -1    0    0    0    0  0.00000000000E+00  0.00000000000E+00  0.45593999997E+02  0.45594000000E+02  0.51100000000E-03 0.  1.
         11   -1    0    0    0    0 -0.00000000000E+00 -0.00000000000E+00 -0.45593999997E+02  0.45594000000E+02  0.51100000000E-03 0. -1.
    9900012    2    1    2    0    0 -0.20347358840E+02 -0.38328086884E+02 -0.75215847020E+00  0.47787274219E+02  0.20000014474E+02 0.  0.
        -12    1    1    2    0    0  0.20347358840E+02  0.38328086884E+02  0.75215847020E+00  0.43400725781E+02  0.00000000000E+00 0.  1.
         11    1    3    3    0    0 -0.78184866320E+01 -0.11263314278E+02  0.31525609408E+00  0.13714604201E+02  0.51100000000E-03 0. -1.
        -11    1    3    3    0    0 -0.13547605970E+02 -0.97186712525E+01 -0.86597652564E+00  0.16695511793E+02  0.51100000000E-03 0.  1.
        -12    1    3    3    0    0  0.10187337624E+01 -0.17346101354E+02 -0.20143803864E+00  0.17377158224E+02  0.00000000000E+00 0.  1.
</event>
<event>
 7    1  0.2740409E-010  0.4778727E+02  0.7816164E-02  0.1312668E+00
        -11   -1    0    0    0    0  0.00000000000E+00  0.00000000000E+00  0.45593999997E+02  0.45594000000E+02  0.51100000000E-03 0. -1.
         11   -1    0    0    0    0 -0.00000000000E+00 -0.00000000000E+00 -0.45593999997E+02  0.45594000000E+02  0.51100000000E-03 0.  1.
    9900012    2    1    2    0    0 -0.33126130068E+02  0.26235899612E+02  0.98974885852E+01  0.47787271873E+02  0.20000003777E+02 0.  0.
        -12    1    1    2    0    0  0.33126130068E+02 -0.26235899612E+02 -0.98974885852E+01  0.43400728127E+02  0.00000000000E+00 0.  1.
         11    1    3    3    0    0 -0.55328718098E+01  0.73761394180E+01  0.84320951721E+01  0.12494812221E+02  0.51100000000E-03 0. -1.
        -11    1    3    3    0    0 -0.99230889243E+01  0.19059003339E+01 -0.26849907391E+01  0.10455110014E+02  0.51100000000E-03 0.  1.
        -12    1    3    3    0    0 -0.17670169333E+02  0.16953859860E+02  0.41503841522E+01  0.24837349638E+02  0.00000000000E+00 0.  1.
</event>
<event>
 7    1  0.2740409E-010  0.4778727E+02  0.7816164E-02  0.1312668E+00
        -11   -1    0    0    0    0  0.00000000000E+00  0.00000000000E+00  0.45593999997E+02  0.45594000000E+02  0.51100000000E-03 0.  1.
         11   -1    0    0    0    0 -0.00000000000E+00 -0.00000000000E+00 -0.45593999997E+02  0.45594000000E+02  0.51100000000E-03 0. -1.
    9900012    2    1    2    0    0 -0.26901436813E+02  0.11920485752E+02 -0.31903576677E+02  0.47787268578E+02  0.19999988756E+02 0.  0.
        -12    1    1    2    0    0  0.26901436813E+02 -0.11920485752E+02  0.31903576677E+02  0.43400731422E+02  0.00000000000E+00 0.  1.
         11    1    3    3    0    0 -0.14056823010E+02  0.79533116200E+01 -0.27406570358E+02  0.31811468654E+02  0.51100000000E-03 0. -1.
        -11    1    3    3    0    0 -0.12308852381E+02  0.23740714500E+01 -0.16147650948E+01  0.12639285137E+02  0.51100000000E-03 0.  1.
         12    1    3    3    0    0 -0.53576142092E+00  0.15931026815E+01 -0.28822412241E+01  0.33365147876E+01  0.00000000000E+00 0. -1.
</event>
<event>
 7    1  0.2740409E-010  0.4778727E+02  0.7816164E-02  0.1312668E+00
        -11   -1    0    0    0    0  0.00000000000E+00  0.00000000000E+00  0.45593999997E+02  0.45594000000E+02  0.51100000000E-03 0.  1.
         11   -1    0    0    0    0 -0.00000000000E+00 -0.00000000000E+00 -0.45593999997E+02  0.45594000000E+02  0.51100000000E-03 0. -1.
    9900012    2    1    2    0    0  0.30379471060E+02  0.29120034000E+02 -0.10617648674E+02  0.47787272985E+02  0.20000008847E+02 0.  0.
        -12    1    1    2    0    0 -0.30379471060E+02 -0.29120034000E+02  0.10617648674E+02  0.43400727015E+02  0.00000000000E+00 0.  1.
         11    1    3    3    0    0  0.21164493954E+02  0.23210762237E+02 -0.97230347211E+01  0.32881798802E+02  0.51100000000E-03 0. -1.
        -11    1    3    3    0    0 -0.11800486606E+01 -0.17411326289E+00  0.21710761361E+01  0.24771762391E+01  0.51100000000E-03 0.  1.
         12    1    3    3    0    0  0.10395025767E+02  0.60833850257E+01 -0.30656900891E+01  0.12428297944E+02  0.00000000000E+00 0. -1.
</event>
<event>
 7    1  0.2740409E-010  0.4778727E+02  0.7816164E-02  0.1312668E+00
        -11   -1    0    0    0    0  0.00000000000E+00  0.00000000000E+00  0.45593999997E+02  0.45594000000E+02  0.51100000000E-03 0.  1.
         11   -1    0    0    0    0 -0.00000000000E+00 -0.00000000000E+00 -0.45593999997E+02  0.45594000000E+02  0.51100000000E-03 0. -1.
    9900012    2    1    2    0    0 -0.58799186497E+01  0.32851514178E+02 -0.27745774482E+02  0.47787269260E+02  0.19999991865E+02 0.  0.
        -12    1    1    2    0    0  0.58799186497E+01 -0.32851514178E+02  0.27745774482E+02  0.43400730740E+02  0.00000000000E+00 0.  1.
         11    1    3    3    0    0  0.25809435381E+01  0.21854698321E+02 -0.12459543242E+02  0.25288917065E+02  0.51100000000E-03 0.  1.
        -11    1    3    3    0    0 -0.42355934710E+01 -0.15348700780E+00 -0.61849914802E+01  0.74978617075E+01  0.51100000000E-03 0. -1.
        -12    1    3    3    0    0 -0.42252687169E+01  0.11150302865E+02 -0.91012397599E+01  0.15000490488E+02  0.00000000000E+00 0.  1.
</event>
<event>
 7    1  0.2740409E-010  0.4778727E+02  0.7816164E-02  0.1312668E+00
        -11   -1    0    0    0    0  0.00000000000E+00  0.00000000000E+00  0.45593999997E+02  0.45594000000E+02  0.51100000000E-03 0.  1.
         11   -1    0    0    0    0 -0.00000000000E+00 -0.00000000000E+00 -0.45593999997E+02  0.45594000000E+02  0.51100000000E-03 0. -1.
    9900012    2    1    2    0    0  0.23123429749E+02  0.36138163099E+02 -0.65546371542E+01  0.47787273005E+02  0.20000008937E+02 0.  0.
        -12    1    1    2    0    0 -0.23123429749E+02 -0.36138163099E+02  0.65546371542E+01  0.43400726995E+02  0.00000000000E+00 0.  1.
         11    1    3    3    0    0  0.83950075640E+01  0.27097153752E+02 -0.42724606431E+01  0.28687729322E+02  0.51100000000E-03 0. -1.
        -11    1    3    3    0    0  0.77153352294E+01  0.30965693319E+00 -0.15571839099E+01  0.78769986104E+01  0.51100000000E-03 0.  1.
         12    1    3    3    0    0  0.70130869553E+01  0.87313524136E+01 -0.72499260119E+00  0.11222545072E+02  0.00000000000E+00 0. -1.
</event>
<event>
 7    1  0.2740409E-010  0.4778727E+02  0.7816164E-02  0.1312668E+00
        -11   -1    0    0    0    0  0.00000000000E+00  0.00000000000E+00  0.45593999997E+02  0.45594000000E+02  0.51100000000E-03 0.  1.
         11   -1    0    0    0    0 -0.00000000000E+00 -0.00000000000E+00 -0.45593999997E+02  0.45594000000E+02  0.51100000000E-03 0. -1.
    9900012    2    1    2    0    0 -0.16600846579E+02 -0.29750698770E+02 -0.26887374979E+02  0.47787272844E+02  0.20000008204E+02 0.  0.
        -12    1    1    2    0    0  0.16600846579E+02  0.29750698770E+02  0.26887374979E+02  0.43400727156E+02  0.00000000000E+00 0.  1.
         11    1    3    3    0    0 -0.12666987482E+02 -0.26567833645E+02 -0.17927766008E+02  0.34463127408E+02  0.51100000000E-03 0. -1.
        -11    1    3    3    0    0  0.14158040886E+01 -0.93490152793E+00  0.87215967619E+00  0.19076700045E+01  0.51100000000E-03 0.  1.
         12    1    3    3    0    0 -0.53496631857E+01 -0.22479635965E+01 -0.98317686472E+01  0.11416475431E+02  0.00000000000E+00 0. -1.
</event>
<event>
 7    1  0.2740409E-010  0.4778730E+02  0.7816164E-02  0.1312668E+00
        -11   -1    0    0    0    0  0.00000000000E+00  0.00000000000E+00  0.45593999997E+02  0.45594000000E+02  0.51100000000E-03 0.  1.
         11   -1    0    0    0    0 -0.00000000000E+00 -0.00000000000E+00 -0.45593999997E+02  0.45594000000E+02  0.51100000000E-03 0. -1.
    9900012    2    1    2    0    0  0.69724643437E+01  0.37328512765E+02 -0.21013994620E+02  0.47787296156E+02  0.20000114494E+02 0.  0.
        -12    1    1    2    0    0 -0.69724643437E+01 -0.37328512765E+02  0.21013994620E+02  0.43400703844E+02  0.00000000000E+00 0.  1.
         11    1    3    3    0    0  0.42965263792E+01  0.10198661085E+02 -0.10926050304E+02  0.15551572344E+02  0.51100000000E-03 0. -1.
        -11    1    3    3    0    0  0.70427787923E+01  0.12948145277E+02 -0.86649284965E+00  0.14765026561E+02  0.51100000000E-03 0.  1.
        -12    1    3    3    0    0 -0.43668408278E+01  0.14181706402E+02 -0.92214514667E+01  0.17470697251E+02  0.00000000000E+00 0.  1.
</event>
<event>
 7    1  0.2740409E-010  0.4778728E+02  0.7816164E-02  0.1312668E+00
        -11   -1    0    0    0    0  0.00000000000E+00  0.00000000000E+00  0.45593999997E+02  0.45594000000E+02  0.51100000000E-03 0. -1.
         11   -1    0    0    0    0 -0.00000000000E+00 -0.00000000000E+00 -0.45593999997E+02  0.45594000000E+02  0.51100000000E-03 0.  1.
    9900012    2    1    2    0    0  0.30120386011E+02  0.11882857106E+01  0.31224556364E+02  0.47787278848E+02  0.20000035578E+02 0.  0.
        -12    1    1    2    0    0 -0.30120386011E+02 -0.11882857106E+01 -0.31224556364E+02  0.43400721152E+02  0.00000000000E+00 0.  1.
         11    1    3    3    0    0  0.16893579542E+02  0.28981721102E+01  0.16078439570E+02  0.23501247852E+02  0.51100000000E-03 0. -1.
        -11    1    3    3    0    0  0.77026725253E+01 -0.73767059039E+01  0.61777481296E+01  0.12325239399E+02  0.51100000000E-03 0.  1.
        -12    1    3    3    0    0  0.55241339442E+01  0.56668195043E+01  0.89683686644E+01  0.11960791597E+02  0.00000000000E+00 0.  1.
</event>
<event>
 7    1  0.2740409E-010  0.4778727E+02  0.7816164E-02  0.1312668E+00
        -11   -1    0    0    0    0  0.00000000000E+00  0.00000000000E+00  0.45593999997E+02  0.45594000000E+02  0.51100000000E-03 0.  1.
         11   -1    0    0    0    0 -0.00000000000E+00 -0.00000000000E+00 -0.45593999997E+02  0.45594000000E+02  0.51100000000E-03 0. -1.
    9900012    2    1    2    0    0 -0.12823623557E+02 -0.79430863022E+00 -0.41455362706E+02  0.47787270232E+02  0.19999996296E+02 0.  0.
        -12    1    1    2    0    0  0.12823623557E+02  0.79430863022E+00  0.41455362706E+02  0.43400729768E+02  0.00000000000E+00 0.  1.
         11    1    3    3    0    0 -0.84879201686E+00 -0.38652814874E+01 -0.61605105694E+00  0.40050428250E+01  0.51100000000E-03 0. -1.
        -11    1    3    3    0    0  0.82486811572E+00 -0.65547813261E+00 -0.28278075383E+00  0.10908823064E+01  0.51100000000E-03 0.  1.
         12    1    3    3    0    0 -0.12799699656E+02  0.37264509897E+01 -0.40556530895E+02  0.42691345101E+02  0.00000000000E+00 0. -1.
</event>
<event>
 7    1  0.2740409E-010  0.4778727E+02  0.7816164E-02  0.1312668E+00
        -11   -1    0    0    0    0  0.00000000000E+00  0.00000000000E+00  0.45593999997E+02  0.45594000000E+02  0.51100000000E-03 0.  1.
         11   -1    0    0    0    0 -0.00000000000E+00 -0.00000000000E+00 -0.45593999997E+02  0.45594000000E+02  0.51100000000E-03 0. -1.
    9900012    2    1    2    0    0 -0.31397862016E+02 -0.29221787786E+02 -0.66245539110E+01  0.47787270339E+02  0.19999996786E+02 0.  0.
        -12    1    1    2    0    0  0.31397862016E+02  0.29221787786E+02  0.66245539110E+01  0.43400729661E+02  0.00000000000E+00 0.  1.
         11    1    3    3    0    0 -0.25828423873E+02 -0.20219042904E+02 -0.69837547457E+01  0.33536398231E+02  0.51100000000E-03 0. -1.
        -11    1    3    3    0    0 -0.58312347516E+00 -0.33639311049E+01 -0.42292786724E+01  0.54353347473E+01  0.51100000000E-03 0.  1.
         12    1    3    3    0    0 -0.49863146675E+01 -0.56388137770E+01  0.45884795071E+01  0.88155373610E+01  0.00000000000E+00 0. -1.
</event>
<event>
 7    1  0.2740409E-010  0.4778727E+02  0.7816164E-02  0.1312668E+00
        -11   -1    0    0    0    0  0.00000000000E+00  0.00000000000E+00  0.45593999997E+02  0.45594000000E+02  0.51100000000E-03 0.  1.
         11   -1    0    0    0    0 -0.00000000000E+00 -0.00000000000E+00 -0.45593999997E+02  0.45594000000E+02  0.51100000000E-03 0. -1.
    9900012    2    1    2    0    0 -0.23168251776E+02 -0.33335405864E+02  0.15349468428E+02  0.47787270104E+02  0.19999995714E+02 0.  0.
        -12    1    1    2    0    0  0.23168251776E+02  0.33335405864E+02 -0.15349468428E+02  0.43400729896E+02  0.00000000000E+00 0.  1.
         11    1    3    3    0    0 -0.50872175989E+01 -0.54746656245E+01 -0.11445026555E+01  0.75605312768E+01  0.51100000000E-03 0. -1.
        -11    1    3    3    0    0 -0.13949922902E+02 -0.26456587283E+02  0.84569039751E+01  0.31081676029E+02  0.51100000000E-03 0.  1.
        -12    1    3    3    0    0 -0.41311112750E+01 -0.14041529560E+01  0.80370671086E+01  0.91450627990E+01  0.00000000000E+00 0.  1.
</event>
<event>
 7    1  0.2740409E-010  0.4778727E+02  0.7816164E-02  0.1312668E+00
        -11   -1    0    0    0    0  0.00000000000E+00  0.00000000000E+00  0.45593999997E+02  0.45594000000E+02  0.51100000000E-03 0.  1.
         11   -1    0    0    0    0 -0.00000000000E+00 -0.00000000000E+00 -0.45593999997E+02  0.45594000000E+02  0.51100000000E-03 0. -1.
    9900012    2    1    2    0    0 -0.18785242798E+02 -0.14887661890E+02 -0.36181424426E+02  0.47787270778E+02  0.19999998786E+02 0.  0.
        -12    1    1    2    0    0  0.18785242798E+02  0.14887661890E+02  0.36181424426E+02  0.43400729222E+02  0.00000000000E+00 0.  1.
         11    1    3    3    0    0 -0.33241918052E+01 -0.76989500471E+01 -0.14610463920E+02  0.16846060050E+02  0.51100000000E-03 0. -1.
        -11    1    3    3    0    0 -0.22489298475E+01  0.34201217891E+01 -0.86100419738E+00  0.41828515394E+01  0.51100000000E-03 0.  1.
        -12    1    3    3    0    0 -0.13212121145E+02 -0.10608833632E+02 -0.20709956308E+02  0.26758359188E+02  0.00000000000E+00 0.  1.
</event>
<event>
 7    1  0.2740409E-010  0.4778727E+02  0.7816164E-02  0.1312668E+00
        -11   -1    0    0    0    0  0.00000000000E+00  0.00000000000E+00  0.45593999997E+02  0.45594000000E+02  0.51100000000E-03 0.  1.
         11   -1    0    0    0    0 -0.00000000000E+00 -0.00000000000E+00 -0.45593999997E+02  0.45594000000E+02  0.51100000000E-03 0. -1.
    9900012    2    1    2    0    0 -0.25072534585E+02  0.23710106540E+02 -0.26321514594E+02  0.47787271053E+02  0.20000000037E+02 0.  0.
        -12    1    1    2    0    0  0.25072534585E+02 -0.23710106540E+02  0.26321514594E+02  0.43400728947E+02  0.00000000000E+00 0.  1.
         11    1    3    3    0    0 -0.75759263604E+01 -0.22460172707E+01 -0.89122109974E+01  0.11910783304E+02  0.51100000000E-03 0.  1.
        -11    1    3    3    0    0 -0.10097585169E+02  0.15774406037E+02 -0.11435237550E+02  0.21944424580E+02  0.51100000000E-03 0. -1.
        -12    1    3    3    0    0 -0.73990230558E+01  0.10181717774E+02 -0.59740660468E+01  0.13932063169E+02  0.00000000000E+00 0.  1.
</event>
<event>
 7    1  0.2740409E-010  0.4778727E+02  0.7816164E-02  0.1312668E+00
        -11   -1    0    0    0    0  0.00000000000E+00  0.00000000000E+00  0.45593999997E+02  0.45594000000E+02  0.51100000000E-03 0.  1.
         11   -1    0    0    0    0 -0.00000000000E+00 -0.00000000000E+00 -0.45593999997E+02  0.45594000000E+02  0.51100000000E-03 0. -1.
    9900012    2    1    2    0    0  0.59399431518E+01 -0.66169567224E+01 -0.42480073976E+02  0.47787265836E+02  0.19999976254E+02 0.  0.
        -12    1    1    2    0    0 -0.59399431518E+01  0.66169567224E+01  0.42480073976E+02  0.43400734164E+02  0.00000000000E+00 0.  1.
         11    1    3    3    0    0 -0.64725274776E+00 -0.39807648184E+01 -0.59392238633E+01  0.71791228585E+01  0.51100000000E-03 0. -1.
        -11    1    3    3    0    0  0.17424664211E+00 -0.88088198777E+01 -0.18520798019E+02  0.20509647219E+02  0.51100000000E-03 0.  1.
        -12    1    3    3    0    0  0.64129492574E+01  0.61726279737E+01 -0.18020052094E+02  0.20098495759E+02  0.00000000000E+00 0.  1.
</event>
<event>
 7    1  0.2740409E-010  0.4778727E+02  0.7816164E-02  0.1312668E+00
        -11   -1    0    0    0    0  0.00000000000E+00  0.00000000000E+00  0.45593999997E+02  0.45594000000E+02  0.51100000000E-03 0.  1.
         11   -1    0    0    0    0 -0.00000000000E+00 -0.00000000000E+00 -0.45593999997E+02  0.45594000000E+02  0.51100000000E-03 0. -1.
    9900012    2    1    2    0    0  0.12007119873E+02  0.14798192407E+01 -0.41680480488E+02  0.47787271362E+02  0.20000001447E+02 0.  0.
        -12    1    1    2    0    0 -0.12007119873E+02 -0.14798192407E+01  0.41680480488E+02  0.43400728638E+02  0.00000000000E+00 0.  1.
         11    1    3    3    0    0  0.69184011476E+01  0.31984893768E+01 -0.25645663629E+02  0.26754339311E+02  0.51100000000E-03 0. -1.
        -11    1    3    3    0    0  0.89274900678E+00  0.18892157472E+01  0.15476012431E+01  0.26002320660E+01  0.51100000000E-03 0.  1.
         12    1    3    3    0    0  0.41959697190E+01 -0.36078858833E+01 -0.17582418102E+02  0.18432699985E+02  0.00000000000E+00 0. -1.
</event>
<event>
 7    1  0.2740409E-010  0.4778727E+02  0.7816164E-02  0.1312668E+00
        -11   -1    0    0    0    0  0.00000000000E+00  0.00000000000E+00  0.45593999997E+02  0.45594000000E+02  0.51100000000E-03 0.  1.
         11   -1    0    0    0    0 -0.00000000000E+00 -0.00000000000E+00 -0.45593999997E+02  0.45594000000E+02  0.51100000000E-03 0. -1.
    9900012    2    1    2    0    0  0.19021012866E+02  0.13869187875E+02 -0.36461898640E+02  0.47787270107E+02  0.19999995727E+02 0.  0.
        -12    1    1    2    0    0 -0.19021012866E+02 -0.13869187875E+02  0.36461898640E+02  0.43400729893E+02  0.00000000000E+00 0.  1.
         11    1    3    3    0    0  0.18021125927E+02  0.96318376740E+01 -0.35412735373E+02  0.40885145267E+02  0.51100000000E-03 0. -1.
        -11    1    3    3    0    0  0.28277087611E+01  0.31734424665E+01  0.50103885109E+00  0.42799198727E+01  0.51100000000E-03 0.  1.
         12    1    3    3    0    0 -0.18278218225E+01  0.10639077346E+01 -0.15502021187E+01  0.26222049674E+01  0.00000000000E+00 0. -1.
</event>
<event>
 7    1  0.2740409E-010  0.4778727E+02  0.7816164E-02  0.1312668E+00
        -11   -1    0    0    0    0  0.00000000000E+00  0.00000000000E+00  0.45593999997E+02  0.45594000000E+02  0.51100000000E-03 0. -1.
         11   -1    0    0    0    0 -0.00000000000E+00 -0.00000000000E+00 -0.45593999997E+02  0.45594000000E+02  0.51100000000E-03 0.  1.
    9900012    2    1    2    0    0  0.42948309193E+02 -0.58010437193E+01 -0.23268525845E+01  0.47787267129E+02  0.19999982147E+02 0.  0.
        -12    1    1    2    0    0 -0.42948309193E+02  0.58010437193E+01  0.23268525845E+01  0.43400732871E+02  0.00000000000E+00 0.  1.
         11    1    3    3    0    0  0.86979289883E+01  0.76264041128E+00 -0.47057611044E-01  0.87314262158E+01  0.51100000000E-03 0. -1.
        -11    1    3    3    0    0  0.20206785638E+02  0.49614036144E+01 -0.17574020280E+01  0.20881048197E+02  0.51100000000E-03 0.  1.
        -12    1    3    3    0    0  0.14043594567E+02 -0.11525087745E+02 -0.52239294552E+00  0.18174792717E+02  0.00000000000E+00 0.  1.
</event>
<event>
 7    1  0.2740409E-010  0.4778728E+02  0.7816164E-02  0.1312668E+00
        -11   -1    0    0    0    0  0.00000000000E+00  0.00000000000E+00  0.45593999997E+02  0.45594000000E+02  0.51100000000E-03 0.  1.
         11   -1    0    0    0    0 -0.00000000000E+00 -0.00000000000E+00 -0.45593999997E+02  0.45594000000E+02  0.51100000000E-03 0. -1.
    9900012    2    1    2    0    0 -0.38274274671E+02  0.13964809821E+02 -0.14956148479E+02  0.47787281201E+02  0.20000046308E+02 0.  0.
        -12    1    1    2    0    0  0.38274274671E+02 -0.13964809821E+02  0.14956148479E+02  0.43400718799E+02  0.00000000000E+00 0.  1.
         11    1    3    3    0    0 -0.32826652157E+02  0.79021902763E+01 -0.10226187183E+02  0.35279010864E+02  0.51100000000E-03 0. -1.
        -11    1    3    3    0    0  0.63042035407E-01  0.18005592452E+01  0.20898847608E+01  0.27592764393E+01  0.51100000000E-03 0.  1.
        -12    1    3    3    0    0 -0.55106645497E+01  0.42620602994E+01 -0.68198460569E+01  0.97489938975E+01  0.00000000000E+00 0.  1.
</event>
<event>
 7    1  0.2740409E-010  0.4778728E+02  0.7816164E-02  0.1312668E+00
        -11   -1    0    0    0    0  0.00000000000E+00  0.00000000000E+00  0.45593999997E+02  0.45594000000E+02  0.51100000000E-03 0.  1.
         11   -1    0    0    0    0 -0.00000000000E+00 -0.00000000000E+00 -0.45593999997E+02  0.45594000000E+02  0.51100000000E-03 0. -1.
    9900012    2    1    2    0    0 -0.24339341498E+01  0.30550212550E+02 -0.30730814598E+02  0.47787280097E+02  0.20000041273E+02 0.  0.
        -12    1    1    2    0    0  0.24339341498E+01 -0.30550212550E+02  0.30730814598E+02  0.43400719903E+02  0.00000000000E+00 0.  1.
         11    1    3    3    0    0 -0.82688981027E+01  0.20952380706E+02 -0.27911341969E+02  0.35866696863E+02  0.51100000000E-03 0. -1.
        -11    1    3    3    0    0  0.12425972238E+01  0.17207480276E+01 -0.17289722098E+01  0.27375841172E+01  0.51100000000E-03 0.  1.
         12    1    3    3    0    0  0.45923667290E+01  0.78770838155E+01 -0.10905004189E+01  0.91829991165E+01  0.00000000000E+00 0. -1.
</event>
<event>
 7    1  0.2740409E-010  0.4778727E+02  0.7816164E-02  0.1312668E+00
        -11   -1    0    0    0    0  0.00000000000E+00  0.00000000000E+00  0.45593999997E+02  0.45594000000E+02  0.51100000000E-03 0.  1.
         11   -1    0    0    0    0 -0.00000000000E+00 -0.00000000000E+00 -0.45593999997E+02  0.45594000000E+02  0.51100000000E-03 0. -1.
    9900012    2    1    2    0    0 -0.43110771134E+02  0.49350251772E+01 -0.85456071588E+00  0.47787270337E+02  0.19999996774E+02 0.  0.
        -12    1    1    2    0    0  0.43110771134E+02 -0.49350251772E+01  0.85456071588E+00  0.43400729663E+02  0.00000000000E+00 0.  1.
         11    1    3    3    0    0 -0.87052291677E+01  0.59739921271E+00  0.69362205011E+01  0.11146706051E+02  0.51100000000E-03 0. -1.
        -11    1    3    3    0    0 -0.13236643560E+02 -0.23019049640E+01 -0.11606742153E+01  0.13485349981E+02  0.51100000000E-03 0.  1.
         12    1    3    3    0    0 -0.21168898406E+02  0.66395309286E+01 -0.66301070017E+01  0.23155214305E+02  0.00000000000E+00 0. -1.
</event>
<event>
 7    1  0.2740409E-010  0.4778727E+02  0.7816164E-02  0.1312668E+00
        -11   -1    0    0    0    0  0.00000000000E+00  0.00000000000E+00  0.45593999997E+02  0.45594000000E+02  0.51100000000E-03 0.  1.
         11   -1    0    0    0    0 -0.00000000000E+00 -0.00000000000E+00 -0.45593999997E+02  0.45594000000E+02  0.51100000000E-03 0. -1.
    9900012    2    1    2    0    0 -0.32504049610E+02 -0.66454566743E+01 -0.27981204218E+02  0.47787272760E+02  0.20000007824E+02 0.  0.
        -12    1    1    2    0    0  0.32504049610E+02  0.66454566743E+01  0.27981204218E+02  0.43400727240E+02  0.00000000000E+00 0.  1.
         11    1    3    3    0    0 -0.50068683517E+01  0.40133780745E+00 -0.12213719649E+02  0.13206239080E+02  0.51100000000E-03 0. -1.
        -11    1    3    3    0    0 -0.76762463752E+01 -0.54962985917E+01 -0.39447284402E+00  0.94493209126E+01  0.51100000000E-03 0.  1.
         12    1    3    3    0    0 -0.19820934883E+02 -0.15504958900E+01 -0.15373011725E+02  0.25131712768E+02  0.00000000000E+00 0. -1.
</event>
<event>
 7    1  0.2740409E-010  0.4778729E+02  0.7816164E-02  0.1312668E+00
        -11   -1    0    0    0    0  0.00000000000E+00  0.00000000000E+00  0.45593999997E+02  0.45594000000E+02  0.51100000000E-03 0.  1.
         11   -1    0    0    0    0 -0.00000000000E+00 -0.00000000000E+00 -0.45593999997E+02  0.45594000000E+02  0.51100000000E-03 0. -1.
    9900012    2    1    2    0    0  0.32997353370E+02  0.26545193792E+02 -0.94946823740E+01  0.47787289911E+02  0.20000086020E+02 0.  0.
        -12    1    1    2    0    0 -0.32997353370E+02 -0.26545193792E+02  0.94946823740E+01  0.43400710089E+02  0.00000000000E+00 0.  1.
         11    1    3    3    0    0  0.10027956284E+02  0.52798226583E+01 -0.63162434917E+01  0.12974257846E+02  0.51100000000E-03 0. -1.
        -11    1    3    3    0    0  0.71893314638E+01 -0.83568124757E+00  0.11028533460E+01  0.73212796565E+01  0.51100000000E-03 0.  1.
        -12    1    3    3    0    0  0.15780065622E+02  0.22101052381E+02 -0.42812922283E+01  0.27491752409E+02  0.00000000000E+00 0.  1.
</event>
<event>
 7    1  0.2740409E-010  0.4778729E+02  0.7816164E-02  0.1312668E+00
        -11   -1    0    0    0    0  0.00000000000E+00  0.00000000000E+00  0.45593999997E+02  0.45594000000E+02  0.51100000000E-03 0.  1.
         11   -1    0    0    0    0 -0.00000000000E+00 -0.00000000000E+00 -0.45593999997E+02  0.45594000000E+02  0.51100000000E-03 0. -1.
    9900012    2    1    2    0    0 -0.25611111755E+02 -0.12830929678E+01 -0.35014944623E+02  0.47787288948E+02  0.20000081629E+02 0.  0.
        -12    1    1    2    0    0  0.25611111755E+02  0.12830929678E+01  0.35014944623E+02  0.43400711052E+02  0.00000000000E+00 0.  1.
         11    1    3    3    0    0 -0.16791999409E+02  0.51913450763E+01 -0.25051695315E+02  0.30602430398E+02  0.51100000000E-03 0. -1.
        -11    1    3    3    0    0 -0.57765702151E+01 -0.69158496739E+01 -0.10734450656E+02  0.14015212140E+02  0.51100000000E-03 0.  1.
         12    1    3    3    0    0 -0.30425421308E+01  0.44141162988E+00  0.77120134892E+00  0.31696464102E+01  0.00000000000E+00 0. -1.
</event>
<event>
 7    1  0.2740409E-010  0.4778726E+02  0.7816164E-02  0.1312668E+00
        -11   -1    0    0    0    0  0.00000000000E+00  0.00000000000E+00  0.45593999997E+02  0.45594000000E+02  0.51100000000E-03 0.  1.
         11   -1    0    0    0    0 -0.00000000000E+00 -0.00000000000E+00 -0.45593999997E+02  0.45594000000E+02  0.51100000000E-03 0. -1.
    9900012    2    1    2    0    0 -0.48048778128E+01  0.32679401064E+02 -0.28153042811E+02  0.47787263552E+02  0.19999965840E+02 0.  0.
        -12    1    1    2    0    0  0.48048778128E+01 -0.32679401064E+02  0.28153042811E+02  0.43400736448E+02  0.00000000000E+00 0.  1.
         11    1    3    3    0    0 -0.34065775538E+01  0.12382796718E+02 -0.17048570452E+02  0.21344605405E+02  0.51100000000E-03 0. -1.
        -11    1    3    3    0    0  0.30385252043E+01  0.13311571991E+01  0.10552492164E+01  0.34811156366E+01  0.51100000000E-03 0.  1.
        -12    1    3    3    0    0 -0.44368254633E+01  0.18965447147E+02 -0.12159721576E+02  0.22961542511E+02  0.00000000000E+00 0.  1.
</event>
<event>
 7    1  0.2740409E-010  0.4778727E+02  0.7816164E-02  0.1312668E+00
        -11   -1    0    0    0    0  0.00000000000E+00  0.00000000000E+00  0.45593999997E+02  0.45594000000E+02  0.51100000000E-03 0. -1.
         11   -1    0    0    0    0 -0.00000000000E+00 -0.00000000000E+00 -0.45593999997E+02  0.45594000000E+02  0.51100000000E-03 0.  1.
    9900012    2    1    2    0    0  0.31000239014E+02  0.26205551514E+02  0.15358312279E+02  0.47787268380E+02  0.19999987854E+02 0.  0.
        -12    1    1    2    0    0 -0.31000239014E+02 -0.26205551514E+02 -0.15358312279E+02  0.43400731620E+02  0.00000000000E+00 0.  1.
         11    1    3    3    0    0  0.22239380236E+02  0.14003218551E+02  0.36225137585E+01  0.26529281356E+02  0.51100000000E-03 0. -1.
        -11    1    3    3    0    0 -0.17854842398E+01  0.15114225368E+01  0.25168094539E+00  0.23528059025E+01  0.51100000000E-03 0.  1.
        -12    1    3    3    0    0  0.10546343018E+02  0.10690910426E+02  0.11484117575E+02  0.18905181122E+02  0.00000000000E+00 0.  1.
</event>
<event>
 7    1  0.2740409E-010  0.4778727E+02  0.7816164E-02  0.1312668E+00
        -11   -1    0    0    0    0  0.00000000000E+00  0.00000000000E+00  0.45593999997E+02  0.45594000000E+02  0.51100000000E-03 0. -1.
         11   -1    0    0    0    0 -0.00000000000E+00 -0.00000000000E+00 -0.45593999997E+02  0.45594000000E+02  0.51100000000E-03 0.  1.
    9900012    2    1    2    0    0 -0.34477303450E+01 -0.59048583048E+01  0.42858714699E+02  0.47787267036E+02  0.19999981724E+02 0.  0.
        -12    1    1    2    0    0  0.34477303450E+01  0.59048583048E+01 -0.42858714699E+02  0.43400732964E+02  0.00000000000E+00 0.  1.
         11    1    3    3    0    0 -0.62834076608E+01 -0.82744892967E+01  0.33449835959E+02  0.35026274579E+02  0.51100000000E-03 0. -1.
        -11    1    3    3    0    0  0.15266783167E+01  0.45361773932E+01  0.90046757730E+01  0.10197638847E+02  0.51100000000E-03 0.  1.
        -12    1    3    3    0    0  0.13089989991E+01 -0.21665464014E+01  0.40420296756E+00  0.25633536096E+01  0.00000000000E+00 0.  1.
</event>
<event>
 7    1  0.2740409E-010  0.4778726E+02  0.7816164E-02  0.1312668E+00
        -11   -1    0    0    0    0  0.00000000000E+00  0.00000000000E+00  0.45593999997E+02  0.45594000000E+02  0.51100000000E-03 0. -1.
         11   -1    0    0    0    0 -0.00000000000E+00 -0.00000000000E+00 -0.45593999997E+02  0.45594000000E+02  0.51100000000E-03 0.  1.
    9900012    2    1    2    0    0  0.94353971857E+01 -0.32983728250E+02  0.26583282523E+02  0.47787263151E+02  0.19999964012E+02 0.  0.
        -12    1    1    2    0    0 -0.94353971857E+01  0.32983728250E+02 -0.26583282523E+02  0.43400736849E+02  0.00000000000E+00 0.  1.
         11    1    3    3    0    0  0.86777394226E+01 -0.31483410488E+02  0.17899438586E+02  0.37241082146E+02  0.51100000000E-03 0. -1.
        -11    1    3    3    0    0  0.22821676775E+01 -0.19170283719E+01  0.17969598591E+01  0.34802804604E+01  0.51100000000E-03 0.  1.
         12    1    3    3    0    0 -0.15245099144E+01  0.41671060965E+00  0.68868840782E+01  0.70659005454E+01  0.00000000000E+00 0. -1.
</event>
<event>
 7    1  0.2740409E-010  0.4778727E+02  0.7816164E-02  0.1312668E+00
        -11   -1    0    0    0    0  0.00000000000E+00  0.00000000000E+00  0.45593999997E+02  0.45594000000E+02  0.51100000000E-03 0.  1.
         11   -1    0    0    0    0 -0.00000000000E+00 -0.00000000000E+00 -0.45593999997E+02  0.45594000000E+02  0.51100000000E-03 0. -1.
    9900012    2    1    2    0    0  0.30486734730E+02  0.27977751985E+02  0.13093043973E+02  0.47787269579E+02  0.19999993316E+02 0.  0.
        -12    1    1    2    0    0 -0.30486734730E+02 -0.27977751985E+02 -0.13093043973E+02  0.43400730421E+02  0.00000000000E+00 0.  1.
         11    1    3    3    0    0  0.17518591769E+02  0.90297036114E+01  0.15132695598E+01  0.19766805253E+02  0.51100000000E-03 0. -1.
        -11    1    3    3    0    0 -0.81007185173E+00  0.72632574814E+00  0.36976668030E+01  0.38544137744E+01  0.51100000000E-03 0.  1.
         12    1    3    3    0    0  0.13778214812E+02  0.18221722626E+02  0.78821076100E+01  0.24166050551E+02  0.00000000000E+00 0. -1.
</event>
<event>
 7    1  0.2740409E-010  0.4778726E+02  0.7816164E-02  0.1312668E+00
        -11   -1    0    0    0    0  0.00000000000E+00  0.00000000000E+00  0.45593999997E+02  0.45594000000E+02  0.51100000000E-03 0.  1.
         11   -1    0    0    0    0 -0.00000000000E+00 -0.00000000000E+00 -0.45593999997E+02  0.45594000000E+02  0.51100000000E-03 0. -1.
    9900012    2    1    2    0    0  0.36182439272E+00  0.28956511535E+02 -0.32326665922E+02  0.47787264905E+02  0.19999972010E+02 0.  0.
        -12    1    1    2    0    0 -0.36182439272E+00 -0.28956511535E+02  0.32326665922E+02  0.43400735095E+02  0.00000000000E+00 0.  1.
         11    1    3    3    0    0  0.27664450100E+01  0.27279321254E+02 -0.23685115649E+02  0.36232572220E+02  0.51100000000E-03 0. -1.
        -11    1    3    3    0    0 -0.47223681771E+01  0.13271400020E+00 -0.65291298752E+01  0.80590267027E+01  0.51100000000E-03 0.  1.
        -12    1    3    3    0    0  0.23177475598E+01  0.15444762802E+01 -0.21124203970E+01  0.34956659830E+01  0.00000000000E+00 0.  1.
</event>
<event>
 7    1  0.2740409E-010  0.4778727E+02  0.7816164E-02  0.1312668E+00
        -11   -1    0    0    0    0  0.00000000000E+00  0.00000000000E+00  0.45593999997E+02  0.45594000000E+02  0.51100000000E-03 0.  1.
         11   -1    0    0    0    0 -0.00000000000E+00 -0.00000000000E+00 -0.45593999997E+02  0.45594000000E+02  0.51100000000E-03 0. -1.
    9900012    2    1    2    0    0  0.35546591142E+01  0.24401407714E+02 -0.35714973242E+02  0.47787267131E+02  0.19999982158E+02 0.  0.
        -12    1    1    2    0    0 -0.35546591142E+01 -0.24401407714E+02  0.35714973242E+02  0.43400732869E+02  0.00000000000E+00 0.  1.
         11    1    3    3    0    0  0.76852425596E+01  0.18643384250E+02 -0.14926745151E+02  0.25088771404E+02  0.51100000000E-03 0. -1.
        -11    1    3    3    0    0 -0.19676081997E+01  0.93125749825E+00 -0.13604815056E+02  0.13777870500E+02  0.51100000000E-03 0.  1.
        -12    1    3    3    0    0 -0.21629752458E+01  0.48267659651E+01 -0.71834130350E+01  0.89206252262E+01  0.00000000000E+00 0.  1.
</event>
<event>
 7    1  0.2740409E-010  0.4778727E+02  0.7816164E-02  0.1312668E+00
        -11   -1    0    0    0    0  0.00000000000E+00  0.00000000000E+00  0.45593999997E+02  0.45594000000E+02  0.51100000000E-03 0.  1.
         11   -1    0    0    0    0 -0.00000000000E+00 -0.00000000000E+00 -0.45593999997E+02  0.45594000000E+02  0.51100000000E-03 0. -1.
    9900012    2    1    2    0    0  0.37521841735E+02  0.18757091241E+02 -0.11131314898E+02  0.47787271315E+02  0.20000001234E+02 0.  0.
        -12    1    1    2    0    0 -0.37521841735E+02 -0.18757091241E+02  0.11131314898E+02  0.43400728685E+02  0.00000000000E+00 0.  1.
         11    1    3    3    0    0  0.17880294248E+02  0.92671408054E+01 -0.14558089933E+02  0.24850006113E+02  0.51100000000E-03 0. -1.
        -11    1    3    3    0    0  0.51378429599E+01  0.30409722924E+01  0.37694871955E+01  0.70607348585E+01  0.51100000000E-03 0.  1.
         12    1    3    3    0    0  0.14503704528E+02  0.64489781433E+01 -0.34271216071E+00  0.15876530343E+02  0.00000000000E+00 0. -1.
</event>
<event>
 7    1  0.2740409E-010  0.4778727E+02  0.7816164E-02  0.1312668E+00
        -11   -1    0    0    0    0  0.00000000000E+00  0.00000000000E+00  0.45593999997E+02  0.45594000000E+02  0.51100000000E-03 0. -1.
         11   -1    0    0    0    0 -0.00000000000E+00 -0.00000000000E+00 -0.45593999997E+02  0.45594000000E+02  0.51100000000E-03 0.  1.
    9900012    2    1    2    0    0  0.79621971788E+01  0.33721655710E+02  0.26135730802E+02  0.47787273366E+02  0.20000010586E+02 0.  0.
        -12    1    1    2    0    0 -0.79621971788E+01 -0.33721655710E+02 -0.26135730802E+02  0.43400726634E+02  0.00000000000E+00 0.  1.
         11    1    3    3    0    0  0.85756823858E+01  0.49791561121E+01  0.24251600435E+01  0.10208610359E+02  0.51100000000E-03 0. -1.
        -11    1    3    3    0    0  0.67219931968E+00  0.14675035199E+02  0.14932859099E+02  0.20947524702E+02  0.51100000000E-03 0.  1.
         12    1    3    3    0    0 -0.12856845267E+01  0.14067464399E+02  0.87777116599E+01  0.16631138305E+02  0.00000000000E+00 0. -1.
</event>
<event>
 7    1  0.2740409E-010  0.4778727E+02  0.7816164E-02  0.1312668E+00
        -11   -1    0    0    0    0  0.00000000000E+00  0.00000000000E+00  0.45593999997E+02  0.45594000000E+02  0.51100000000E-03 0. -1.
         11   -1    0    0    0    0 -0.00000000000E+00 -0.00000000000E+00 -0.45593999997E+02  0.45594000000E+02  0.51100000000E-03 0.  1.
    9900012    2    1    2    0    0 -0.31714296163E+02 -0.25367034568E+02 -0.15308183025E+02  0.47787268538E+02  0.19999988573E+02 0.  0.
        -12    1    1    2    0    0  0.31714296163E+02  0.25367034568E+02  0.15308183025E+02  0.43400731462E+02  0.00000000000E+00 0.  1.
         11    1    3    3    0    0  0.20693788441E+00 -0.40679005537E+01 -0.28778418208E+01  0.49872449318E+01  0.51100000000E-03 0.  1.
        -11    1    3    3    0    0 -0.12970702596E+02 -0.12509974494E+02 -0.12463167032E+02  0.21910479694E+02  0.51100000000E-03 0. -1.
         12    1    3    3    0    0 -0.18950531451E+02 -0.87891595206E+01  0.32825827273E-01  0.20889543913E+02  0.00000000000E+00 0. -1.
</event>
<event>
 7    1  0.2740409E-010  0.4778727E+02  0.7816164E-02  0.1312668E+00
        -11   -1    0    0    0    0  0.00000000000E+00  0.00000000000E+00  0.45593999997E+02  0.45594000000E+02  0.51100000000E-03 0.  1.
         11   -1    0    0    0    0 -0.00000000000E+00 -0.00000000000E+00 -0.45593999997E+02  0.45594000000E+02  0.51100000000E-03 0. -1.
    9900012    2    1    2    0    0 -0.27571964625E+02  0.62847370146E+01 -0.32922817587E+02  0.47787273388E+02  0.20000010685E+02 0.  0.
        -12    1    1    2    0    0  0.27571964625E+02 -0.62847370146E+01  0.32922817587E+02  0.43400726612E+02  0.00000000000E+00 0.  1.
         11    1    3    3    0    0 -0.25342610469E+02  0.64633993885E+01 -0.25586640180E+02  0.36588243918E+02  0.51100000000E-03 0. -1.
        -11    1    3    3    0    0 -0.39010261816E+01 -0.28253551110E+01 -0.24704605514E+01  0.54132995825E+01  0.51100000000E-03 0.  1.
         12    1    3    3    0    0  0.16716720265E+01  0.26466927370E+01 -0.48657168557E+01  0.57857298872E+01  0.00000000000E+00 0. -1.
</event>
<event>
 7    1  0.2740409E-010  0.4778726E+02  0.7816164E-02  0.1312668E+00
        -11   -1    0    0    0    0  0.00000000000E+00  0.00000000000E+00  0.45593999997E+02  0.45594000000E+02  0.51100000000E-03 0.  1.
         11   -1    0    0    0    0 -0.00000000000E+00 -0.00000000000E+00 -0.45593999997E+02  0.45594000000E+02  0.51100000000E-03 0. -1.
    9900012    2    1    2    0    0  0.24881032976E+02 -0.12372261061E+02 -0.33338951145E+02  0.47787259117E+02  0.19999945620E+02 0.  0.
        -12    1    1    2    0    0 -0.24881032976E+02  0.12372261061E+02  0.33338951145E+02  0.43400740883E+02  0.00000000000E+00 0.  1.
         11    1    3    3    0    0  0.76417944258E+01 -0.12934631156E+01 -0.63953769162E+01  0.10048428486E+02  0.51100000000E-03 0. -1.
        -11    1    3    3    0    0  0.15573262377E+02 -0.14638912052E+02 -0.17903376277E+02  0.27881089102E+02  0.51100000000E-03 0.  1.
        -12    1    3    3    0    0  0.16659761732E+01  0.35601141061E+01 -0.90401979519E+01  0.98577415298E+01  0.00000000000E+00 0.  1.
</event>
<event>
 7    1  0.2740409E-010  0.4778727E+02  0.7816164E-02  0.1312668E+00
        -11   -1    0    0    0    0  0.00000000000E+00  0.00000000000E+00  0.45593999997E+02  0.45594000000E+02  0.51100000000E-03 0.  1.
         11   -1    0    0    0    0 -0.00000000000E+00 -0.00000000000E+00 -0.45593999997E+02  0.45594000000E+02  0.51100000000E-03 0. -1.
    9900012    2    1    2    0    0  0.29035897965E+02  0.26402076099E+02 -0.18532947635E+02  0.47787272575E+02  0.20000006980E+02 0.  0.
        -12    1    1    2    0    0 -0.29035897965E+02 -0.26402076099E+02  0.18532947635E+02  0.43400727425E+02  0.00000000000E+00 0.  1.
         11    1    3    3    0    0  0.18584831470E+02  0.12495724434E+02 -0.65240081190E+01  0.23325989199E+02  0.51100000000E-03 0. -1.
        -11    1    3    3    0    0 -0.13513819287E+01  0.79713086658E+01 -0.41187516583E+01  0.90737043398E+01  0.51100000000E-03 0.  1.
        -12    1    3    3    0    0  0.11802448423E+02  0.59350429995E+01 -0.78901878574E+01  0.15387579037E+02  0.00000000000E+00 0.  1.
</event>
<event>
 7    1  0.2740409E-010  0.4778728E+02  0.7816164E-02  0.1312668E+00
        -11   -1    0    0    0    0  0.00000000000E+00  0.00000000000E+00  0.45593999997E+02  0.45594000000E+02  0.51100000000E-03 0.  1.
         11   -1    0    0    0    0 -0.00000000000E+00 -0.00000000000E+00 -0.45593999997E+02  0.45594000000E+02  0.51100000000E-03 0. -1.
    9900012    2    1    2    0    0  0.95934719664E+00  0.42688229448E+02  0.77728535036E+01  0.47787279591E+02  0.20000038966E+02 0.  0.
        -12    1    1    2    0    0 -0.95934719664E+00 -0.42688229448E+02 -0.77728535036E+01  0.43400720409E+02  0.00000000000E+00 0.  1.
         11    1    3    3    0    0 -0.19240619928E+01  0.23462670249E+02 -0.14814752363E+01  0.23587998620E+02  0.51100000000E-03 0. -1.
        -11    1    3    3    0    0  0.48623254806E+01  0.25622450418E+01  0.32015948707E+01  0.63606225096E+01  0.51100000000E-03 0.  1.
         12    1    3    3    0    0 -0.19789162911E+01  0.16663314157E+02  0.60527338692E+01  0.17838658461E+02  0.00000000000E+00 0. -1.
</event>
<event>
 7    1  0.2740409E-010  0.4778728E+02  0.7816164E-02  0.1312668E+00
        -11   -1    0    0    0    0  0.00000000000E+00  0.00000000000E+00  0.45593999997E+02  0.45594000000E+02  0.51100000000E-03 0.  1.
         11   -1    0    0    0    0 -0.00000000000E+00 -0.00000000000E+00 -0.45593999997E+02  0.45594000000E+02  0.51100000000E-03 0. -1.
    9900012    2    1    2    0    0  0.86048868367E+01  0.20967987038E+02 -0.37012455354E+02  0.47787281005E+02  0.20000045416E+02 0.  0.
        -12    1    1    2    0    0 -0.86048868367E+01 -0.20967987038E+02  0.37012455354E+02  0.43400718995E+02  0.00000000000E+00 0.  1.
         11    1    3    3    0    0  0.10130426120E+02  0.14570389422E+02 -0.33436982532E+02  0.37854373359E+02  0.51100000000E-03 0. -1.
        -11    1    3    3    0    0  0.84515610476E+00  0.67132523424E+01 -0.32919018219E+01  0.75245374423E+01  0.51100000000E-03 0.  1.
         12    1    3    3    0    0 -0.23706953878E+01 -0.31565472677E+00 -0.28357100047E+00  0.24083702043E+01  0.00000000000E+00 0. -1.
</event>
<event>
 7    1  0.2740409E-010  0.4778727E+02  0.7816164E-02  0.1312668E+00
        -11   -1    0    0    0    0  0.00000000000E+00  0.00000000000E+00  0.45593999997E+02  0.45594000000E+02  0.51100000000E-03 0. -1.
         11   -1    0    0    0    0 -0.00000000000E+00 -0.00000000000E+00 -0.45593999997E+02  0.45594000000E+02  0.51100000000E-03 0.  1.
    9900012    2    1    2    0    0 -0.26812109331E+02 -0.25548954288E+02 -0.22627093039E+02  0.47787267156E+02  0.19999982272E+02 0.  0.
        -12    1    1    2    0    0  0.26812109331E+02  0.25548954288E+02  0.22627093039E+02  0.43400732844E+02  0.00000000000E+00 0.  1.
         11    1    3    3    0    0 -0.21922631932E+01 -0.10597672815E+02 -0.10374735768E+02  0.14991725368E+02  0.51100000000E-03 0. -1.
        -11    1    3    3    0    0 -0.70412544345E+00  0.99049251070E+00 -0.18813040055E+01  0.22396814676E+01  0.51100000000E-03 0.  1.
         12    1    3    3    0    0 -0.23915720695E+02 -0.15941773984E+02 -0.10371053265E+02  0.30555860321E+02  0.00000000000E+00 0. -1.
</event>
<event>
 7    1  0.2740409E-010  0.4778727E+02  0.7816164E-02  0.1312668E+00
        -11   -1    0    0    0    0  0.00000000000E+00  0.00000000000E+00  0.45593999997E+02  0.45594000000E+02  0.51100000000E-03 0.  1.
         11   -1    0    0    0    0 -0.00000000000E+00 -0.00000000000E+00 -0.45593999997E+02  0.45594000000E+02  0.51100000000E-03 0. -1.
    9900012    2    1    2    0    0 -0.98568247940E+01  0.42327412312E+01 -0.42054137501E+02  0.47787267583E+02  0.19999984218E+02 0.  0.
        -12    1    1    2    0    0  0.98568247940E+01 -0.42327412312E+01  0.42054137501E+02  0.43400732417E+02  0.00000000000E+00 0.  1.
         11    1    3    3    0    0 -0.11532031444E+02 -0.29169493861E+01 -0.16468892941E+02  0.20315530461E+02  0.51100000000E-03 0. -1.
        -11    1    3    3    0    0  0.93929057434E+00  0.61172772540E+01 -0.95096510988E+01  0.11346224573E+02  0.51100000000E-03 0.  1.
        -12    1    3    3    0    0  0.73591607590E+00  0.10324133633E+01 -0.16075593461E+02  0.16125512548E+02  0.00000000000E+00 0.  1.
</event>
<event>
 7    1  0.2740409E-010  0.4778727E+02  0.7816164E-02  0.1312668E+00
        -11   -1    0    0    0    0  0.00000000000E+00  0.00000000000E+00  0.45593999997E+02  0.45594000000E+02  0.51100000000E-03 0. -1.
         11   -1    0    0    0    0 -0.00000000000E+00 -0.00000000000E+00 -0.45593999997E+02  0.45594000000E+02  0.51100000000E-03 0.  1.
    9900012    2    1    2    0    0  0.50579455220E+01 -0.19301623259E+02  0.38542024343E+02  0.47787272889E+02  0.20000008410E+02 0.  0.
        -12    1    1    2    0    0 -0.50579455220E+01  0.19301623259E+02 -0.38542024343E+02  0.43400727111E+02  0.00000000000E+00 0.  1.
         11    1    3    3    0    0  0.41224235377E+01 -0.46912576459E+01  0.19724190710E+02  0.20689271943E+02  0.51100000000E-03 0. -1.
        -11    1    3    3    0    0 -0.20111520402E+01 -0.62932592743E+01  0.33301894885E+00  0.66151906023E+01  0.51100000000E-03 0.  1.
        -12    1    3    3    0    0  0.29466740245E+01 -0.83171063390E+01  0.18484814684E+02  0.20482810343E+02  0.00000000000E+00 0.  1.
</event>
<event>
 7    1  0.2740409E-010  0.4778728E+02  0.7816164E-02  0.1312668E+00
        -11   -1    0    0    0    0  0.00000000000E+00  0.00000000000E+00  0.45593999997E+02  0.45594000000E+02  0.51100000000E-03 0.  1.
         11   -1    0    0    0    0 -0.00000000000E+00 -0.00000000000E+00 -0.45593999997E+02  0.45594000000E+02  0.51100000000E-03 0. -1.
    9900012    2    1    2    0    0  0.25546207797E+02 -0.34085672845E+01 -0.34919842678E+02  0.47787280231E+02  0.20000041887E+02 0.  0.
        -12    1    1    2    0    0 -0.25546207797E+02  0.34085672845E+01  0.34919842678E+02  0.43400719769E+02  0.00000000000E+00 0.  1.
         11    1    3    3    0    0  0.19773366403E+02 -0.43750654608E+01 -0.29897553850E+02  0.36110814768E+02  0.51100000000E-03 0. -1.
        -11    1    3    3    0    0 -0.18563416610E+01 -0.16207200103E+01 -0.86987251139E+00  0.26133151669E+01  0.51100000000E-03 0.  1.
         12    1    3    3    0    0  0.76291830553E+01  0.25872181867E+01 -0.41524163168E+01  0.90631502969E+01  0.00000000000E+00 0. -1.
</event>
<event>
 7    1  0.2740409E-010  0.4778729E+02  0.7816164E-02  0.1312668E+00
        -11   -1    0    0    0    0  0.00000000000E+00  0.00000000000E+00  0.45593999997E+02  0.45594000000E+02  0.51100000000E-03 0.  1.
         11   -1    0    0    0    0 -0.00000000000E+00 -0.00000000000E+00 -0.45593999997E+02  0.45594000000E+02  0.51100000000E-03 0. -1.
    9900012    2    1    2    0    0  0.15748773574E+02  0.30006032047E+02 -0.27115236575E+02  0.47787287070E+02  0.20000073069E+02 0.  0.
        -12    1    1    2    0    0 -0.15748773574E+02 -0.30006032047E+02  0.27115236575E+02  0.43400712930E+02  0.00000000000E+00 0.  1.
         11    1    3    3    0    0  0.67811696603E+01  0.25176529616E+02 -0.18382114843E+02  0.31902101057E+02  0.51100000000E-03 0. -1.
        -11    1    3    3    0    0  0.62501685099E+01  0.20337945653E+01 -0.98391422489E+01  0.11832567227E+02  0.51100000000E-03 0.  1.
         12    1    3    3    0    0  0.27174354036E+01  0.27957078659E+01  0.11060205169E+01  0.40526187864E+01  0.00000000000E+00 0. -1.
</event>
<event>
 7    1  0.2740409E-010  0.4778727E+02  0.7816164E-02  0.1312668E+00
        -11   -1    0    0    0    0  0.00000000000E+00  0.00000000000E+00  0.45593999997E+02  0.45594000000E+02  0.51100000000E-03 0.  1.
         11   -1    0    0    0    0 -0.00000000000E+00 -0.00000000000E+00 -0.45593999997E+02  0.45594000000E+02  0.51100000000E-03 0. -1.
    9900012    2    1    2    0    0 -0.34050185782E+02  0.22945693473E+02 -0.14060708558E+02  0.47787268141E+02  0.19999986763E+02 0.  0.
        -12    1    1    2    0    0  0.34050185782E+02 -0.22945693473E+02  0.14060708558E+02  0.43400731859E+02  0.00000000000E+00 0.  1.
         11    1    3    3    0    0 -0.73191507861E+01  0.33223386684E+01  0.38463506967E+01  0.89107977421E+01  0.51100000000E-03 0. -1.
        -11    1    3    3    0    0 -0.15551823191E+02  0.92972558581E+01 -0.46811444594E+01  0.18713932905E+02  0.51100000000E-03 0.  1.
         12    1    3    3    0    0 -0.11179211804E+02  0.10326098947E+02 -0.13225914796E+02  0.20162537494E+02  0.00000000000E+00 0. -1.
</event>
<event>
 7    1  0.2740409E-010  0.4778726E+02  0.7816164E-02  0.1312668E+00
        -11   -1    0    0    0    0  0.00000000000E+00  0.00000000000E+00  0.45593999997E+02  0.45594000000E+02  0.51100000000E-03 0.  1.
         11   -1    0    0    0    0 -0.00000000000E+00 -0.00000000000E+00 -0.45593999997E+02  0.45594000000E+02  0.51100000000E-03 0. -1.
    9900012    2    1    2    0    0 -0.11179552843E+02 -0.37751563346E+02 -0.18260911654E+02  0.47787264623E+02  0.19999970723E+02 0.  0.
        -12    1    1    2    0    0  0.11179552843E+02  0.37751563346E+02  0.18260911654E+02  0.43400735377E+02  0.00000000000E+00 0.  1.
         11    1    3    3    0    0 -0.60482867523E+01 -0.13434752758E+02 -0.58649939398E+01  0.15857884741E+02  0.51100000000E-03 0. -1.
        -11    1    3    3    0    0 -0.64185311573E+01 -0.98754172723E+01 -0.12840235454E+02  0.17423921926E+02  0.51100000000E-03 0.  1.
        -12    1    3    3    0    0  0.12872650671E+01 -0.14441393316E+02  0.44431773923E+00  0.14505457956E+02  0.00000000000E+00 0.  1.
</event>
<event>
 7    1  0.2740409E-010  0.4778727E+02  0.7816164E-02  0.1312668E+00
        -11   -1    0    0    0    0  0.00000000000E+00  0.00000000000E+00  0.45593999997E+02  0.45594000000E+02  0.51100000000E-03 0.  1.
         11   -1    0    0    0    0 -0.00000000000E+00 -0.00000000000E+00 -0.45593999997E+02  0.45594000000E+02  0.51100000000E-03 0. -1.
    9900012    2    1    2    0    0 -0.20727804671E+02  0.38124861723E+02 -0.69010778137E+00  0.47787271705E+02  0.20000003010E+02 0.  0.
        -12    1    1    2    0    0  0.20727804671E+02 -0.38124861723E+02  0.69010778137E+00  0.43400728295E+02  0.00000000000E+00 0.  1.
         11    1    3    3    0    0 -0.21348201851E+02  0.33105611884E+02 -0.63782691718E+00  0.39397132940E+02  0.51100000000E-03 0. -1.
        -11    1    3    3    0    0 -0.14739397263E+01 -0.11353230989E+01 -0.29865373253E+00  0.18843171625E+01  0.51100000000E-03 0.  1.
         12    1    3    3    0    0  0.20943369068E+01  0.61545729376E+01  0.24637286834E+00  0.65058216018E+01  0.00000000000E+00 0. -1.
</event>
<event>
 7    1  0.2740409E-010  0.4778724E+02  0.7816164E-02  0.1312668E+00
        -11   -1    0    0    0    0  0.00000000000E+00  0.00000000000E+00  0.45593999997E+02  0.45594000000E+02  0.51100000000E-03 0.  1.
         11   -1    0    0    0    0 -0.00000000000E+00 -0.00000000000E+00 -0.45593999997E+02  0.45594000000E+02  0.51100000000E-03 0. -1.
    9900012    2    1    2    0    0 -0.29223113240E+02 -0.28027236021E+02 -0.15624021926E+02  0.47787235403E+02  0.19999837497E+02 0.  0.
        -12    1    1    2    0    0  0.29223113240E+02  0.28027236021E+02  0.15624021926E+02  0.43400764597E+02  0.00000000000E+00 0.  1.
         11    1    3    3    0    0 -0.21746010148E+02 -0.99936804403E+01 -0.10642759522E+02  0.26192192283E+02  0.51100000000E-03 0. -1.
        -11    1    3    3    0    0 -0.84581942097E+00 -0.11183821475E+02 -0.98947796308E+00  0.11259322368E+02  0.51100000000E-03 0.  1.
        -12    1    3    3    0    0 -0.66312836710E+01 -0.68497341054E+01 -0.39917844414E+01  0.10335720752E+02  0.00000000000E+00 0.  1.
</event>
<event>
 7    1  0.2740409E-010  0.4778727E+02  0.7816164E-02  0.1312668E+00
        -11   -1    0    0    0    0  0.00000000000E+00  0.00000000000E+00  0.45593999997E+02  0.45594000000E+02  0.51100000000E-03 0. -1.
         11   -1    0    0    0    0 -0.00000000000E+00 -0.00000000000E+00 -0.45593999997E+02  0.45594000000E+02  0.51100000000E-03 0.  1.
    9900012    2    1    2    0    0 -0.28526352745E+02 -0.21340458615E+02  0.24788205244E+02  0.47787273116E+02  0.20000009445E+02 0.  0.
        -12    1    1    2    0    0  0.28526352745E+02  0.21340458615E+02 -0.24788205244E+02  0.43400726884E+02  0.00000000000E+00 0.  1.
         11    1    3    3    0    0 -0.10506930472E+02 -0.47047918936E+01  0.12454426200E+02  0.16960052681E+02  0.51100000000E-03 0. -1.
        -11    1    3    3    0    0 -0.10945688395E+02 -0.16031641407E+02  0.38941693209E+01  0.19798640751E+02  0.51100000000E-03 0.  1.
        -12    1    3    3    0    0 -0.70737338783E+01 -0.60402531461E+00  0.84396097229E+01  0.11028579684E+02  0.00000000000E+00 0.  1.
</event>
<event>
 7    1  0.2740409E-010  0.4778727E+02  0.7816164E-02  0.1312668E+00
        -11   -1    0    0    0    0  0.00000000000E+00  0.00000000000E+00  0.45593999997E+02  0.45594000000E+02  0.51100000000E-03 0. -1.
         11   -1    0    0    0    0 -0.00000000000E+00 -0.00000000000E+00 -0.45593999997E+02  0.45594000000E+02  0.51100000000E-03 0.  1.
    9900012    2    1    2    0    0  0.29991590873E+02 -0.60540994954E+01  0.30781089177E+02  0.47787273108E+02  0.20000009411E+02 0.  0.
        -12    1    1    2    0    0 -0.29991590873E+02  0.60540994954E+01 -0.30781089177E+02  0.43400726892E+02  0.00000000000E+00 0.  1.
         11    1    3    3    0    0  0.12466178663E+02 -0.45578608402E+01  0.94715607161E+01  0.16306138984E+02  0.51100000000E-03 0. -1.
        -11    1    3    3    0    0  0.15800234137E+02  0.29886865059E+01  0.21284209167E+02  0.26675779387E+02  0.51100000000E-03 0.  1.
        -12    1    3    3    0    0  0.17251780723E+01 -0.44849251611E+01  0.25319294368E-01  0.48053547370E+01  0.00000000000E+00 0.  1.
</event>
<event>
 7    1  0.2740409E-010  0.4778727E+02  0.7816164E-02  0.1312668E+00
        -11   -1    0    0    0    0  0.00000000000E+00  0.00000000000E+00  0.45593999997E+02  0.45594000000E+02  0.51100000000E-03 0.  1.
         11   -1    0    0    0    0 -0.00000000000E+00 -0.00000000000E+00 -0.45593999997E+02  0.45594000000E+02  0.51100000000E-03 0. -1.
    9900012    2    1    2    0    0  0.37197621483E+02 -0.46314213430E+01 -0.21874874218E+02  0.47787271554E+02  0.20000002321E+02 0.  0.
        -12    1    1    2    0    0 -0.37197621483E+02  0.46314213430E+01  0.21874874218E+02  0.43400728446E+02  0.00000000000E+00 0.  1.
         11    1    3    3    0    0  0.25018432522E+02 -0.11536961217E+02 -0.13587451600E+02  0.30718761062E+02  0.51100000000E-03 0. -1.
        -11    1    3    3    0    0  0.13948254759E+01  0.27753023733E+01 -0.51548072412E+00  0.31485809517E+01  0.51100000000E-03 0.  1.
         12    1    3    3    0    0  0.10784363486E+02  0.41302375004E+01 -0.77719418932E+01  0.13919929540E+02  0.00000000000E+00 0. -1.
</event>
<event>
 7    1  0.2740409E-010  0.4778727E+02  0.7816164E-02  0.1312668E+00
        -11   -1    0    0    0    0  0.00000000000E+00  0.00000000000E+00  0.45593999997E+02  0.45594000000E+02  0.51100000000E-03 0.  1.
         11   -1    0    0    0    0 -0.00000000000E+00 -0.00000000000E+00 -0.45593999997E+02  0.45594000000E+02  0.51100000000E-03 0. -1.
    9900012    2    1    2    0    0  0.21209611852E+02  0.65526676314E+01 -0.37293943728E+02  0.47787270434E+02  0.19999997219E+02 0.  0.
        -12    1    1    2    0    0 -0.21209611852E+02 -0.65526676314E+01  0.37293943728E+02  0.43400729566E+02  0.00000000000E+00 0.  1.
         11    1    3    3    0    0  0.19597976528E+02  0.47802200484E+01 -0.34118778515E+02  0.39636122859E+02  0.51100000000E-03 0. -1.
        -11    1    3    3    0    0  0.30915529436E+01 -0.47284816599E+00  0.91280338448E+00  0.32579894522E+01  0.51100000000E-03 0.  1.
         12    1    3    3    0    0 -0.14799176191E+01  0.22452957490E+01 -0.40879685978E+01  0.48931581229E+01  0.00000000000E+00 0. -1.
</event>
<event>
 7    1  0.2740409E-010  0.4778727E+02  0.7816164E-02  0.1312668E+00
        -11   -1    0    0    0    0  0.00000000000E+00  0.00000000000E+00  0.45593999997E+02  0.45594000000E+02  0.51100000000E-03 0.  1.
         11   -1    0    0    0    0 -0.00000000000E+00 -0.00000000000E+00 -0.45593999997E+02  0.45594000000E+02  0.51100000000E-03 0. -1.
    9900012    2    1    2    0    0 -0.82020530808E+01  0.55654359283E+01 -0.42253703813E+02  0.47787271461E+02  0.20000001898E+02 0.  0.
        -12    1    1    2    0    0  0.82020530808E+01 -0.55654359283E+01  0.42253703813E+02  0.43400728539E+02  0.00000000000E+00 0.  1.
         11    1    3    3    0    0 -0.65440619172E+01  0.35506206634E+01 -0.33086829870E+02  0.33914155814E+02  0.51100000000E-03 0. -1.
        -11    1    3    3    0    0  0.60313059107E-01 -0.34852701480E+01 -0.58252139492E+00  0.35341303183E+01  0.51100000000E-03 0.  1.
         12    1    3    3    0    0 -0.17183042228E+01  0.55000854129E+01 -0.85843525482E+01  0.10338985329E+02  0.00000000000E+00 0. -1.
</event>
<event>
 7    1  0.2740409E-010  0.4778727E+02  0.7816164E-02  0.1312668E+00
        -11   -1    0    0    0    0  0.00000000000E+00  0.00000000000E+00  0.45593999997E+02  0.45594000000E+02  0.51100000000E-03 0.  1.
         11   -1    0    0    0    0 -0.00000000000E+00 -0.00000000000E+00 -0.45593999997E+02  0.45594000000E+02  0.51100000000E-03 0. -1.
    9900012    2    1    2    0    0  0.40669521481E+02  0.15008333428E+02 -0.20889013063E+01  0.47787267766E+02  0.19999985052E+02 0.  0.
        -12    1    1    2    0    0 -0.40669521481E+02 -0.15008333428E+02  0.20889013063E+01  0.43400732234E+02  0.00000000000E+00 0.  1.
         11    1    3    3    0    0 -0.13954509940E+01  0.19162973551E+01 -0.13288217524E+01  0.27175810090E+01  0.51100000000E-03 0. -1.
        -11    1    3    3    0    0  0.11362666889E+02  0.44476897050E+00 -0.30873740230E+01  0.11783034281E+02  0.51100000000E-03 0.  1.
         12    1    3    3    0    0  0.30702305587E+02  0.12647267102E+02  0.23272944690E+01  0.33286652476E+02  0.00000000000E+00 0. -1.
</event>
<event>
 7    1  0.2740409E-010  0.4778730E+02  0.7816164E-02  0.1312668E+00
        -11   -1    0    0    0    0  0.00000000000E+00  0.00000000000E+00  0.45593999997E+02  0.45594000000E+02  0.51100000000E-03 0.  1.
         11   -1    0    0    0    0 -0.00000000000E+00 -0.00000000000E+00 -0.45593999997E+02  0.45594000000E+02  0.51100000000E-03 0. -1.
    9900012    2    1    2    0    0 -0.34732458217E+02  0.20968689479E+02 -0.15413998511E+02  0.47787297905E+02  0.20000122469E+02 0.  0.
        -12    1    1    2    0    0  0.34732458217E+02 -0.20968689479E+02  0.15413998511E+02  0.43400702095E+02  0.00000000000E+00 0.  1.
         11    1    3    3    0    0 -0.24592973861E+02  0.38666071701E+01 -0.10189686129E+02  0.26899715946E+02  0.51100000000E-03 0. -1.
        -11    1    3    3    0    0 -0.85903632018E+01  0.15646745917E+02 -0.56444035493E+01  0.18720958561E+02  0.51100000000E-03 0.  1.
        -12    1    3    3    0    0 -0.15491211540E+01  0.14553363911E+01  0.42009116699E+00  0.21666233982E+01  0.00000000000E+00 0.  1.
</event>
<event>
 7    1  0.2740409E-010  0.4778728E+02  0.7816164E-02  0.1312668E+00
        -11   -1    0    0    0    0  0.00000000000E+00  0.00000000000E+00  0.45593999997E+02  0.45594000000E+02  0.51100000000E-03 0. -1.
         11   -1    0    0    0    0 -0.00000000000E+00 -0.00000000000E+00 -0.45593999997E+02  0.45594000000E+02  0.51100000000E-03 0.  1.
    9900012    2    1    2    0    0 -0.11568221325E+02 -0.41829349607E+02  0.32331687069E+00  0.47787276884E+02  0.20000026625E+02 0.  0.
        -12    1    1    2    0    0  0.11568221325E+02  0.41829349607E+02 -0.32331687069E+00  0.43400723116E+02  0.00000000000E+00 0.  1.
         11    1    3    3    0    0 -0.13128239461E+02 -0.26140643869E+02 -0.84527171201E+00  0.29264285704E+02  0.51100000000E-03 0. -1.
        -11    1    3    3    0    0  0.44187232936E+00 -0.10634675146E+00 -0.24459955746E+01  0.24878616118E+01  0.51100000000E-03 0.  1.
         12    1    3    3    0    0  0.11181458070E+01 -0.15582358987E+02  0.36145841573E+01  0.16035129568E+02  0.00000000000E+00 0. -1.
</event>
<event>
 7    1  0.2740409E-010  0.4778727E+02  0.7816164E-02  0.1312668E+00
        -11   -1    0    0    0    0  0.00000000000E+00  0.00000000000E+00  0.45593999997E+02  0.45594000000E+02  0.51100000000E-03 0.  1.
         11   -1    0    0    0    0 -0.00000000000E+00 -0.00000000000E+00 -0.45593999997E+02  0.45594000000E+02  0.51100000000E-03 0. -1.
    9900012    2    1    2    0    0  0.16913295234E+02  0.80117702341E+00 -0.39961500967E+02  0.47787274202E+02  0.20000014396E+02 0.  0.
        -12    1    1    2    0    0 -0.16913295234E+02 -0.80117702341E+00  0.39961500967E+02  0.43400725798E+02  0.00000000000E+00 0.  1.
         11    1    3    3    0    0  0.73117366124E+01 -0.61679095356E+01 -0.22332876269E+02  0.24295307428E+02  0.51100000000E-03 0. -1.
        -11    1    3    3    0    0  0.99480480832E+01  0.89265870043E+01 -0.16393022572E+02  0.21151331058E+02  0.51100000000E-03 0.  1.
        -12    1    3    3    0    0 -0.34648946178E+00 -0.19575004453E+01 -0.12356021263E+01  0.23406357160E+01  0.00000000000E+00 0.  1.
</event>
<event>
 7    1  0.2740409E-010  0.4778728E+02  0.7816164E-02  0.1312668E+00
        -11   -1    0    0    0    0  0.00000000000E+00  0.00000000000E+00  0.45593999997E+02  0.45594000000E+02  0.51100000000E-03 0.  1.
         11   -1    0    0    0    0 -0.00000000000E+00 -0.00000000000E+00 -0.45593999997E+02  0.45594000000E+02  0.51100000000E-03 0. -1.
    9900012    2    1    2    0    0 -0.31474426206E+02  0.28061012211E+02 -0.10274379802E+02  0.47787276600E+02  0.20000025332E+02 0.  0.
        -12    1    1    2    0    0  0.31474426206E+02 -0.28061012211E+02  0.10274379802E+02  0.43400723400E+02  0.00000000000E+00 0.  1.
         11    1    3    3    0    0 -0.24026313686E+02  0.12553149893E+02  0.63130720539E+00  0.27115380702E+02  0.51100000000E-03 0. -1.
        -11    1    3    3    0    0 -0.36223559668E+01  0.60354042758E+01 -0.63738159875E+01  0.94959516651E+01  0.51100000000E-03 0.  1.
         12    1    3    3    0    0 -0.38257565535E+01  0.94724580415E+01 -0.45318710203E+01  0.11175944233E+02  0.00000000000E+00 0. -1.
</event>
<event>
 7    1  0.2740409E-010  0.4778727E+02  0.7816164E-02  0.1312668E+00
        -11   -1    0    0    0    0  0.00000000000E+00  0.00000000000E+00  0.45593999997E+02  0.45594000000E+02  0.51100000000E-03 0.  1.
         11   -1    0    0    0    0 -0.00000000000E+00 -0.00000000000E+00 -0.45593999997E+02  0.45594000000E+02  0.51100000000E-03 0. -1.
    9900012    2    1    2    0    0 -0.20007535992E+02 -0.30776626880E+02 -0.23154283686E+02  0.47787272914E+02  0.20000008524E+02 0.  0.
        -12    1    1    2    0    0  0.20007535992E+02  0.30776626880E+02  0.23154283686E+02  0.43400727086E+02  0.00000000000E+00 0.  1.
         11    1    3    3    0    0 -0.36163144147E+01 -0.21596829034E+01 -0.14768000032E+01  0.44635074436E+01  0.51100000000E-03 0. -1.
        -11    1    3    3    0    0 -0.29321423614E+01 -0.22371069498E+02 -0.11439484639E+02  0.25296719518E+02  0.51100000000E-03 0.  1.
        -12    1    3    3    0    0 -0.13459079216E+02 -0.62458744792E+01 -0.10237999043E+02  0.18027045952E+02  0.00000000000E+00 0.  1.
</event>
<event>
 7    1  0.2740409E-010  0.4778727E+02  0.7816164E-02  0.1312668E+00
        -11   -1    0    0    0    0  0.00000000000E+00  0.00000000000E+00  0.45593999997E+02  0.45594000000E+02  0.51100000000E-03 0.  1.
         11   -1    0    0    0    0 -0.00000000000E+00 -0.00000000000E+00 -0.45593999997E+02  0.45594000000E+02  0.51100000000E-03 0. -1.
    9900012    2    1    2    0    0 -0.18836889572E+02  0.27503114154E+02 -0.27791611479E+02  0.47787269988E+02  0.19999995185E+02 0.  0.
        -12    1    1    2    0    0  0.18836889572E+02 -0.27503114154E+02  0.27791611479E+02  0.43400730012E+02  0.00000000000E+00 0.  1.
         11    1    3    3    0    0 -0.13904985371E+02  0.79583035279E+01 -0.10077042983E+02  0.18926965122E+02  0.51100000000E-03 0. -1.
        -11    1    3    3    0    0  0.31109140904E+01  0.61339986859E+01 -0.34527133152E+01  0.76957751952E+01  0.51100000000E-03 0.  1.
         12    1    3    3    0    0 -0.80428182922E+01  0.13410811941E+02 -0.14261855181E+02  0.21164529671E+02  0.00000000000E+00 0. -1.
</event>
<event>
 7    1  0.2740409E-010  0.4778727E+02  0.7816164E-02  0.1312668E+00
        -11   -1    0    0    0    0  0.00000000000E+00  0.00000000000E+00  0.45593999997E+02  0.45594000000E+02  0.51100000000E-03 0.  1.
         11   -1    0    0    0    0 -0.00000000000E+00 -0.00000000000E+00 -0.45593999997E+02  0.45594000000E+02  0.51100000000E-03 0. -1.
    9900012    2    1    2    0    0  0.37474052310E+01  0.35951969649E+02 -0.24021575222E+02  0.47787271391E+02  0.20000001582E+02 0.  0.
        -12    1    1    2    0    0 -0.37474052310E+01 -0.35951969649E+02  0.24021575222E+02  0.43400728609E+02  0.00000000000E+00 0.  1.
         11    1    3    3    0    0 -0.10068422749E+01  0.18790154210E+02 -0.10326961338E+02  0.21464616403E+02  0.51100000000E-03 0. -1.
        -11    1    3    3    0    0  0.39941299600E+01  0.60729997816E+00 -0.77078556967E+01  0.87024667252E+01  0.51100000000E-03 0.  1.
         12    1    3    3    0    0  0.76011754584E+00  0.16554515461E+02 -0.59867581868E+01  0.17620188263E+02  0.00000000000E+00 0. -1.
</event>
<event>
 7    1  0.2740409E-010  0.4778729E+02  0.7816164E-02  0.1312668E+00
        -11   -1    0    0    0    0  0.00000000000E+00  0.00000000000E+00  0.45593999997E+02  0.45594000000E+02  0.51100000000E-03 0.  1.
         11   -1    0    0    0    0 -0.00000000000E+00 -0.00000000000E+00 -0.45593999997E+02  0.45594000000E+02  0.51100000000E-03 0. -1.
    9900012    2    1    2    0    0 -0.23499394366E+02 -0.12902509942E+02 -0.34130999692E+02  0.47787292191E+02  0.20000096413E+02 0.  0.
        -12    1    1    2    0    0  0.23499394366E+02  0.12902509942E+02  0.34130999692E+02  0.43400707809E+02  0.00000000000E+00 0.  1.
         11    1    3    3    0    0 -0.21054110605E+02 -0.15128751078E+01 -0.17943836331E+02  0.27704613822E+02  0.51100000000E-03 0. -1.
        -11    1    3    3    0    0 -0.17513989727E+01 -0.63830339556E+01 -0.72632540580E+01  0.98267685743E+01  0.51100000000E-03 0.  1.
         12    1    3    3    0    0 -0.69388478743E+00 -0.50066008787E+01 -0.89239093036E+01  0.10255909795E+02  0.00000000000E+00 0. -1.
</event>
<event>
 7    1  0.2740409E-010  0.4778727E+02  0.7816164E-02  0.1312668E+00
        -11   -1    0    0    0    0  0.00000000000E+00  0.00000000000E+00  0.45593999997E+02  0.45594000000E+02  0.51100000000E-03 0.  1.
         11   -1    0    0    0    0 -0.00000000000E+00 -0.00000000000E+00 -0.45593999997E+02  0.45594000000E+02  0.51100000000E-03 0. -1.
    9900012    2    1    2    0    0  0.65061023353E+00  0.42910967381E+02 -0.64690741096E+01  0.47787270339E+02  0.19999996783E+02 0.  0.
        -12    1    1    2    0    0 -0.65061023353E+00 -0.42910967381E+02  0.64690741096E+01  0.43400729661E+02  0.00000000000E+00 0.  1.
         11    1    3    3    0    0  0.23850765396E+01  0.67599656867E+01 -0.67086057388E+01  0.98178978099E+01  0.51100000000E-03 0. -1.
        -11    1    3    3    0    0 -0.57694680836E+01  0.24401591767E+02 -0.26523254681E+01  0.25214267258E+02  0.51100000000E-03 0.  1.
        -12    1    3    3    0    0  0.40350017775E+01  0.11749409928E+02  0.28918570973E+01  0.12755105271E+02  0.00000000000E+00 0.  1.
</event>
<event>
 7    1  0.2740409E-010  0.4778723E+02  0.7816164E-02  0.1312668E+00
        -11   -1    0    0    0    0  0.00000000000E+00  0.00000000000E+00  0.45593999997E+02  0.45594000000E+02  0.51100000000E-03 0. -1.
         11   -1    0    0    0    0 -0.00000000000E+00 -0.00000000000E+00 -0.45593999997E+02  0.45594000000E+02  0.51100000000E-03 0.  1.
    9900012    2    1    2    0    0  0.11536190442E+02  0.41809823618E+02  0.15753825413E+01  0.47787229603E+02  0.19999811051E+02 0.  0.
        -12    1    1    2    0    0 -0.11536190442E+02 -0.41809823618E+02 -0.15753825413E+01  0.43400770397E+02  0.00000000000E+00 0.  1.
         11    1    3    3    0    0  0.66452605545E+01  0.30709842247E+02  0.37953983063E+01  0.31648995991E+02  0.51100000000E-03 0. -1.
        -11    1    3    3    0    0  0.20698306570E+01  0.30970989469E+01 -0.58285705039E+01  0.69172577814E+01  0.51100000000E-03 0.  1.
        -12    1    3    3    0    0  0.28210992310E+01  0.80028824246E+01  0.36085547389E+01  0.92209758311E+01  0.00000000000E+00 0.  1.
</event>
<event>
 7    1  0.2740409E-010  0.4778727E+02  0.7816164E-02  0.1312668E+00
        -11   -1    0    0    0    0  0.00000000000E+00  0.00000000000E+00  0.45593999997E+02  0.45594000000E+02  0.51100000000E-03 0. -1.
         11   -1    0    0    0    0 -0.00000000000E+00 -0.00000000000E+00 -0.45593999997E+02  0.45594000000E+02  0.51100000000E-03 0.  1.
    9900012    2    1    2    0    0  0.26764434450E+02 -0.18699675662E+02  0.28593888739E+02  0.47787270807E+02  0.19999998917E+02 0.  0.
        -12    1    1    2    0    0 -0.26764434450E+02  0.18699675662E+02 -0.28593888739E+02  0.43400729193E+02  0.00000000000E+00 0.  1.
         11    1    3    3    0    0  0.93501008676E+01 -0.68036729197E+01  0.15396998534E+02  0.19255698262E+02  0.51100000000E-03 0. -1.
        -11    1    3    3    0    0  0.84351711281E+01 -0.13741273618E+02  0.81251738387E+01  0.18055280745E+02  0.51100000000E-03 0.  1.
        -12    1    3    3    0    0  0.89791624543E+01  0.18452708759E+01  0.50717163658E+01  0.10476291800E+02  0.00000000000E+00 0.  1.
</event>
<event>
 7    1  0.2740409E-010  0.4778727E+02  0.7816164E-02  0.1312668E+00
        -11   -1    0    0    0    0  0.00000000000E+00  0.00000000000E+00  0.45593999997E+02  0.45594000000E+02  0.51100000000E-03 0.  1.
         11   -1    0    0    0    0 -0.00000000000E+00 -0.00000000000E+00 -0.45593999997E+02  0.45594000000E+02  0.51100000000E-03 0. -1.
    9900012    2    1    2    0    0 -0.24935546619E+02 -0.23115015981E+02 -0.26972904303E+02  0.47787274021E+02  0.20000013569E+02 0.  0.
        -12    1    1    2    0    0  0.24935546619E+02  0.23115015981E+02  0.26972904303E+02  0.43400725979E+02  0.00000000000E+00 0.  1.
         11    1    3    3    0    0 -0.66545715422E+01 -0.89715573941E+01  0.37579808423E+00  0.11176465852E+02  0.51100000000E-03 0. -1.
        -11    1    3    3    0    0 -0.61492025489E+01 -0.13057616713E+01 -0.45003146854E+01  0.77311407993E+01  0.51100000000E-03 0.  1.
         12    1    3    3    0    0 -0.12131772528E+02 -0.12837696916E+02 -0.22848387701E+02  0.28879667369E+02  0.00000000000E+00 0. -1.
</event>
<event>
 7    1  0.2740409E-010  0.4778727E+02  0.7816164E-02  0.1312668E+00
        -11   -1    0    0    0    0  0.00000000000E+00  0.00000000000E+00  0.45593999997E+02  0.45594000000E+02  0.51100000000E-03 0.  1.
         11   -1    0    0    0    0 -0.00000000000E+00 -0.00000000000E+00 -0.45593999997E+02  0.45594000000E+02  0.51100000000E-03 0. -1.
    9900012    2    1    2    0    0 -0.79614290407E+01  0.33231324568E+02 -0.26756641050E+02  0.47787272757E+02  0.20000007810E+02 0.  0.
        -12    1    1    2    0    0  0.79614290407E+01 -0.33231324568E+02  0.26756641050E+02  0.43400727243E+02  0.00000000000E+00 0.  1.
         11    1    3    3    0    0  0.35267655608E+01  0.42195459438E+01 -0.95524103600E+01  0.11022304080E+02  0.51100000000E-03 0.  1.
        -11    1    3    3    0    0 -0.11400913713E+02  0.27897803508E+02 -0.18251682850E+02  0.35233396106E+02  0.51100000000E-03 0. -1.
         12    1    3    3    0    0 -0.87280888493E-01  0.11139751157E+01  0.10474521597E+01  0.15315725705E+01  0.00000000000E+00 0. -1.
</event>
<event>
 7    1  0.2740409E-010  0.4778727E+02  0.7816164E-02  0.1312668E+00
        -11   -1    0    0    0    0  0.00000000000E+00  0.00000000000E+00  0.45593999997E+02  0.45594000000E+02  0.51100000000E-03 0.  1.
         11   -1    0    0    0    0 -0.00000000000E+00 -0.00000000000E+00 -0.45593999997E+02  0.45594000000E+02  0.51100000000E-03 0. -1.
    9900012    2    1    2    0    0  0.36571097545E+02  0.15490844631E+02 -0.17498908380E+02  0.47787271463E+02  0.20000001907E+02 0.  0.
        -12    1    1    2    0    0 -0.36571097545E+02 -0.15490844631E+02  0.17498908380E+02  0.43400728537E+02  0.00000000000E+00 0.  1.
         11    1    3    3    0    0  0.23213069314E+02  0.11866852146E+02 -0.17383160729E+02  0.31334374799E+02  0.51100000000E-03 0. -1.
        -11    1    3    3    0    0  0.43761983524E+01  0.42636235750E+01  0.31504864311E+01  0.68742390867E+01  0.51100000000E-03 0.  1.
        -12    1    3    3    0    0  0.89818298786E+01 -0.63963108931E+00 -0.32662340825E+01  0.95786575771E+01  0.00000000000E+00 0.  1.
</event>
<event>
 7    1  0.2740409E-010  0.4778727E+02  0.7816164E-02  0.1312668E+00
        -11   -1    0    0    0    0  0.00000000000E+00  0.00000000000E+00  0.45593999997E+02  0.45594000000E+02  0.51100000000E-03 0.  1.
         11   -1    0    0    0    0 -0.00000000000E+00 -0.00000000000E+00 -0.45593999997E+02  0.45594000000E+02  0.51100000000E-03 0. -1.
    9900012    2    1    2    0    0 -0.32335854097E+02 -0.10124027676E+02 -0.27120466908E+02  0.47787272795E+02  0.20000007981E+02 0.  0.
        -12    1    1    2    0    0  0.32335854097E+02  0.10124027676E+02  0.27120466908E+02  0.43400727205E+02  0.00000000000E+00 0.  1.
         11    1    3    3    0    0 -0.23102629624E+02  0.65723588348E+00 -0.18405833785E+02  0.29545527109E+02  0.51100000000E-03 0. -1.
        -11    1    3    3    0    0 -0.20868094094E+01  0.93629274117E+00 -0.15110629372E+01  0.27413006164E+01  0.51100000000E-03 0.  1.
         12    1    3    3    0    0 -0.71464150637E+01 -0.11717556301E+02 -0.72035701864E+01  0.15500445070E+02  0.00000000000E+00 0. -1.
</event>
<event>
 7    1  0.2740409E-010  0.4778727E+02  0.7816164E-02  0.1312668E+00
        -11   -1    0    0    0    0  0.00000000000E+00  0.00000000000E+00  0.45593999997E+02  0.45594000000E+02  0.51100000000E-03 0.  1.
         11   -1    0    0    0    0 -0.00000000000E+00 -0.00000000000E+00 -0.45593999997E+02  0.45594000000E+02  0.51100000000E-03 0. -1.
    9900012    2    1    2    0    0 -0.13280281367E+02 -0.14575109903E+02 -0.38662952926E+02  0.47787266932E+02  0.19999981248E+02 0.  0.
        -12    1    1    2    0    0  0.13280281367E+02  0.14575109903E+02  0.38662952926E+02  0.43400733068E+02  0.00000000000E+00 0.  1.
         11    1    3    3    0    0 -0.49412754944E+01 -0.55624517916E+01 -0.16040101623E+02  0.17681683568E+02  0.51100000000E-03 0.  1.
        -11    1    3    3    0    0 -0.11554543661E+02 -0.73231312362E+01 -0.22664555835E+02  0.26472963978E+02  0.51100000000E-03 0. -1.
        -12    1    3    3    0    0  0.32155377884E+01 -0.16895268757E+01  0.41704532550E-01  0.36326193855E+01  0.00000000000E+00 0.  1.
</event>
<event>
 7    1  0.2740409E-010  0.4778727E+02  0.7816164E-02  0.1312668E+00
        -11   -1    0    0    0    0  0.00000000000E+00  0.00000000000E+00  0.45593999997E+02  0.45594000000E+02  0.51100000000E-03 0.  1.
         11   -1    0    0    0    0 -0.00000000000E+00 -0.00000000000E+00 -0.45593999997E+02  0.45594000000E+02  0.51100000000E-03 0. -1.
    9900012    2    1    2    0    0  0.31843235873E+02 -0.49864470278E+01 -0.29064872895E+02  0.47787272342E+02  0.20000005916E+02 0.  0.
        -12    1    1    2    0    0 -0.31843235873E+02  0.49864470278E+01  0.29064872895E+02  0.43400727658E+02  0.00000000000E+00 0.  1.
         11    1    3    3    0    0  0.65569461969E+01  0.40647138610E+01 -0.21224530885E+01  0.80012654984E+01  0.51100000000E-03 0. -1.
        -11    1    3    3    0    0  0.18829457532E+02 -0.45292460522E+01 -0.25078477128E+02  0.31685841572E+02  0.51100000000E-03 0.  1.
        -12    1    3    3    0    0  0.64568321441E+01 -0.45219148365E+01 -0.18639426781E+01  0.81001652720E+01  0.00000000000E+00 0.  1.
</event>
<event>
 7    1  0.2740409E-010  0.4778727E+02  0.7816164E-02  0.1312668E+00
        -11   -1    0    0    0    0  0.00000000000E+00  0.00000000000E+00  0.45593999997E+02  0.45594000000E+02  0.51100000000E-03 0.  1.
         11   -1    0    0    0    0 -0.00000000000E+00 -0.00000000000E+00 -0.45593999997E+02  0.45594000000E+02  0.51100000000E-03 0. -1.
    9900012    2    1    2    0    0  0.24209002941E+02 -0.34525626053E+02  0.10272719303E+02  0.47787269135E+02  0.19999991295E+02 0.  0.
        -12    1    1    2    0    0 -0.24209002941E+02  0.34525626053E+02 -0.10272719303E+02  0.43400730865E+02  0.00000000000E+00 0.  1.
         11    1    3    3    0    0  0.10805916671E+02 -0.63610715102E+01  0.92955041199E+01  0.15608890511E+02  0.51100000000E-03 0.  1.
        -11    1    3    3    0    0  0.20319107510E+00 -0.17966541362E+01  0.19704550863E+01  0.26743122866E+01  0.51100000000E-03 0. -1.
         12    1    3    3    0    0  0.13199895194E+02 -0.26367900406E+02 -0.99323990326E+00  0.29504066338E+02  0.00000000000E+00 0. -1.
</event>
<event>
 7    1  0.2740409E-010  0.4778727E+02  0.7816164E-02  0.1312668E+00
        -11   -1    0    0    0    0  0.00000000000E+00  0.00000000000E+00  0.45593999997E+02  0.45594000000E+02  0.51100000000E-03 0.  1.
         11   -1    0    0    0    0 -0.00000000000E+00 -0.00000000000E+00 -0.45593999997E+02  0.45594000000E+02  0.51100000000E-03 0. -1.
    9900012    2    1    2    0    0  0.27496271449E+02 -0.30874326857E+02  0.13204339966E+02  0.47787267329E+02  0.19999983058E+02 0.  0.
        -12    1    1    2    0    0 -0.27496271449E+02  0.30874326857E+02 -0.13204339966E+02  0.43400732671E+02  0.00000000000E+00 0.  1.
         11    1    3    3    0    0  0.10410801061E+02 -0.53128404872E+01 -0.62793174282E+00  0.11704928505E+02  0.51100000000E-03 0. -1.
        -11    1    3    3    0    0  0.21001250791E+01 -0.96342069481E+01  0.96900725435E+01  0.13824831826E+02  0.51100000000E-03 0.  1.
        -12    1    3    3    0    0  0.14985345309E+02 -0.15927279422E+02  0.41421991651E+01  0.22257506997E+02  0.00000000000E+00 0.  1.
</event>
<event>
 7    1  0.2740409E-010  0.4778727E+02  0.7816164E-02  0.1312668E+00
        -11   -1    0    0    0    0  0.00000000000E+00  0.00000000000E+00  0.45593999997E+02  0.45594000000E+02  0.51100000000E-03 0.  1.
         11   -1    0    0    0    0 -0.00000000000E+00 -0.00000000000E+00 -0.45593999997E+02  0.45594000000E+02  0.51100000000E-03 0. -1.
    9900012    2    1    2    0    0 -0.26848266862E+02  0.18493149414E+01 -0.34049578375E+02  0.47787272048E+02  0.20000004575E+02 0.  0.
        -12    1    1    2    0    0  0.26848266862E+02 -0.18493149414E+01  0.34049578375E+02  0.43400727952E+02  0.00000000000E+00 0.  1.
         11    1    3    3    0    0 -0.22087396114E+02  0.63242213841E+01 -0.18142267310E+02  0.29274403608E+02  0.51100000000E-03 0. -1.
        -11    1    3    3    0    0 -0.21311850798E+01 -0.41539356860E+01 -0.35241810402E+01  0.58495285103E+01  0.51100000000E-03 0.  1.
         12    1    3    3    0    0 -0.26296856681E+01 -0.32097075666E+00 -0.12383130026E+02  0.12663339929E+02  0.00000000000E+00 0. -1.
</event>
<event>
 7    1  0.2740409E-010  0.4778727E+02  0.7816164E-02  0.1312668E+00
        -11   -1    0    0    0    0  0.00000000000E+00  0.00000000000E+00  0.45593999997E+02  0.45594000000E+02  0.51100000000E-03 0.  1.
         11   -1    0    0    0    0 -0.00000000000E+00 -0.00000000000E+00 -0.45593999997E+02  0.45594000000E+02  0.51100000000E-03 0. -1.
    9900012    2    1    2    0    0  0.18196938863E+02  0.11948897911E+02 -0.37546215399E+02  0.47787273784E+02  0.20000012490E+02 0.  0.
        -12    1    1    2    0    0 -0.18196938863E+02 -0.11948897911E+02  0.37546215399E+02  0.43400726216E+02  0.00000000000E+00 0.  1.
         11    1    3    3    0    0  0.13759219156E+02  0.11749935191E+02 -0.23903291230E+02  0.29979066375E+02  0.51100000000E-03 0. -1.
        -11    1    3    3    0    0  0.31037636031E+01 -0.39456648529E+01 -0.12246906219E+02  0.13235872915E+02  0.51100000000E-03 0.  1.
         12    1    3    3    0    0  0.13339561034E+01  0.41446275734E+01 -0.13960179503E+01  0.45723344940E+01  0.00000000000E+00 0. -1.
</event>
<event>
 7    1  0.2740409E-010  0.4778727E+02  0.7816164E-02  0.1312668E+00
        -11   -1    0    0    0    0  0.00000000000E+00  0.00000000000E+00  0.45593999997E+02  0.45594000000E+02  0.51100000000E-03 0. -1.
         11   -1    0    0    0    0 -0.00000000000E+00 -0.00000000000E+00 -0.45593999997E+02  0.45594000000E+02  0.51100000000E-03 0.  1.
    9900012    2    1    2    0    0 -0.16397803147E+02 -0.22326373623E+02  0.33410600806E+02  0.47787272432E+02  0.20000006325E+02 0.  0.
        -12    1    1    2    0    0  0.16397803147E+02  0.22326373623E+02 -0.33410600806E+02  0.43400727568E+02  0.00000000000E+00 0.  1.
         11    1    3    3    0    0 -0.47198366703E+01 -0.20741943502E+02  0.25219860299E+02  0.32993127044E+02  0.51100000000E-03 0. -1.
        -11    1    3    3    0    0 -0.24867766414E+01  0.90545321823E+00  0.87999516481E+00  0.27889595454E+01  0.51100000000E-03 0.  1.
         12    1    3    3    0    0 -0.91911898352E+01 -0.24898833399E+01  0.73107453428E+01  0.12005185842E+02  0.00000000000E+00 0. -1.
</event>
<event>
 7    1  0.2740409E-010  0.4778727E+02  0.7816164E-02  0.1312668E+00
        -11   -1    0    0    0    0  0.00000000000E+00  0.00000000000E+00  0.45593999997E+02  0.45594000000E+02  0.51100000000E-03 0.  1.
         11   -1    0    0    0    0 -0.00000000000E+00 -0.00000000000E+00 -0.45593999997E+02  0.45594000000E+02  0.51100000000E-03 0. -1.
    9900012    2    1    2    0    0  0.23657954378E+02 -0.21726796447E+02 -0.29186819840E+02  0.47787274873E+02  0.20000017457E+02 0.  0.
        -12    1    1    2    0    0 -0.23657954378E+02  0.21726796447E+02  0.29186819840E+02  0.43400725127E+02  0.00000000000E+00 0.  1.
         11    1    3    3    0    0 -0.23166862139E+01 -0.31601039865E+00 -0.17010540767E+01  0.28914499509E+01  0.51100000000E-03 0. -1.
        -11    1    3    3    0    0  0.33883146887E+01 -0.44304435461E+01 -0.10599515943E+02  0.11977447346E+02  0.51100000000E-03 0.  1.
         12    1    3    3    0    0  0.22586325903E+02 -0.16980342502E+02 -0.16886249820E+02  0.32918377576E+02  0.00000000000E+00 0. -1.
</event>
<event>
 7    1  0.2740409E-010  0.4778727E+02  0.7816164E-02  0.1312668E+00
        -11   -1    0    0    0    0  0.00000000000E+00  0.00000000000E+00  0.45593999997E+02  0.45594000000E+02  0.51100000000E-03 0.  1.
         11   -1    0    0    0    0 -0.00000000000E+00 -0.00000000000E+00 -0.45593999997E+02  0.45594000000E+02  0.51100000000E-03 0. -1.
    9900012    2    1    2    0    0 -0.43158750374E+02  0.32516671043E+01 -0.32206033559E+01  0.47787270066E+02  0.19999995539E+02 0.  0.
        -12    1    1    2    0    0  0.43158750374E+02 -0.32516671043E+01  0.32206033559E+01  0.43400729934E+02  0.00000000000E+00 0.  1.
         11    1    3    3    0    0  0.86885727246E+00  0.22876581947E+01 -0.23420444441E+01  0.33872504210E+01  0.51100000000E-03 0. -1.
        -11    1    3    3    0    0 -0.34268449510E+02 -0.89265033216E+00 -0.23355455552E+01  0.34359543503E+02  0.51100000000E-03 0.  1.
         12    1    3    3    0    0 -0.97591581370E+01  0.18566592418E+01  0.14569866435E+01  0.10040476142E+02  0.00000000000E+00 0. -1.
</event>
<event>
 7    1  0.2740409E-010  0.4778727E+02  0.7816164E-02  0.1312668E+00
        -11   -1    0    0    0    0  0.00000000000E+00  0.00000000000E+00  0.45593999997E+02  0.45594000000E+02  0.51100000000E-03 0.  1.
         11   -1    0    0    0    0 -0.00000000000E+00 -0.00000000000E+00 -0.45593999997E+02  0.45594000000E+02  0.51100000000E-03 0. -1.
    9900012    2    1    2    0    0  0.39848264998E+02 -0.71168738918E+01 -0.15655325586E+02  0.47787270322E+02  0.19999996708E+02 0.  0.
        -12    1    1    2    0    0 -0.39848264998E+02  0.71168738918E+01  0.15655325586E+02  0.43400729678E+02  0.00000000000E+00 0.  1.
         11    1    3    3    0    0  0.23209897611E+02 -0.83945233549E+01 -0.24213785397E+01  0.24799807333E+02  0.51100000000E-03 0. -1.
        -11    1    3    3    0    0  0.13719643561E+01  0.51550379244E+00 -0.58147845439E+01  0.59966448875E+01  0.51100000000E-03 0.  1.
         12    1    3    3    0    0  0.15266403031E+02  0.76214567063E+00 -0.74191625027E+01  0.16990818102E+02  0.00000000000E+00 0. -1.
</event>
<event>
 7    1  0.2740409E-010  0.4778727E+02  0.7816164E-02  0.1312668E+00
        -11   -1    0    0    0    0  0.00000000000E+00  0.00000000000E+00  0.45593999997E+02  0.45594000000E+02  0.51100000000E-03 0. -1.
         11   -1    0    0    0    0 -0.00000000000E+00 -0.00000000000E+00 -0.45593999997E+02  0.45594000000E+02  0.51100000000E-03 0.  1.
    9900012    2    1    2    0    0 -0.22729433739E+02 -0.36472748960E+02  0.60609095233E+01  0.47787271907E+02  0.20000003931E+02 0.  0.
        -12    1    1    2    0    0  0.22729433739E+02  0.36472748960E+02 -0.60609095233E+01  0.43400728093E+02  0.00000000000E+00 0.  1.
         11    1    3    3    0    0 -0.11162162917E+02 -0.28789844002E+02  0.38490599340E+01  0.31116944922E+02  0.51100000000E-03 0. -1.
        -11    1    3    3    0    0 -0.10057093375E+02 -0.68185133532E+01 -0.18132996885E+01  0.12285166158E+02  0.51100000000E-03 0.  1.
        -12    1    3    3    0    0 -0.15101774472E+01 -0.86439160463E+00  0.40251492778E+01  0.43851608268E+01  0.00000000000E+00 0.  1.
</event>
<event>
 7    1  0.2740409E-010  0.4778727E+02  0.7816164E-02  0.1312668E+00
        -11   -1    0    0    0    0  0.00000000000E+00  0.00000000000E+00  0.45593999997E+02  0.45594000000E+02  0.51100000000E-03 0.  1.
         11   -1    0    0    0    0 -0.00000000000E+00 -0.00000000000E+00 -0.45593999997E+02  0.45594000000E+02  0.51100000000E-03 0. -1.
    9900012    2    1    2    0    0 -0.36596739601E+02  0.23131850221E+02 -0.30363938780E+01  0.47787268072E+02  0.19999986449E+02 0.  0.
        -12    1    1    2    0    0  0.36596739601E+02 -0.23131850221E+02  0.30363938780E+01  0.43400731928E+02  0.00000000000E+00 0.  1.
         11    1    3    3    0    0 -0.89965783460E+01  0.53655562919E+01 -0.55762676472E+01  0.11866860469E+02  0.51100000000E-03 0. -1.
        -11    1    3    3    0    0 -0.77079139558E+01  0.36774608946E+01  0.71185395752E+01  0.11117970234E+02  0.51100000000E-03 0.  1.
        -12    1    3    3    0    0 -0.19892247299E+02  0.14088833035E+02 -0.45786658061E+01  0.24802437369E+02  0.00000000000E+00 0.  1.
</event>
<event>
 7    1  0.2740409E-010  0.4778728E+02  0.7816164E-02  0.1312668E+00
        -11   -1    0    0    0    0  0.00000000000E+00  0.00000000000E+00  0.45593999997E+02  0.45594000000E+02  0.51100000000E-03 0.  1.
         11   -1    0    0    0    0 -0.00000000000E+00 -0.00000000000E+00 -0.45593999997E+02  0.45594000000E+02  0.51100000000E-03 0. -1.
    9900012    2    1    2    0    0  0.27159056009E+02  0.21987127306E+02 -0.25740528205E+02  0.47787275551E+02  0.20000020546E+02 0.  0.
        -12    1    1    2    0    0 -0.27159056009E+02 -0.21987127306E+02  0.25740528205E+02  0.43400724449E+02  0.00000000000E+00 0.  1.
         11    1    3    3    0    0  0.16308322913E+02  0.15894570643E+02 -0.17536992281E+02  0.28742735964E+02  0.51100000000E-03 0. -1.
        -11    1    3    3    0    0  0.46604298909E+01  0.63856295073E+00  0.26595058373E+01  0.54037339840E+01  0.51100000000E-03 0.  1.
         12    1    3    3    0    0  0.61903032048E+01  0.54539937117E+01 -0.10863041762E+02  0.13640805603E+02  0.00000000000E+00 0. -1.
</event>
<event>
 7    1  0.2740409E-010  0.4778726E+02  0.7816164E-02  0.1312668E+00
        -11   -1    0    0    0    0  0.00000000000E+00  0.00000000000E+00  0.45593999997E+02  0.45594000000E+02  0.51100000000E-03 0.  1.
         11   -1    0    0    0    0 -0.00000000000E+00 -0.00000000000E+00 -0.45593999997E+02  0.45594000000E+02  0.51100000000E-03 0. -1.
    9900012    2    1    2    0    0 -0.45219288297E+01  0.29217960025E+02 -0.31772431084E+02  0.47787258009E+02  0.19999940565E+02 0.  0.
        -12    1    1    2    0    0  0.45219288297E+01 -0.29217960025E+02  0.31772431084E+02  0.43400741991E+02  0.00000000000E+00 0.  1.
         11    1    3    3    0    0  0.57928031611E-01  0.57140048992E+01 -0.65869826512E+01  0.87201805229E+01  0.51100000000E-03 0. -1.
        -11    1    3    3    0    0 -0.80788666791E+01  0.22232171378E+02 -0.14484391474E+02  0.27736891095E+02  0.51100000000E-03 0.  1.
        -12    1    3    3    0    0  0.34990098178E+01  0.12717837482E+01 -0.10701056959E+02  0.11330186391E+02  0.00000000000E+00 0.  1.
</event>
<event>
 7    1  0.2740409E-010  0.4778727E+02  0.7816164E-02  0.1312668E+00
        -11   -1    0    0    0    0  0.00000000000E+00  0.00000000000E+00  0.45593999997E+02  0.45594000000E+02  0.51100000000E-03 0.  1.
         11   -1    0    0    0    0 -0.00000000000E+00 -0.00000000000E+00 -0.45593999997E+02  0.45594000000E+02  0.51100000000E-03 0. -1.
    9900012    2    1    2    0    0  0.42020072826E+02 -0.37340505524E+01 -0.10197742840E+02  0.47787267139E+02  0.19999982193E+02 0.  0.
        -12    1    1    2    0    0 -0.42020072826E+02  0.37340505524E+01  0.10197742840E+02  0.43400732861E+02  0.00000000000E+00 0.  1.
         11    1    3    3    0    0  0.26366036198E+01 -0.13385101569E+01 -0.40628654833E+01  0.50249541575E+01  0.51100000000E-03 0. -1.
        -11    1    3    3    0    0  0.15034979196E+01  0.31421774251E+01  0.13841476508E+01  0.37482862678E+01  0.51100000000E-03 0.  1.
        -12    1    3    3    0    0  0.37879971287E+02 -0.55377178206E+01 -0.75190250077E+01  0.39014026714E+02  0.00000000000E+00 0.  1.
</event>
<event>
 7    1  0.2740409E-010  0.4778727E+02  0.7816164E-02  0.1312668E+00
        -11   -1    0    0    0    0  0.00000000000E+00  0.00000000000E+00  0.45593999997E+02  0.45594000000E+02  0.51100000000E-03 0. -1.
         11   -1    0    0    0    0 -0.00000000000E+00 -0.00000000000E+00 -0.45593999997E+02  0.45594000000E+02  0.51100000000E-03 0.  1.
    9900012    2    1    2    0    0 -0.33937641727E+02  0.16929203566E+02  0.21101231401E+02  0.47787269292E+02  0.19999992009E+02 0.  0.
        -12    1    1    2    0    0  0.33937641727E+02 -0.16929203566E+02 -0.21101231401E+02  0.43400730708E+02  0.00000000000E+00 0.  1.
         11    1    3    3    0    0 -0.17040295172E+01  0.79195887432E+00  0.58517658223E+01  0.61460620689E+01  0.51100000000E-03 0. -1.
        -11    1    3    3    0    0 -0.20037687827E+02  0.21154984127E+01  0.85271633119E+01  0.21879140326E+02  0.51100000000E-03 0.  1.
        -12    1    3    3    0    0 -0.12195924382E+02  0.14021746279E+02  0.67223022664E+01  0.19762066897E+02  0.00000000000E+00 0.  1.
</event>
<event>
 7    1  0.2740409E-010  0.4778727E+02  0.7816164E-02  0.1312668E+00
        -11   -1    0    0    0    0  0.00000000000E+00  0.00000000000E+00  0.45593999997E+02  0.45594000000E+02  0.51100000000E-03 0.  1.
         11   -1    0    0    0    0 -0.00000000000E+00 -0.00000000000E+00 -0.45593999997E+02  0.45594000000E+02  0.51100000000E-03 0. -1.
    9900012    2    1    2    0    0  0.14426957417E+02  0.29994680712E+02 -0.27853278682E+02  0.47787272994E+02  0.20000008889E+02 0.  0.
        -12    1    1    2    0    0 -0.14426957417E+02 -0.29994680712E+02  0.27853278682E+02  0.43400727006E+02  0.00000000000E+00 0.  1.
         11    1    3    3    0    0  0.41439625116E+01  0.10029532646E+01  0.16632926414E+01  0.45765580102E+01  0.51100000000E-03 0.  1.
        -11    1    3    3    0    0  0.10730521609E+02  0.21292846985E+02 -0.22546962384E+02  0.32816077458E+02  0.51100000000E-03 0. -1.
         12    1    3    3    0    0 -0.44752670340E+00  0.76988804624E+01 -0.69696089395E+01  0.10394637526E+02  0.00000000000E+00 0. -1.
</event>
<event>
 7    1  0.2740409E-010  0.4778727E+02  0.7816164E-02  0.1312668E+00
        -11   -1    0    0    0    0  0.00000000000E+00  0.00000000000E+00  0.45593999997E+02  0.45594000000E+02  0.51100000000E-03 0.  1.
         11   -1    0    0    0    0 -0.00000000000E+00 -0.00000000000E+00 -0.45593999997E+02  0.45594000000E+02  0.51100000000E-03 0. -1.
    9900012    2    1    2    0    0 -0.52737866629E+01 -0.26179040486E+02 -0.34212108412E+02  0.47787270184E+02  0.19999996078E+02 0.  0.
        -12    1    1    2    0    0  0.52737866629E+01  0.26179040486E+02  0.34212108412E+02  0.43400729816E+02  0.00000000000E+00 0.  1.
         11    1    3    3    0    0  0.57301064080E+01 -0.44135802153E+01 -0.58935403806E+01  0.93299318455E+01  0.51100000000E-03 0. -1.
        -11    1    3    3    0    0 -0.10654311340E+02 -0.19417527707E+02 -0.20122397465E+02  0.29924331444E+02  0.51100000000E-03 0.  1.
        -12    1    3    3    0    0 -0.34958173097E+00 -0.23479325639E+01 -0.81961705663E+01  0.85330068946E+01  0.00000000000E+00 0.  1.
</event>
<event>
 7    1  0.2740409E-010  0.4778727E+02  0.7816164E-02  0.1312668E+00
        -11   -1    0    0    0    0  0.00000000000E+00  0.00000000000E+00  0.45593999997E+02  0.45594000000E+02  0.51100000000E-03 0. -1.
         11   -1    0    0    0    0 -0.00000000000E+00 -0.00000000000E+00 -0.45593999997E+02  0.45594000000E+02  0.51100000000E-03 0.  1.
    9900012    2    1    2    0    0 -0.22647418422E+02 -0.50930970708E+01  0.36671218181E+02  0.47787269110E+02  0.19999991180E+02 0.  0.
        -12    1    1    2    0    0  0.22647418422E+02  0.50930970708E+01 -0.36671218181E+02  0.43400730890E+02  0.00000000000E+00 0.  1.
         11    1    3    3    0    0 -0.83773339217E+01  0.19616865640E+01  0.16746035046E+02  0.18827045117E+02  0.51100000000E-03 0. -1.
        -11    1    3    3    0    0 -0.13664513033E+02 -0.85527138468E+01  0.10143980218E+02  0.19046473833E+02  0.51100000000E-03 0.  1.
        -12    1    3    3    0    0 -0.60557146709E+00  0.14979302120E+01  0.97812029167E+01  0.99137501593E+01  0.00000000000E+00 0.  1.
</event>
<event>
 7    1  0.2740409E-010  0.4778729E+02  0.7816164E-02  0.1312668E+00
        -11   -1    0    0    0    0  0.00000000000E+00  0.00000000000E+00  0.45593999997E+02  0.45594000000E+02  0.51100000000E-03 0.  1.
         11   -1    0    0    0    0 -0.00000000000E+00 -0.00000000000E+00 -0.45593999997E+02  0.45594000000E+02  0.51100000000E-03 0. -1.
    9900012    2    1    2    0    0  0.17141218271E+02 -0.83525140832E+01 -0.38987640770E+02  0.47787285857E+02  0.20000067537E+02 0.  0.
        -12    1    1    2    0    0 -0.17141218271E+02  0.83525140832E+01  0.38987640770E+02  0.43400714143E+02  0.00000000000E+00 0.  1.
         11    1    3    3    0    0  0.10676590860E+02  0.22691274557E+01 -0.13987016130E+02  0.17741903852E+02  0.51100000000E-03 0. -1.
        -11    1    3    3    0    0  0.24772857254E+01 -0.11274794482E+02 -0.13013755147E+02  0.17395854634E+02  0.51100000000E-03 0.  1.
        -12    1    3    3    0    0  0.39873416855E+01  0.65315294287E+00 -0.11986869492E+02  0.12649527371E+02  0.00000000000E+00 0.  1.
</event>
<event>
 7    1  0.2740409E-010  0.4778728E+02  0.7816164E-02  0.1312668E+00
        -11   -1    0    0    0    0  0.00000000000E+00  0.00000000000E+00  0.45593999997E+02  0.45594000000E+02  0.51100000000E-03 0.  1.
         11   -1    0    0    0    0 -0.00000000000E+00 -0.00000000000E+00 -0.45593999997E+02  0.45594000000E+02  0.51100000000E-03 0. -1.
    9900012    2    1    2    0    0 -0.37829464085E+02  0.21018403046E+02 -0.32834738442E+01  0.47787276273E+02  0.20000023838E+02 0.  0.
        -12    1    1    2    0    0  0.37829464085E+02 -0.21018403046E+02  0.32834738442E+01  0.43400723727E+02  0.00000000000E+00 0.  1.
         11    1    3    3    0    0 -0.33169785598E+02  0.97038848181E+01  0.12102489864E+01  0.34581277595E+02  0.51100000000E-03 0. -1.
        -11    1    3    3    0    0 -0.15926627362E+00  0.16656169888E+00 -0.47852062692E+00  0.53112220529E+00  0.51100000000E-03 0.  1.
         12    1    3    3    0    0 -0.45004122129E+01  0.11147956529E+02 -0.40152022037E+01  0.12674876473E+02  0.00000000000E+00 0. -1.
</event>
<event>
 7    1  0.2740409E-010  0.4778727E+02  0.7816164E-02  0.1312668E+00
        -11   -1    0    0    0    0  0.00000000000E+00  0.00000000000E+00  0.45593999997E+02  0.45594000000E+02  0.51100000000E-03 0.  1.
         11   -1    0    0    0    0 -0.00000000000E+00 -0.00000000000E+00 -0.45593999997E+02  0.45594000000E+02  0.51100000000E-03 0. -1.
    9900012    2    1    2    0    0 -0.17854354436E+02  0.39555981585E+02  0.41147924044E+00  0.47787274584E+02  0.20000016139E+02 0.  0.
        -12    1    1    2    0    0  0.17854354436E+02 -0.39555981585E+02 -0.41147924044E+00  0.43400725416E+02  0.00000000000E+00 0.  1.
         11    1    3    3    0    0 -0.17675397080E+02  0.28694748827E+02 -0.55928183590E+01  0.34162668069E+02  0.51100000000E-03 0. -1.
        -11    1    3    3    0    0  0.26730169411E+01  0.44429714064E+01  0.29533461723E+01  0.59671826150E+01  0.51100000000E-03 0.  1.
         12    1    3    3    0    0 -0.28519742977E+01  0.64182613516E+01  0.30509514271E+01  0.76574238999E+01  0.00000000000E+00 0. -1.
</event>
<event>
 7    1  0.2740409E-010  0.4778727E+02  0.7816164E-02  0.1312668E+00
        -11   -1    0    0    0    0  0.00000000000E+00  0.00000000000E+00  0.45593999997E+02  0.45594000000E+02  0.51100000000E-03 0.  1.
         11   -1    0    0    0    0 -0.00000000000E+00 -0.00000000000E+00 -0.45593999997E+02  0.45594000000E+02  0.51100000000E-03 0. -1.
    9900012    2    1    2    0    0 -0.71523171506E+00  0.13122109216E+02 -0.41363297822E+02  0.47787265981E+02  0.19999976913E+02 0.  0.
        -12    1    1    2    0    0  0.71523171506E+00 -0.13122109216E+02  0.41363297822E+02  0.43400734019E+02  0.00000000000E+00 0.  1.
         11    1    3    3    0    0 -0.78850053124E+01  0.88587299857E+01 -0.25040240316E+02  0.27706750822E+02  0.51100000000E-03 0. -1.
        -11    1    3    3    0    0  0.15004411449E+01 -0.14265719704E+01 -0.21577106622E+00  0.20815832028E+01  0.51100000000E-03 0.  1.
         12    1    3    3    0    0  0.56693324525E+01  0.56899512004E+01 -0.16107286440E+02  0.17998931957E+02  0.00000000000E+00 0. -1.
</event>
<event>
 7    1  0.2740409E-010  0.4778727E+02  0.7816164E-02  0.1312668E+00
        -11   -1    0    0    0    0  0.00000000000E+00  0.00000000000E+00  0.45593999997E+02  0.45594000000E+02  0.51100000000E-03 0. -1.
         11   -1    0    0    0    0 -0.00000000000E+00 -0.00000000000E+00 -0.45593999997E+02  0.45594000000E+02  0.51100000000E-03 0.  1.
    9900012    2    1    2    0    0  0.38569701625E+02 -0.19363095485E+02 -0.45904638724E+01  0.47787266034E+02  0.19999977156E+02 0.  0.
        -12    1    1    2    0    0 -0.38569701625E+02  0.19363095485E+02  0.45904638724E+01  0.43400733966E+02  0.00000000000E+00 0.  1.
         11    1    3    3    0    0  0.34211727360E+02 -0.90743137793E+01 -0.73623730179E+01  0.36152316610E+02  0.51100000000E-03 0. -1.
        -11    1    3    3    0    0  0.12665013049E+01 -0.40004590416E+01  0.17794303617E+01  0.45578581343E+01  0.51100000000E-03 0.  1.
         12    1    3    3    0    0  0.30914729602E+01 -0.62883226640E+01  0.99247878371E+00  0.70770912900E+01  0.00000000000E+00 0. -1.
</event>
<event>
 7    1  0.2740409E-010  0.4778727E+02  0.7816164E-02  0.1312668E+00
        -11   -1    0    0    0    0  0.00000000000E+00  0.00000000000E+00  0.45593999997E+02  0.45594000000E+02  0.51100000000E-03 0. -1.
         11   -1    0    0    0    0 -0.00000000000E+00 -0.00000000000E+00 -0.45593999997E+02  0.45594000000E+02  0.51100000000E-03 0.  1.
    9900012    2    1    2    0    0  0.30306594970E+02  0.31064055547E+02 -0.39774590331E+00  0.47787269044E+02  0.19999990880E+02 0.  0.
        -12    1    1    2    0    0 -0.30306594970E+02 -0.31064055547E+02  0.39774590331E+00  0.43400730956E+02  0.00000000000E+00 0.  1.
         11    1    3    3    0    0  0.15701516442E+02  0.83164247572E+01  0.62584154132E+01  0.18837948484E+02  0.51100000000E-03 0. -1.
        -11    1    3    3    0    0  0.12196569906E+02  0.22686758187E+02 -0.62661859339E+01  0.26508685387E+02  0.51100000000E-03 0.  1.
        -12    1    3    3    0    0  0.24085086212E+01  0.60872602818E-01 -0.38997538262E+00  0.24406351737E+01  0.00000000000E+00 0.  1.
</event>
<event>
 7    1  0.2740409E-010  0.4778727E+02  0.7816164E-02  0.1312668E+00
        -11   -1    0    0    0    0  0.00000000000E+00  0.00000000000E+00  0.45593999997E+02  0.45594000000E+02  0.51100000000E-03 0.  1.
         11   -1    0    0    0    0 -0.00000000000E+00 -0.00000000000E+00 -0.45593999997E+02  0.45594000000E+02  0.51100000000E-03 0. -1.
    9900012    2    1    2    0    0  0.30807581932E+02  0.12489741759E+02 -0.27902014280E+02  0.47787272419E+02  0.20000006266E+02 0.  0.
        -12    1    1    2    0    0 -0.30807581932E+02 -0.12489741759E+02  0.27902014280E+02  0.43400727581E+02  0.00000000000E+00 0.  1.
         11    1    3    3    0    0  0.55554900357E+01  0.99914478260E+01 -0.15896643949E+02  0.19580495098E+02  0.51100000000E-03 0. -1.
        -11    1    3    3    0    0  0.14503413772E+02  0.10251919614E+00 -0.64704124639E+01  0.15881617013E+02  0.51100000000E-03 0.  1.
         12    1    3    3    0    0  0.10748678124E+02  0.23957747370E+01 -0.55349578670E+01  0.12325160307E+02  0.00000000000E+00 0. -1.
</event>
<event>
 7    1  0.2740409E-010  0.4778728E+02  0.7816164E-02  0.1312668E+00
        -11   -1    0    0    0    0  0.00000000000E+00  0.00000000000E+00  0.45593999997E+02  0.45594000000E+02  0.51100000000E-03 0.  1.
         11   -1    0    0    0    0 -0.00000000000E+00 -0.00000000000E+00 -0.45593999997E+02  0.45594000000E+02  0.51100000000E-03 0. -1.
    9900012    2    1    2    0    0  0.27739810783E+02  0.21195930647E+02 -0.25784847142E+02  0.47787275116E+02  0.20000018566E+02 0.  0.
        -12    1    1    2    0    0 -0.27739810783E+02 -0.21195930647E+02  0.25784847142E+02  0.43400724884E+02  0.00000000000E+00 0.  1.
         11    1    3    3    0    0  0.96446091374E+01  0.47412579730E+01 -0.14207264392E+02  0.17814162185E+02  0.51100000000E-03 0. -1.
        -11    1    3    3    0    0 -0.74709051041E-01  0.65046715720E+01 -0.61154365371E+00  0.65337829473E+01  0.51100000000E-03 0.  1.
        -12    1    3    3    0    0  0.18169910696E+02  0.99500011024E+01 -0.10966039097E+02  0.23439329984E+02  0.00000000000E+00 0.  1.
</event>
<event>
 7    1  0.2740409E-010  0.4778727E+02  0.7816164E-02  0.1312668E+00
        -11   -1    0    0    0    0  0.00000000000E+00  0.00000000000E+00  0.45593999997E+02  0.45594000000E+02  0.51100000000E-03 0. -1.
         11   -1    0    0    0    0 -0.00000000000E+00 -0.00000000000E+00 -0.45593999997E+02  0.45594000000E+02  0.51100000000E-03 0.  1.
    9900012    2    1    2    0    0  0.24073072592E+02 -0.29387656416E+02  0.20987522696E+02  0.47787270944E+02  0.19999999544E+02 0.  0.
        -12    1    1    2    0    0 -0.24073072592E+02  0.29387656416E+02 -0.20987522696E+02  0.43400729056E+02  0.00000000000E+00 0.  1.
         11    1    3    3    0    0  0.20945265618E+02 -0.14744399470E+02  0.62850532565E+01  0.26374293587E+02  0.51100000000E-03 0. -1.
        -11    1    3    3    0    0  0.10139987193E+01 -0.12246965632E+02  0.10723700635E+02  0.16309939183E+02  0.51100000000E-03 0.  1.
         12    1    3    3    0    0  0.21138082552E+01 -0.23962913130E+01  0.39787688050E+01  0.51030381735E+01  0.00000000000E+00 0. -1.
</event>
<event>
 7    1  0.2740409E-010  0.4778727E+02  0.7816164E-02  0.1312668E+00
        -11   -1    0    0    0    0  0.00000000000E+00  0.00000000000E+00  0.45593999997E+02  0.45594000000E+02  0.51100000000E-03 0.  1.
         11   -1    0    0    0    0 -0.00000000000E+00 -0.00000000000E+00 -0.45593999997E+02  0.45594000000E+02  0.51100000000E-03 0. -1.
    9900012    2    1    2    0    0 -0.27532898808E+02  0.14476403152E+02 -0.30265431858E+02  0.47787272696E+02  0.20000007531E+02 0.  0.
        -12    1    1    2    0    0  0.27532898808E+02 -0.14476403152E+02  0.30265431858E+02  0.43400727304E+02  0.00000000000E+00 0.  1.
         11    1    3    3    0    0 -0.14086080959E+02  0.53504614152E+01 -0.26259784829E+02  0.30275756203E+02  0.51100000000E-03 0. -1.
        -11    1    3    3    0    0 -0.12507543151E+02  0.61856122780E+01 -0.30855632824E+01  0.14290596068E+02  0.51100000000E-03 0.  1.
         12    1    3    3    0    0 -0.93927469728E+00  0.29403294593E+01 -0.92008374604E+00  0.32209204253E+01  0.00000000000E+00 0. -1.
</event>
<event>
 7    1  0.2740409E-010  0.4778727E+02  0.7816164E-02  0.1312668E+00
        -11   -1    0    0    0    0  0.00000000000E+00  0.00000000000E+00  0.45593999997E+02  0.45594000000E+02  0.51100000000E-03 0.  1.
         11   -1    0    0    0    0 -0.00000000000E+00 -0.00000000000E+00 -0.45593999997E+02  0.45594000000E+02  0.51100000000E-03 0. -1.
    9900012    2    1    2    0    0  0.20018218095E+02  0.18027642918E+02 -0.34027905038E+02  0.47787270903E+02  0.19999999354E+02 0.  0.
        -12    1    1    2    0    0 -0.20018218095E+02 -0.18027642918E+02  0.34027905038E+02  0.43400729097E+02  0.00000000000E+00 0.  1.
         11    1    3    3    0    0  0.12890544469E+02  0.11977605301E+02 -0.14456264634E+02  0.22773070783E+02  0.51100000000E-03 0. -1.
        -11    1    3    3    0    0  0.35245000647E+01  0.21596473003E+01 -0.19264172909E+02  0.19702653001E+02  0.51100000000E-03 0.  1.
        -12    1    3    3    0    0  0.36031735609E+01  0.38903903175E+01 -0.30746749512E+00  0.53115471186E+01  0.00000000000E+00 0.  1.
</event>
<event>
 7    1  0.2740409E-010  0.4778727E+02  0.7816164E-02  0.1312668E+00
        -11   -1    0    0    0    0  0.00000000000E+00  0.00000000000E+00  0.45593999997E+02  0.45594000000E+02  0.51100000000E-03 0.  1.
         11   -1    0    0    0    0 -0.00000000000E+00 -0.00000000000E+00 -0.45593999997E+02  0.45594000000E+02  0.51100000000E-03 0. -1.
    9900012    2    1    2    0    0 -0.75198551361E+01  0.61858291997E+00 -0.42739822392E+02  0.47787270926E+02  0.19999999458E+02 0.  0.
        -12    1    1    2    0    0  0.75198551361E+01 -0.61858291997E+00  0.42739822392E+02  0.43400729074E+02  0.00000000000E+00 0.  1.
         11    1    3    3    0    0 -0.13226528103E+00  0.28562092765E+00 -0.22928663033E+02  0.22930823408E+02  0.51100000000E-03 0. -1.
        -11    1    3    3    0    0 -0.43609809028E+01 -0.38024786714E+01 -0.16945467301E+01  0.60289706719E+01  0.51100000000E-03 0.  1.
         12    1    3    3    0    0 -0.30266089523E+01  0.41354406637E+01 -0.18116612629E+02  0.18827476846E+02  0.00000000000E+00 0. -1.
</event>
<event>
 7    1  0.2740409E-010  0.4778727E+02  0.7816164E-02  0.1312668E+00
        -11   -1    0    0    0    0  0.00000000000E+00  0.00000000000E+00  0.45593999997E+02  0.45594000000E+02  0.51100000000E-03 0. -1.
         11   -1    0    0    0    0 -0.00000000000E+00 -0.00000000000E+00 -0.45593999997E+02  0.45594000000E+02  0.51100000000E-03 0.  1.
    9900012    2    1    2    0    0 -0.84042105381E+01 -0.19218088764E+01  0.42535856922E+02  0.47787271570E+02  0.20000002397E+02 0.  0.
        -12    1    1    2    0    0  0.84042105381E+01  0.19218088764E+01 -0.42535856922E+02  0.43400728430E+02  0.00000000000E+00 0.  1.
         11    1    3    3    0    0 -0.52464443579E+01 -0.19695271131E+01  0.78396844340E+01  0.96366419326E+01  0.51100000000E-03 0. -1.
        -11    1    3    3    0    0 -0.16785580235E+01 -0.64348304386E+01  0.27747036833E+02  0.28532834648E+02  0.51100000000E-03 0.  1.
        -12    1    3    3    0    0 -0.14792081566E+01  0.64825486753E+01  0.69491356556E+01  0.96177949894E+01  0.00000000000E+00 0.  1.
</event>
<event>
 7    1  0.2740409E-010  0.4778726E+02  0.7816164E-02  0.1312668E+00
        -11   -1    0    0    0    0  0.00000000000E+00  0.00000000000E+00  0.45593999997E+02  0.45594000000E+02  0.51100000000E-03 0.  1.
         11   -1    0    0    0    0 -0.00000000000E+00 -0.00000000000E+00 -0.45593999997E+02  0.45594000000E+02  0.51100000000E-03 0. -1.
    9900012    2    1    2    0    0 -0.93975926630E+01  0.21047812546E+01 -0.42318781957E+02  0.47787260855E+02  0.19999953542E+02 0.  0.
        -12    1    1    2    0    0  0.93975926630E+01 -0.21047812546E+01  0.42318781957E+02  0.43400739145E+02  0.00000000000E+00 0.  1.
         11    1    3    3    0    0  0.12319906521E+01 -0.43987332125E+01 -0.16974359758E+02  0.17578269093E+02  0.51100000000E-03 0. -1.
        -11    1    3    3    0    0 -0.11492110509E+02  0.17999428916E+01 -0.18699720392E+02  0.22022441767E+02  0.51100000000E-03 0.  1.
         12    1    3    3    0    0  0.86252719361E+00  0.47035715755E+01 -0.66447018073E+01  0.81865499957E+01  0.00000000000E+00 0. -1.
</event>
<event>
 7    1  0.2740409E-010  0.4778726E+02  0.7816164E-02  0.1312668E+00
        -11   -1    0    0    0    0  0.00000000000E+00  0.00000000000E+00  0.45593999997E+02  0.45594000000E+02  0.51100000000E-03 0.  1.
         11   -1    0    0    0    0 -0.00000000000E+00 -0.00000000000E+00 -0.45593999997E+02  0.45594000000E+02  0.51100000000E-03 0. -1.
    9900012    2    1    2    0    0  0.35400985673E+02 -0.14461154311E+02 -0.20524841164E+02  0.47787264114E+02  0.19999968401E+02 0.  0.
        -12    1    1    2    0    0 -0.35400985673E+02  0.14461154311E+02  0.20524841164E+02  0.43400735886E+02  0.00000000000E+00 0.  1.
         11    1    3    3    0    0  0.15026803626E+02 -0.71611758982E+01 -0.70479016637E+00  0.16660852226E+02  0.51100000000E-03 0. -1.
        -11    1    3    3    0    0  0.29242638416E+01  0.62372028795E+00  0.67678181585E+00  0.30656777229E+01  0.51100000000E-03 0.  1.
         12    1    3    3    0    0  0.17449918206E+02 -0.79236987007E+01 -0.20496832814E+02  0.28060734165E+02  0.00000000000E+00 0. -1.
</event>
<event>
 7    1  0.2740409E-010  0.4778728E+02  0.7816164E-02  0.1312668E+00
        -11   -1    0    0    0    0  0.00000000000E+00  0.00000000000E+00  0.45593999997E+02  0.45594000000E+02  0.51100000000E-03 0. -1.
         11   -1    0    0    0    0 -0.00000000000E+00 -0.00000000000E+00 -0.45593999997E+02  0.45594000000E+02  0.51100000000E-03 0.  1.
    9900012    2    1    2    0    0 -0.49753458835E+01 -0.41978332557E+02  0.98330250165E+01  0.47787275905E+02  0.20000022163E+02 0.  0.
        -12    1    1    2    0    0  0.49753458835E+01  0.41978332557E+02 -0.98330250165E+01  0.43400724095E+02  0.00000000000E+00 0.  1.
         11    1    3    3    0    0 -0.38262422372E+01 -0.31521047303E+02  0.10265473344E+02  0.33370593282E+02  0.51100000000E-03 0. -1.
        -11    1    3    3    0    0  0.27459572742E+01 -0.72957020650E+01 -0.34907900025E+01  0.85412624989E+01  0.51100000000E-03 0.  1.
        -12    1    3    3    0    0 -0.38950609205E+01 -0.31615831892E+01  0.30583416754E+01  0.58754201245E+01  0.00000000000E+00 0.  1.
</event>
<event>
 7    1  0.2740409E-010  0.4778732E+02  0.7816164E-02  0.1312668E+00
        -11   -1    0    0    0    0  0.00000000000E+00  0.00000000000E+00  0.45593999997E+02  0.45594000000E+02  0.51100000000E-03 0. -1.
         11   -1    0    0    0    0 -0.00000000000E+00 -0.00000000000E+00 -0.45593999997E+02  0.45594000000E+02  0.51100000000E-03 0.  1.
    9900012    2    1    2    0    0  0.91188937731E+01 -0.38287468390E+02  0.18290280792E+02  0.47787322231E+02  0.20000233381E+02 0.  0.
        -12    1    1    2    0    0 -0.91188937731E+01  0.38287468390E+02 -0.18290280792E+02  0.43400677769E+02  0.00000000000E+00 0.  1.
         11    1    3    3    0    0  0.68009998944E+01 -0.18832766011E+02  0.12583773315E+01  0.20062656577E+02  0.51100000000E-03 0. -1.
        -11    1    3    3    0    0  0.37040863946E+01 -0.53206801489E+01  0.14527584027E+01  0.66438242379E+01  0.51100000000E-03 0.  1.
        -12    1    3    3    0    0 -0.13861925159E+01 -0.14134022230E+02  0.15579145058E+02  0.21080841416E+02  0.00000000000E+00 0.  1.
</event>
<event>
 7    1  0.2740409E-010  0.4778724E+02  0.7816164E-02  0.1312668E+00
        -11   -1    0    0    0    0  0.00000000000E+00  0.00000000000E+00  0.45593999997E+02  0.45594000000E+02  0.51100000000E-03 0. -1.
         11   -1    0    0    0    0 -0.00000000000E+00 -0.00000000000E+00 -0.45593999997E+02  0.45594000000E+02  0.51100000000E-03 0.  1.
    9900012    2    1    2    0    0 -0.22584105617E+02 -0.87528539953E+01  0.36013487126E+02  0.47787245000E+02  0.19999881252E+02 0.  0.
        -12    1    1    2    0    0  0.22584105617E+02  0.87528539953E+01 -0.36013487126E+02  0.43400755000E+02  0.00000000000E+00 0.  1.
         11    1    3    3    0    0 -0.16017205470E+01 -0.56069730199E+01  0.83437994226E+00  0.58906574595E+01  0.51100000000E-03 0. -1.
        -11    1    3    3    0    0 -0.14427285723E+01  0.20725748603E+01  0.41703208740E+01  0.48753060148E+01  0.51100000000E-03 0.  1.
         12    1    3    3    0    0 -0.19539656498E+02 -0.52184558357E+01  0.31008786310E+02  0.37021281525E+02  0.00000000000E+00 0. -1.
</event>
<event>
 7    1  0.2740409E-010  0.4778728E+02  0.7816164E-02  0.1312668E+00
        -11   -1    0    0    0    0  0.00000000000E+00  0.00000000000E+00  0.45593999997E+02  0.45594000000E+02  0.51100000000E-03 0.  1.
         11   -1    0    0    0    0 -0.00000000000E+00 -0.00000000000E+00 -0.45593999997E+02  0.45594000000E+02  0.51100000000E-03 0. -1.
    9900012    2    1    2    0    0 -0.64491079628E+00 -0.26388192786E+02 -0.34450982820E+02  0.47787275977E+02  0.20000022490E+02 0.  0.
        -12    1    1    2    0    0  0.64491079628E+00  0.26388192786E+02  0.34450982820E+02  0.43400724023E+02  0.00000000000E+00 0.  1.
         11    1    3    3    0    0 -0.23813343887E+01 -0.24843780267E+02 -0.35017311030E+02  0.43001119096E+02  0.51100000000E-03 0. -1.
        -11    1    3    3    0    0  0.27791229947E+01 -0.37345336116E+00  0.12568821258E+01  0.30729049728E+01  0.51100000000E-03 0.  1.
         12    1    3    3    0    0 -0.10426994023E+01 -0.11709591572E+01 -0.69055391578E+00  0.17132519085E+01  0.00000000000E+00 0. -1.
</event>
<event>
 7    1  0.2740409E-010  0.4778727E+02  0.7816164E-02  0.1312668E+00
        -11   -1    0    0    0    0  0.00000000000E+00  0.00000000000E+00  0.45593999997E+02  0.45594000000E+02  0.51100000000E-03 0.  1.
         11   -1    0    0    0    0 -0.00000000000E+00 -0.00000000000E+00 -0.45593999997E+02  0.45594000000E+02  0.51100000000E-03 0. -1.
    9900012    2    1    2    0    0 -0.76604889076E+01  0.41232486191E+02 -0.11172379751E+02  0.47787273312E+02  0.20000010337E+02 0.  0.
        -12    1    1    2    0    0  0.76604889076E+01 -0.41232486191E+02  0.11172379751E+02  0.43400726688E+02  0.00000000000E+00 0.  1.
         11    1    3    3    0    0 -0.31832015447E+01  0.25687009485E+02  0.24808586931E+01  0.26002113154E+02  0.51100000000E-03 0. -1.
        -11    1    3    3    0    0 -0.13067021584E+01  0.21908964126E+00 -0.10468605784E+01  0.16886053812E+01  0.51100000000E-03 0.  1.
         12    1    3    3    0    0 -0.31705852046E+01  0.15326387064E+02 -0.12606377866E+02  0.20096554777E+02  0.00000000000E+00 0. -1.
</event>
<event>
 7    1  0.2740409E-010  0.4778727E+02  0.7816164E-02  0.1312668E+00
        -11   -1    0    0    0    0  0.00000000000E+00  0.00000000000E+00  0.45593999997E+02  0.45594000000E+02  0.51100000000E-03 0.  1.
         11   -1    0    0    0    0 -0.00000000000E+00 -0.00000000000E+00 -0.45593999997E+02  0.45594000000E+02  0.51100000000E-03 0. -1.
    9900012    2    1    2    0    0 -0.38574430531E+02  0.12623141674E+02 -0.15371818089E+02  0.47787272035E+02  0.20000004517E+02 0.  0.
        -12    1    1    2    0    0  0.38574430531E+02 -0.12623141674E+02  0.15371818089E+02  0.43400727965E+02  0.00000000000E+00 0.  1.
         11    1    3    3    0    0 -0.15387253212E+02  0.75936658085E+01 -0.12620690935E+02  0.21300543696E+02  0.51100000000E-03 0. -1.
        -11    1    3    3    0    0 -0.10520318690E+02 -0.14928074187E+01 -0.55180959369E+01  0.11973093266E+02  0.51100000000E-03 0.  1.
         12    1    3    3    0    0 -0.12666858630E+02  0.65222832847E+01  0.27669687829E+01  0.14513635073E+02  0.00000000000E+00 0. -1.
</event>
<event>
 7    1  0.2740409E-010  0.4778727E+02  0.7816164E-02  0.1312668E+00
        -11   -1    0    0    0    0  0.00000000000E+00  0.00000000000E+00  0.45593999997E+02  0.45594000000E+02  0.51100000000E-03 0.  1.
         11   -1    0    0    0    0 -0.00000000000E+00 -0.00000000000E+00 -0.45593999997E+02  0.45594000000E+02  0.51100000000E-03 0. -1.
    9900012    2    1    2    0    0 -0.10181348186E+02  0.80324059836E+01 -0.41417916436E+02  0.47787271911E+02  0.20000003952E+02 0.  0.
        -12    1    1    2    0    0  0.10181348186E+02 -0.80324059836E+01  0.41417916436E+02  0.43400728089E+02  0.00000000000E+00 0.  1.
         11    1    3    3    0    0 -0.95866508078E+01 -0.24358128824E+01 -0.19948871620E+02  0.22266444199E+02  0.51100000000E-03 0. -1.
        -11    1    3    3    0    0 -0.34043870616E-01  0.73071591069E+01 -0.52766752483E+01  0.90132699469E+01  0.51100000000E-03 0.  1.
         12    1    3    3    0    0 -0.56065350728E+00  0.31610597590E+01 -0.16192369567E+02  0.16507557765E+02  0.00000000000E+00 0. -1.
</event>
<event>
 7    1  0.2740409E-010  0.4778727E+02  0.7816164E-02  0.1312668E+00
        -11   -1    0    0    0    0  0.00000000000E+00  0.00000000000E+00  0.45593999997E+02  0.45594000000E+02  0.51100000000E-03 0. -1.
         11   -1    0    0    0    0 -0.00000000000E+00 -0.00000000000E+00 -0.45593999997E+02  0.45594000000E+02  0.51100000000E-03 0.  1.
    9900012    2    1    2    0    0 -0.17342161861E+02 -0.38413051670E+02 -0.10359069698E+02  0.47787269112E+02  0.19999991188E+02 0.  0.
        -12    1    1    2    0    0  0.17342161861E+02  0.38413051670E+02  0.10359069698E+02  0.43400730888E+02  0.00000000000E+00 0.  1.
         11    1    3    3    0    0 -0.40271553066E+01 -0.11378567575E+02  0.55531613844E+01  0.13286360734E+02  0.51100000000E-03 0.  1.
        -11    1    3    3    0    0 -0.10769916110E+02 -0.16700642978E+02 -0.11659014953E+02  0.23039861085E+02  0.51100000000E-03 0. -1.
        -12    1    3    3    0    0 -0.25450904447E+01 -0.10333841117E+02 -0.42532161300E+01  0.11461047293E+02  0.00000000000E+00 0.  1.
</event>
<event>
 7    1  0.2740409E-010  0.4778727E+02  0.7816164E-02  0.1312668E+00
        -11   -1    0    0    0    0  0.00000000000E+00  0.00000000000E+00  0.45593999997E+02  0.45594000000E+02  0.51100000000E-03 0.  1.
         11   -1    0    0    0    0 -0.00000000000E+00 -0.00000000000E+00 -0.45593999997E+02  0.45594000000E+02  0.51100000000E-03 0. -1.
    9900012    2    1    2    0    0  0.37907274187E+02 -0.78628906194E+01 -0.19617264520E+02  0.47787267835E+02  0.19999985368E+02 0.  0.
        -12    1    1    2    0    0 -0.37907274187E+02  0.78628906194E+01  0.19617264520E+02  0.43400732165E+02  0.00000000000E+00 0.  1.
         11    1    3    3    0    0  0.16293714507E+02 -0.38749719685E+01 -0.63836057875E+01  0.17923475202E+02  0.51100000000E-03 0. -1.
        -11    1    3    3    0    0  0.22894809624E+01 -0.92087840446E+00 -0.96649783656E+01  0.99750462246E+01  0.51100000000E-03 0.  1.
        -12    1    3    3    0    0  0.19324078718E+02 -0.30670402464E+01 -0.35686803666E+01  0.19888746409E+02  0.00000000000E+00 0.  1.
</event>
<event>
 7    1  0.2740409E-010  0.4778726E+02  0.7816164E-02  0.1312668E+00
        -11   -1    0    0    0    0  0.00000000000E+00  0.00000000000E+00  0.45593999997E+02  0.45594000000E+02  0.51100000000E-03 0.  1.
         11   -1    0    0    0    0 -0.00000000000E+00 -0.00000000000E+00 -0.45593999997E+02  0.45594000000E+02  0.51100000000E-03 0. -1.
    9900012    2    1    2    0    0  0.14557837530E+02 -0.86614913705E+01 -0.39958376015E+02  0.47787264061E+02  0.19999968160E+02 0.  0.
        -12    1    1    2    0    0 -0.14557837530E+02  0.86614913705E+01  0.39958376015E+02  0.43400735939E+02  0.00000000000E+00 0.  1.
         11    1    3    3    0    0  0.10554033481E+02  0.41506859536E+01 -0.20178202316E+02  0.23146828413E+02  0.51100000000E-03 0. -1.
        -11    1    3    3    0    0  0.12419198500E+01 -0.66717143127E+01 -0.14748842904E+02  0.16235224176E+02  0.51100000000E-03 0.  1.
        -12    1    3    3    0    0  0.27618841985E+01 -0.61404630114E+01 -0.50313307949E+01  0.84052114719E+01  0.00000000000E+00 0.  1.
</event>
<event>
 7    1  0.2740409E-010  0.4778725E+02  0.7816164E-02  0.1312668E+00
        -11   -1    0    0    0    0  0.00000000000E+00  0.00000000000E+00  0.45593999997E+02  0.45594000000E+02  0.51100000000E-03 0.  1.
         11   -1    0    0    0    0 -0.00000000000E+00 -0.00000000000E+00 -0.45593999997E+02  0.45594000000E+02  0.51100000000E-03 0. -1.
    9900012    2    1    2    0    0 -0.25214444697E+02 -0.11938545867E+02 -0.33246473675E+02  0.47787249884E+02  0.19999903521E+02 0.  0.
        -12    1    1    2    0    0  0.25214444697E+02  0.11938545867E+02  0.33246473675E+02  0.43400750116E+02  0.00000000000E+00 0.  1.
         11    1    3    3    0    0 -0.12359338447E+02 -0.15534443574E+02 -0.22281007567E+02  0.29841506035E+02  0.51100000000E-03 0. -1.
        -11    1    3    3    0    0 -0.52485999012E+01  0.17950414254E+01 -0.16543990191E+01  0.57885240794E+01  0.51100000000E-03 0.  1.
         12    1    3    3    0    0 -0.76065063489E+01  0.18008562818E+01 -0.93110670890E+01  0.12157219769E+02  0.00000000000E+00 0. -1.
</event>
<event>
 7    1  0.2740409E-010  0.4778727E+02  0.7816164E-02  0.1312668E+00
        -11   -1    0    0    0    0  0.00000000000E+00  0.00000000000E+00  0.45593999997E+02  0.45594000000E+02  0.51100000000E-03 0.  1.
         11   -1    0    0    0    0 -0.00000000000E+00 -0.00000000000E+00 -0.45593999997E+02  0.45594000000E+02  0.51100000000E-03 0. -1.
    9900012    2    1    2    0    0  0.27343768878E+01 -0.35439826408E+02 -0.24903121882E+02  0.47787267376E+02  0.19999983274E+02 0.  0.
        -12    1    1    2    0    0 -0.27343768878E+01  0.35439826408E+02  0.24903121882E+02  0.43400732624E+02  0.00000000000E+00 0.  1.
         11    1    3    3    0    0  0.61701267158E+01 -0.12740683442E+02 -0.12549199386E+02  0.18917660631E+02  0.51100000000E-03 0. -1.
        -11    1    3    3    0    0 -0.77981625818E+01 -0.14932763897E+02 -0.10240455366E+02  0.19714606352E+02  0.51100000000E-03 0.  1.
        -12    1    3    3    0    0  0.43624127537E+01 -0.77663790689E+01 -0.21134671305E+01  0.91550003925E+01  0.00000000000E+00 0.  1.
</event>
<event>
 7    1  0.2740409E-010  0.4778727E+02  0.7816164E-02  0.1312668E+00
        -11   -1    0    0    0    0  0.00000000000E+00  0.00000000000E+00  0.45593999997E+02  0.45594000000E+02  0.51100000000E-03 0. -1.
         11   -1    0    0    0    0 -0.00000000000E+00 -0.00000000000E+00 -0.45593999997E+02  0.45594000000E+02  0.51100000000E-03 0.  1.
    9900012    2    1    2    0    0  0.26590027692E+02 -0.34031859555E+02 -0.42925527419E+01  0.47787273664E+02  0.20000011942E+02 0.  0.
        -12    1    1    2    0    0 -0.26590027692E+02  0.34031859555E+02  0.42925527419E+01  0.43400726336E+02  0.00000000000E+00 0.  1.
         11    1    3    3    0    0  0.11601851883E+02 -0.18044069566E+02  0.29473928541E+00  0.21454097164E+02  0.51100000000E-03 0. -1.
        -11    1    3    3    0    0 -0.20463221302E+01 -0.37515054990E+01 -0.31525518464E+01  0.53103494400E+01  0.51100000000E-03 0.  1.
        -12    1    3    3    0    0  0.17034497940E+02 -0.12236284490E+02 -0.14347401809E+01  0.21022827059E+02  0.00000000000E+00 0.  1.
</event>
<event>
 7    1  0.2740409E-010  0.4778730E+02  0.7816164E-02  0.1312668E+00
        -11   -1    0    0    0    0  0.00000000000E+00  0.00000000000E+00  0.45593999997E+02  0.45594000000E+02  0.51100000000E-03 0.  1.
         11   -1    0    0    0    0 -0.00000000000E+00 -0.00000000000E+00 -0.45593999997E+02  0.45594000000E+02  0.51100000000E-03 0. -1.
    9900012    2    1    2    0    0  0.34606787259E+02  0.12693496178E+02 -0.22909952309E+02  0.47787303180E+02  0.20000146520E+02 0.  0.
        -12    1    1    2    0    0 -0.34606787259E+02 -0.12693496178E+02  0.22909952309E+02  0.43400696820E+02  0.00000000000E+00 0.  1.
         11    1    3    3    0    0  0.98332329742E+01  0.72697159450E+01 -0.92607010593E+01  0.15339551004E+02  0.51100000000E-03 0. -1.
        -11    1    3    3    0    0  0.16264449174E+02 -0.39879759612E+01 -0.75344063547E+01  0.18363102640E+02  0.51100000000E-03 0.  1.
        -12    1    3    3    0    0  0.85091051111E+01  0.94117561944E+01 -0.61148448947E+01  0.14084649536E+02  0.00000000000E+00 0.  1.
</event>
<event>
 7    1  0.2740409E-010  0.4778728E+02  0.7816164E-02  0.1312668E+00
        -11   -1    0    0    0    0  0.00000000000E+00  0.00000000000E+00  0.45593999997E+02  0.45594000000E+02  0.51100000000E-03 0. -1.
         11   -1    0    0    0    0 -0.00000000000E+00 -0.00000000000E+00 -0.45593999997E+02  0.45594000000E+02  0.51100000000E-03 0.  1.
    9900012    2    1    2    0    0 -0.22587091905E+02 -0.34713596119E+02 -0.12977372574E+02  0.47787277941E+02  0.20000031446E+02 0.  0.
        -12    1    1    2    0    0  0.22587091905E+02  0.34713596119E+02  0.12977372574E+02  0.43400722059E+02  0.00000000000E+00 0.  1.
         11    1    3    3    0    0 -0.21000703655E+02 -0.19325782706E+02 -0.63132641161E+01  0.29229655066E+02  0.51100000000E-03 0. -1.
        -11    1    3    3    0    0  0.32594076879E+00 -0.71597583313E+01  0.89384592793E+00  0.72226960030E+01  0.51100000000E-03 0.  1.
         12    1    3    3    0    0 -0.19123290195E+01 -0.82280550817E+01 -0.75579543859E+01  0.11334926872E+02  0.00000000000E+00 0. -1.
</event>
<event>
 7    1  0.2740409E-010  0.4778726E+02  0.7816164E-02  0.1312668E+00
        -11   -1    0    0    0    0  0.00000000000E+00  0.00000000000E+00  0.45593999997E+02  0.45594000000E+02  0.51100000000E-03 0. -1.
         11   -1    0    0    0    0 -0.00000000000E+00 -0.00000000000E+00 -0.45593999997E+02  0.45594000000E+02  0.51100000000E-03 0.  1.
    9900012    2    1    2    0    0  0.35941260617E+02  0.11005046911E+01  0.24303067610E+02  0.47787257834E+02  0.19999939769E+02 0.  0.
        -12    1    1    2    0    0 -0.35941260617E+02 -0.11005046911E+01 -0.24303067610E+02  0.43400742166E+02  0.00000000000E+00 0.  1.
         11    1    3    3    0    0  0.23211897787E+02 -0.54527393138E+01  0.13399400558E+02  0.27350840946E+02  0.51100000000E-03 0. -1.
        -11    1    3    3    0    0  0.78382209388E+01  0.18331808314E+01  0.11009399176E+02  0.13638369768E+02  0.51100000000E-03 0.  1.
         12    1    3    3    0    0  0.48911418913E+01  0.47200631735E+01 -0.10573212430E+00  0.67980471200E+01  0.00000000000E+00 0. -1.
</event>
<event>
 7    1  0.2740409E-010  0.4778727E+02  0.7816164E-02  0.1312668E+00
        -11   -1    0    0    0    0  0.00000000000E+00  0.00000000000E+00  0.45593999997E+02  0.45594000000E+02  0.51100000000E-03 0.  1.
         11   -1    0    0    0    0 -0.00000000000E+00 -0.00000000000E+00 -0.45593999997E+02  0.45594000000E+02  0.51100000000E-03 0. -1.
    9900012    2    1    2    0    0  0.39214837643E+02 -0.18270128566E+02 -0.34673076796E+01  0.47787270609E+02  0.19999998013E+02 0.  0.
        -12    1    1    2    0    0 -0.39214837643E+02  0.18270128566E+02  0.34673076796E+01  0.43400729391E+02  0.00000000000E+00 0.  1.
         11    1    3    3    0    0  0.80090075149E+01 -0.10961965689E+02  0.38510715872E+01  0.14111684725E+02  0.51100000000E-03 0. -1.
        -11    1    3    3    0    0  0.15632400039E+02 -0.10345109378E+01 -0.87156242263E+00  0.15690817862E+02  0.51100000000E-03 0.  1.
         12    1    3    3    0    0  0.15573430089E+02 -0.62736519392E+01 -0.64468168442E+01  0.17984768022E+02  0.00000000000E+00 0. -1.
</event>
<event>
 7    1  0.2740409E-010  0.4778727E+02  0.7816164E-02  0.1312668E+00
        -11   -1    0    0    0    0  0.00000000000E+00  0.00000000000E+00  0.45593999997E+02  0.45594000000E+02  0.51100000000E-03 0.  1.
         11   -1    0    0    0    0 -0.00000000000E+00 -0.00000000000E+00 -0.45593999997E+02  0.45594000000E+02  0.51100000000E-03 0. -1.
    9900012    2    1    2    0    0 -0.40248842896E+02  0.13890101253E+02 -0.84094553445E+01  0.47787271821E+02  0.20000003540E+02 0.  0.
        -12    1    1    2    0    0  0.40248842896E+02 -0.13890101253E+02  0.84094553445E+01  0.43400728179E+02  0.00000000000E+00 0.  1.
         11    1    3    3    0    0 -0.17993522962E+02  0.12235327849E+02  0.71070011295E+00  0.21770971752E+02  0.51100000000E-03 0. -1.
        -11    1    3    3    0    0 -0.88916726605E+00  0.22939121828E+01 -0.27968739515E+01  0.37249370050E+01  0.51100000000E-03 0.  1.
         12    1    3    3    0    0 -0.21366152668E+02 -0.63913877824E+00 -0.63232815060E+01  0.22291363063E+02  0.00000000000E+00 0. -1.
</event>
<event>
 7    1  0.2740409E-010  0.4778727E+02  0.7816164E-02  0.1312668E+00
        -11   -1    0    0    0    0  0.00000000000E+00  0.00000000000E+00  0.45593999997E+02  0.45594000000E+02  0.51100000000E-03 0. -1.
         11   -1    0    0    0    0 -0.00000000000E+00 -0.00000000000E+00 -0.45593999997E+02  0.45594000000E+02  0.51100000000E-03 0.  1.
    9900012    2    1    2    0    0  0.31465659039E+01 -0.43243653555E+02 -0.19258911887E+01  0.47787268362E+02  0.19999987771E+02 0.  0.
        -12    1    1    2    0    0 -0.31465659039E+01  0.43243653555E+02  0.19258911887E+01  0.43400731638E+02  0.00000000000E+00 0.  1.
         11    1    3    3    0    0  0.79777880687E+01 -0.26859283403E+02  0.49209543326E+01  0.28447882157E+02  0.51100000000E-03 0. -1.
        -11    1    3    3    0    0 -0.22293905787E+01 -0.49815472025E+01 -0.51814533953E+01  0.75255202101E+01  0.51100000000E-03 0.  1.
         12    1    3    3    0    0 -0.26018315861E+01 -0.11402822950E+02 -0.16653921260E+01  0.11813865995E+02  0.00000000000E+00 0. -1.
</event>
<event>
 7    1  0.2740409E-010  0.4778727E+02  0.7816164E-02  0.1312668E+00
        -11   -1    0    0    0    0  0.00000000000E+00  0.00000000000E+00  0.45593999997E+02  0.45594000000E+02  0.51100000000E-03 0.  1.
         11   -1    0    0    0    0 -0.00000000000E+00 -0.00000000000E+00 -0.45593999997E+02  0.45594000000E+02  0.51100000000E-03 0. -1.
    9900012    2    1    2    0    0  0.41571832690E+02 -0.44585007347E+00  0.12458207363E+02  0.47787274358E+02  0.20000015109E+02 0.  0.
        -12    1    1    2    0    0 -0.41571832690E+02  0.44585007347E+00 -0.12458207363E+02  0.43400725642E+02  0.00000000000E+00 0.  1.
         11    1    3    3    0    0  0.66948351751E+01 -0.21224248294E+01  0.24872932321E+01  0.74506464862E+01  0.51100000000E-03 0. -1.
        -11    1    3    3    0    0  0.22780814012E+02 -0.45214814913E+01 -0.41845017553E+00  0.23228955696E+02  0.51100000000E-03 0.  1.
        -12    1    3    3    0    0  0.12096183503E+02  0.61980562472E+01  0.10389364307E+02  0.17107672176E+02  0.00000000000E+00 0.  1.
</event>
<event>
 7    1  0.2740409E-010  0.4778727E+02  0.7816164E-02  0.1312668E+00
        -11   -1    0    0    0    0  0.00000000000E+00  0.00000000000E+00  0.45593999997E+02  0.45594000000E+02  0.51100000000E-03 0.  1.
         11   -1    0    0    0    0 -0.00000000000E+00 -0.00000000000E+00 -0.45593999997E+02  0.45594000000E+02  0.51100000000E-03 0. -1.
    9900012    2    1    2    0    0  0.25008075634E+02  0.35315448426E+02 -0.33224636054E+01  0.47787268337E+02  0.19999987656E+02 0.  0.
        -12    1    1    2    0    0 -0.25008075634E+02 -0.35315448426E+02  0.33224636054E+01  0.43400731663E+02  0.00000000000E+00 0.  1.
         11    1    3    3    0    0  0.23062837833E+01  0.91858537131E+01 -0.60353733152E+01  0.11230520230E+02  0.51100000000E-03 0. -1.
        -11    1    3    3    0    0  0.22067326082E+02  0.23988327752E+02  0.54255600293E+01  0.33043054500E+02  0.51100000000E-03 0.  1.
        -12    1    3    3    0    0  0.63446576860E+00  0.21412669609E+01 -0.27126503195E+01  0.35136936072E+01  0.00000000000E+00 0.  1.
</event>
<event>
 7    1  0.2740409E-010  0.4778727E+02  0.7816164E-02  0.1312668E+00
        -11   -1    0    0    0    0  0.00000000000E+00  0.00000000000E+00  0.45593999997E+02  0.45594000000E+02  0.51100000000E-03 0. -1.
         11   -1    0    0    0    0 -0.00000000000E+00 -0.00000000000E+00 -0.45593999997E+02  0.45594000000E+02  0.51100000000E-03 0.  1.
    9900012    2    1    2    0    0  0.47506555743E+01  0.41012603117E+02  0.13379874305E+02  0.47787269831E+02  0.19999994467E+02 0.  0.
        -12    1    1    2    0    0 -0.47506555743E+01 -0.41012603117E+02 -0.13379874305E+02  0.43400730169E+02  0.00000000000E+00 0.  1.
         11    1    3    3    0    0  0.32564892479E+01  0.13216156542E+02  0.11053406179E+02  0.17534232358E+02  0.51100000000E-03 0. -1.
        -11    1    3    3    0    0  0.57319004277E+01  0.19568254750E+02 -0.10079330540E+01  0.20415366902E+02  0.51100000000E-03 0.  1.
        -12    1    3    3    0    0 -0.42377341013E+01  0.82281918253E+01  0.33344011801E+01  0.98376705707E+01  0.00000000000E+00 0.  1.
</event>
<event>
 7    1  0.2740409E-010  0.4778728E+02  0.7816164E-02  0.1312668E+00
        -11   -1    0    0    0    0  0.00000000000E+00  0.00000000000E+00  0.45593999997E+02  0.45594000000E+02  0.51100000000E-03 0.  1.
         11   -1    0    0    0    0 -0.00000000000E+00 -0.00000000000E+00 -0.45593999997E+02  0.45594000000E+02  0.51100000000E-03 0. -1.
    9900012    2    1    2    0    0  0.36800556353E+02  0.21699223163E+02  0.76475580647E+01  0.47787281365E+02  0.20000047054E+02 0.  0.
        -12    1    1    2    0    0 -0.36800556353E+02 -0.21699223163E+02 -0.76475580647E+01  0.43400718635E+02  0.00000000000E+00 0.  1.
         11    1    3    3    0    0  0.69295708591E+01  0.14411925079E+02  0.22133172669E+01  0.16143770017E+02  0.51100000000E-03 0. -1.
        -11    1    3    3    0    0  0.14535287105E+00 -0.61222788160E-01  0.62876409755E+00  0.64824396518E+00  0.51100000000E-03 0.  1.
         12    1    3    3    0    0  0.29725632622E+02  0.73485208720E+01  0.48054767003E+01  0.30995267383E+02  0.00000000000E+00 0. -1.
</event>
<event>
 7    1  0.2740409E-010  0.4778732E+02  0.7816164E-02  0.1312668E+00
        -11   -1    0    0    0    0  0.00000000000E+00  0.00000000000E+00  0.45593999997E+02  0.45594000000E+02  0.51100000000E-03 0.  1.
         11   -1    0    0    0    0 -0.00000000000E+00 -0.00000000000E+00 -0.45593999997E+02  0.45594000000E+02  0.51100000000E-03 0. -1.
    9900012    2    1    2    0    0 -0.10434976692E+02  0.25190323579E+02 -0.33766523293E+02  0.47787317564E+02  0.20000212102E+02 0.  0.
        -12    1    1    2    0    0  0.10434976692E+02 -0.25190323579E+02  0.33766523293E+02  0.43400682436E+02  0.00000000000E+00 0.  1.
         11    1    3    3    0    0 -0.27944624928E+01  0.10656324764E+02 -0.25030658324E+01  0.11297416383E+02  0.51100000000E-03 0. -1.
        -11    1    3    3    0    0 -0.34761454358E+00 -0.13202314683E+01 -0.21548797723E+01  0.25509516058E+01  0.51100000000E-03 0.  1.
         12    1    3    3    0    0 -0.72928996555E+01  0.15854230283E+02 -0.29108577689E+02  0.33938949576E+02  0.00000000000E+00 0. -1.
</event>
<event>
 7    1  0.2740409E-010  0.4778726E+02  0.7816164E-02  0.1312668E+00
        -11   -1    0    0    0    0  0.00000000000E+00  0.00000000000E+00  0.45593999997E+02  0.45594000000E+02  0.51100000000E-03 0.  1.
         11   -1    0    0    0    0 -0.00000000000E+00 -0.00000000000E+00 -0.45593999997E+02  0.45594000000E+02  0.51100000000E-03 0. -1.
    9900012    2    1    2    0    0  0.64324205376E+01 -0.30678296917E+02 -0.30018166366E+02  0.47787259825E+02  0.19999948848E+02 0.  0.
        -12    1    1    2    0    0 -0.64324205376E+01  0.30678296917E+02  0.30018166366E+02  0.43400740175E+02  0.00000000000E+00 0.  1.
         11    1    3    3    0    0  0.92227054041E+01 -0.31733291013E+02 -0.26752487834E+02  0.42517709946E+02  0.51100000000E-03 0. -1.
        -11    1    3    3    0    0 -0.18208055069E+01  0.83661612571E+00 -0.36821227306E+01  0.41920504887E+01  0.51100000000E-03 0.  1.
         12    1    3    3    0    0 -0.96947935965E+00  0.21837796946E+00  0.41644419884E+00  0.10774993908E+01  0.00000000000E+00 0. -1.
</event>
<event>
 7    1  0.2740409E-010  0.4778726E+02  0.7816164E-02  0.1312668E+00
        -11   -1    0    0    0    0  0.00000000000E+00  0.00000000000E+00  0.45593999997E+02  0.45594000000E+02  0.51100000000E-03 0.  1.
         11   -1    0    0    0    0 -0.00000000000E+00 -0.00000000000E+00 -0.45593999997E+02  0.45594000000E+02  0.51100000000E-03 0. -1.
    9900012    2    1    2    0    0 -0.16345913069E+02  0.18130568485E+02 -0.35884780512E+02  0.47787264291E+02  0.19999969209E+02 0.  0.
        -12    1    1    2    0    0  0.16345913069E+02 -0.18130568485E+02  0.35884780512E+02  0.43400735709E+02  0.00000000000E+00 0.  1.
         11    1    3    3    0    0 -0.26761911683E+00  0.14314875827E+01 -0.56405223973E-02  0.14562996834E+01  0.51100000000E-03 0. -1.
        -11    1    3    3    0    0 -0.55209694169E+01 -0.11098124572E+01 -0.92656819704E+00  0.57071285142E+01  0.51100000000E-03 0.  1.
        -12    1    3    3    0    0 -0.10557324536E+02  0.17808893360E+02 -0.34952571793E+02  0.40623836094E+02  0.00000000000E+00 0.  1.
</event>
<event>
 7    1  0.2740409E-010  0.4778727E+02  0.7816164E-02  0.1312668E+00
        -11   -1    0    0    0    0  0.00000000000E+00  0.00000000000E+00  0.45593999997E+02  0.45594000000E+02  0.51100000000E-03 0.  1.
         11   -1    0    0    0    0 -0.00000000000E+00 -0.00000000000E+00 -0.45593999997E+02  0.45594000000E+02  0.51100000000E-03 0. -1.
    9900012    2    1    2    0    0 -0.20182537933E+02  0.27320743440E+02 -0.27016020101E+02  0.47787271877E+02  0.20000003797E+02 0.  0.
        -12    1    1    2    0    0  0.20182537933E+02 -0.27320743440E+02  0.27016020101E+02  0.43400728123E+02  0.00000000000E+00 0.  1.
         11    1    3    3    0    0  0.74252351798E+00  0.53509595593E+01 -0.48528846574E+01  0.72618592068E+01  0.51100000000E-03 0. -1.
        -11    1    3    3    0    0 -0.15059765147E+02  0.60761816035E+01 -0.66289757016E+01  0.17540234556E+02  0.51100000000E-03 0.  1.
        -12    1    3    3    0    0 -0.58652963036E+01  0.15893602277E+02 -0.15534159742E+02  0.22985178114E+02  0.00000000000E+00 0.  1.
</event>
<event>
 7    1  0.2740409E-010  0.4778727E+02  0.7816164E-02  0.1312668E+00
        -11   -1    0    0    0    0  0.00000000000E+00  0.00000000000E+00  0.45593999997E+02  0.45594000000E+02  0.51100000000E-03 0.  1.
         11   -1    0    0    0    0 -0.00000000000E+00 -0.00000000000E+00 -0.45593999997E+02  0.45594000000E+02  0.51100000000E-03 0. -1.
    9900012    2    1    2    0    0  0.31437735111E+01  0.39481453962E+02 -0.17746971685E+02  0.47787268176E+02  0.19999986923E+02 0.  0.
        -12    1    1    2    0    0 -0.31437735111E+01 -0.39481453962E+02  0.17746971685E+02  0.43400731824E+02  0.00000000000E+00 0.  1.
         11    1    3    3    0    0  0.41082164225E+01  0.17747646966E+02 -0.46070525326E+01  0.18790458970E+02  0.51100000000E-03 0. -1.
        -11    1    3    3    0    0 -0.48989545471E+01  0.74392912691E+01 -0.10780151010E+02  0.13984079029E+02  0.51100000000E-03 0.  1.
        -12    1    3    3    0    0  0.39345116357E+01  0.14294515728E+02 -0.23597681424E+01  0.15012730178E+02  0.00000000000E+00 0.  1.
</event>
<event>
 7    1  0.2740409E-010  0.4778727E+02  0.7816164E-02  0.1312668E+00
        -11   -1    0    0    0    0  0.00000000000E+00  0.00000000000E+00  0.45593999997E+02  0.45594000000E+02  0.51100000000E-03 0.  1.
         11   -1    0    0    0    0 -0.00000000000E+00 -0.00000000000E+00 -0.45593999997E+02  0.45594000000E+02  0.51100000000E-03 0. -1.
    9900012    2    1    2    0    0 -0.86440935013E+01  0.31003561241E+02 -0.29114984789E+02  0.47787268424E+02  0.19999988053E+02 0.  0.
        -12    1    1    2    0    0  0.86440935013E+01 -0.31003561241E+02  0.29114984789E+02  0.43400731576E+02  0.00000000000E+00 0.  1.
         11    1    3    3    0    0 -0.13240367117E+01  0.17855372272E+02 -0.23385679829E+02  0.29452629993E+02  0.51100000000E-03 0. -1.
        -11    1    3    3    0    0 -0.73269286850E+01  0.42735012859E+01 -0.35582309385E+01  0.91982446624E+01  0.51100000000E-03 0.  1.
         12    1    3    3    0    0  0.68718953698E-02  0.88746876829E+01 -0.21710740212E+01  0.91363937687E+01  0.00000000000E+00 0. -1.
</event>
<event>
 7    1  0.2740409E-010  0.4778728E+02  0.7816164E-02  0.1312668E+00
        -11   -1    0    0    0    0  0.00000000000E+00  0.00000000000E+00  0.45593999997E+02  0.45594000000E+02  0.51100000000E-03 0.  1.
         11   -1    0    0    0    0 -0.00000000000E+00 -0.00000000000E+00 -0.45593999997E+02  0.45594000000E+02  0.51100000000E-03 0. -1.
    9900012    2    1    2    0    0 -0.21761063686E+02  0.37069389245E+02 -0.59949311806E+01  0.47787277522E+02  0.20000029535E+02 0.  0.
        -12    1    1    2    0    0  0.21761063686E+02 -0.37069389245E+02  0.59949311806E+01  0.43400722478E+02  0.00000000000E+00 0.  1.
         11    1    3    3    0    0 -0.31040089815E+01  0.21199518331E+02 -0.68250770322E+01  0.22486354217E+02  0.51100000000E-03 0. -1.
        -11    1    3    3    0    0 -0.53372767312E+01  0.18746940696E+01  0.18548543004E+01  0.59532751907E+01  0.51100000000E-03 0.  1.
         12    1    3    3    0    0 -0.13319777974E+02  0.13995176844E+02 -0.10247084489E+01  0.19347648115E+02  0.00000000000E+00 0. -1.
</event>
<event>
 7    1  0.2740409E-010  0.4778727E+02  0.7816164E-02  0.1312668E+00
        -11   -1    0    0    0    0  0.00000000000E+00  0.00000000000E+00  0.45593999997E+02  0.45594000000E+02  0.51100000000E-03 0.  1.
         11   -1    0    0    0    0 -0.00000000000E+00 -0.00000000000E+00 -0.45593999997E+02  0.45594000000E+02  0.51100000000E-03 0. -1.
    9900012    2    1    2    0    0  0.86201416128E+01 -0.24059249829E+02 -0.35078044412E+02  0.47787267938E+02  0.19999985837E+02 0.  0.
        -12    1    1    2    0    0 -0.86201416128E+01  0.24059249829E+02  0.35078044412E+02  0.43400732062E+02  0.00000000000E+00 0.  1.
         11    1    3    3    0    0  0.61175220509E+01 -0.12400157784E+02 -0.14426860423E+02  0.19983050093E+02  0.51100000000E-03 0. -1.
        -11    1    3    3    0    0  0.83054082748E+00  0.32190107841E+01 -0.19715626609E+01  0.38650857793E+01  0.51100000000E-03 0.  1.
        -12    1    3    3    0    0  0.16720787345E+01 -0.14878102829E+02 -0.18679621328E+02  0.23939132065E+02  0.00000000000E+00 0.  1.
</event>
<event>
 7    1  0.2740409E-010  0.4778727E+02  0.7816164E-02  0.1312668E+00
        -11   -1    0    0    0    0  0.00000000000E+00  0.00000000000E+00  0.45593999997E+02  0.45594000000E+02  0.51100000000E-03 0.  1.
         11   -1    0    0    0    0 -0.00000000000E+00 -0.00000000000E+00 -0.45593999997E+02  0.45594000000E+02  0.51100000000E-03 0. -1.
    9900012    2    1    2    0    0 -0.59732860322E+01 -0.28457411807E+02 -0.32219855303E+02  0.47787268341E+02  0.19999987676E+02 0.  0.
        -12    1    1    2    0    0  0.59732860322E+01  0.28457411807E+02  0.32219855303E+02  0.43400731659E+02  0.00000000000E+00 0.  1.
         11    1    3    3    0    0 -0.59962480661E+01  0.44365915529E+00 -0.77683403742E+01  0.98233872339E+01  0.51100000000E-03 0. -1.
        -11    1    3    3    0    0  0.13998153824E+01 -0.17711086745E+02 -0.14873358814E+02  0.23170215353E+02  0.51100000000E-03 0.  1.
         12    1    3    3    0    0 -0.13768533485E+01 -0.11189984217E+02 -0.95781561142E+01  0.14793665755E+02  0.00000000000E+00 0. -1.
</event>
<event>
 7    1  0.2740409E-010  0.4778731E+02  0.7816164E-02  0.1312668E+00
        -11   -1    0    0    0    0  0.00000000000E+00  0.00000000000E+00  0.45593999997E+02  0.45594000000E+02  0.51100000000E-03 0. -1.
         11   -1    0    0    0    0 -0.00000000000E+00 -0.00000000000E+00 -0.45593999997E+02  0.45594000000E+02  0.51100000000E-03 0.  1.
    9900012    2    1    2    0    0 -0.35192242278E+01 -0.33318350376E+02  0.27588454764E+02  0.47787305913E+02  0.20000158981E+02 0.  0.
        -12    1    1    2    0    0  0.35192242278E+01  0.33318350376E+02 -0.27588454764E+02  0.43400694087E+02  0.00000000000E+00 0.  1.
         11    1    3    3    0    0 -0.61611651515E+01 -0.13846165571E+02  0.16311692969E+02  0.22265389842E+02  0.51100000000E-03 0. -1.
        -11    1    3    3    0    0  0.54596093198E+01 -0.30914106594E+01  0.30668102708E+01  0.69835148233E+01  0.51100000000E-03 0.  1.
         12    1    3    3    0    0 -0.28176683962E+01 -0.16380774146E+02  0.82099515240E+01  0.18538401248E+02  0.00000000000E+00 0. -1.
</event>
<event>
 7    1  0.2740409E-010  0.4778725E+02  0.7816164E-02  0.1312668E+00
        -11   -1    0    0    0    0  0.00000000000E+00  0.00000000000E+00  0.45593999997E+02  0.45594000000E+02  0.51100000000E-03 0. -1.
         11   -1    0    0    0    0 -0.00000000000E+00 -0.00000000000E+00 -0.45593999997E+02  0.45594000000E+02  0.51100000000E-03 0.  1.
    9900012    2    1    2    0    0  0.13123953956E+02  0.38485205334E+02  0.15174832014E+02  0.47787254342E+02  0.19999923848E+02 0.  0.
        -12    1    1    2    0    0 -0.13123953956E+02 -0.38485205334E+02 -0.15174832014E+02  0.43400745658E+02  0.00000000000E+00 0.  1.
         11    1    3    3    0    0  0.10200004052E+02  0.26305105310E+02  0.89329394088E+01  0.29593851638E+02  0.51100000000E-03 0. -1.
        -11    1    3    3    0    0 -0.32130064714E+01  0.24278575064E-01  0.25011092581E+01  0.40717990884E+01  0.51100000000E-03 0.  1.
        -12    1    3    3    0    0  0.61369563754E+01  0.12155821448E+02  0.37407833468E+01  0.14121603616E+02  0.00000000000E+00 0.  1.
</event>
<event>
 7    1  0.2740409E-010  0.4778727E+02  0.7816164E-02  0.1312668E+00
        -11   -1    0    0    0    0  0.00000000000E+00  0.00000000000E+00  0.45593999997E+02  0.45594000000E+02  0.51100000000E-03 0. -1.
         11   -1    0    0    0    0 -0.00000000000E+00 -0.00000000000E+00 -0.45593999997E+02  0.45594000000E+02  0.51100000000E-03 0.  1.
    9900012    2    1    2    0    0 -0.11953248529E+02 -0.36099222846E+02  0.20918628802E+02  0.47787273377E+02  0.20000010633E+02 0.  0.
        -12    1    1    2    0    0  0.11953248529E+02  0.36099222846E+02 -0.20918628802E+02  0.43400726623E+02  0.00000000000E+00 0.  1.
         11    1    3    3    0    0 -0.16741502979E+01 -0.22744158565E+02  0.43623203471E+01  0.23219159484E+02  0.51100000000E-03 0. -1.
        -11    1    3    3    0    0 -0.60281448217E+01 -0.26037942908E+01  0.66103725897E+01  0.93174728728E+01  0.51100000000E-03 0.  1.
         12    1    3    3    0    0 -0.42509534093E+01 -0.10751269990E+02  0.99459358648E+01  0.15250641020E+02  0.00000000000E+00 0. -1.
</event>
<event>
 7    1  0.2740409E-010  0.4778721E+02  0.7816164E-02  0.1312668E+00
        -11   -1    0    0    0    0  0.00000000000E+00  0.00000000000E+00  0.45593999997E+02  0.45594000000E+02  0.51100000000E-03 0.  1.
         11   -1    0    0    0    0 -0.00000000000E+00 -0.00000000000E+00 -0.45593999997E+02  0.45594000000E+02  0.51100000000E-03 0. -1.
    9900012    2    1    2    0    0 -0.91937249950E+01  0.23686502130E+02 -0.35185980066E+02  0.47787214804E+02  0.19999743575E+02 0.  0.
        -12    1    1    2    0    0  0.91937249950E+01 -0.23686502130E+02  0.35185980066E+02  0.43400785196E+02  0.00000000000E+00 0.  1.
         11    1    3    3    0    0 -0.12096779647E+02  0.13104373860E+02 -0.19795682464E+02  0.26644431624E+02  0.51100000000E-03 0. -1.
        -11    1    3    3    0    0  0.37765148841E+01 -0.85288293873E-01 -0.35845480120E+01  0.52075256576E+01  0.51100000000E-03 0.  1.
        -12    1    3    3    0    0 -0.87346023251E+00  0.10667416564E+02 -0.11805749590E+02  0.15935257522E+02  0.00000000000E+00 0.  1.
</event>
<event>
 7    1  0.2740409E-010  0.4778727E+02  0.7816164E-02  0.1312668E+00
        -11   -1    0    0    0    0  0.00000000000E+00  0.00000000000E+00  0.45593999997E+02  0.45594000000E+02  0.51100000000E-03 0.  1.
         11   -1    0    0    0    0 -0.00000000000E+00 -0.00000000000E+00 -0.45593999997E+02  0.45594000000E+02  0.51100000000E-03 0. -1.
    9900012    2    1    2    0    0  0.33024312180E+02  0.21960860006E+02  0.17627773879E+02  0.47787274440E+02  0.20000015484E+02 0.  0.
        -12    1    1    2    0    0 -0.33024312180E+02 -0.21960860006E+02 -0.17627773879E+02  0.43400725560E+02  0.00000000000E+00 0.  1.
         11    1    3    3    0    0  0.20374958409E+02  0.14583334906E+02  0.77523611958E+01  0.26228070679E+02  0.51100000000E-03 0. -1.
        -11    1    3    3    0    0 -0.24157534220E+01  0.19748011462E+01  0.21378663562E+01  0.37823507215E+01  0.51100000000E-03 0.  1.
        -12    1    3    3    0    0  0.15065107193E+02  0.54027239539E+01  0.77375463268E+01  0.17776853040E+02  0.00000000000E+00 0.  1.
</event>
<event>
 7    1  0.2740409E-010  0.4778727E+02  0.7816164E-02  0.1312668E+00
        -11   -1    0    0    0    0  0.00000000000E+00  0.00000000000E+00  0.45593999997E+02  0.45594000000E+02  0.51100000000E-03 0. -1.
         11   -1    0    0    0    0 -0.00000000000E+00 -0.00000000000E+00 -0.45593999997E+02  0.45594000000E+02  0.51100000000E-03 0.  1.
    9900012    2    1    2    0    0 -0.23513710735E+02  0.28702068883E+02  0.22514880800E+02  0.47787271802E+02  0.20000003453E+02 0.  0.
        -12    1    1    2    0    0  0.23513710735E+02 -0.28702068883E+02 -0.22514880800E+02  0.43400728198E+02  0.00000000000E+00 0.  1.
         11    1    3    3    0    0 -0.67385442038E+01  0.47216470478E+01 -0.20138983528E+01  0.84709926022E+01  0.51100000000E-03 0. -1.
        -11    1    3    3    0    0 -0.22489788335E+01  0.53380905254E+01  0.83788762543E+00  0.58527918283E+01  0.51100000000E-03 0.  1.
         12    1    3    3    0    0 -0.14526187698E+02  0.18642331310E+02  0.23690891527E+02  0.33463487371E+02  0.00000000000E+00 0. -1.
</event>
<event>
 7    1  0.2740409E-010  0.4778726E+02  0.7816164E-02  0.1312668E+00
        -11   -1    0    0    0    0  0.00000000000E+00  0.00000000000E+00  0.45593999997E+02  0.45594000000E+02  0.51100000000E-03 0. -1.
         11   -1    0    0    0    0 -0.00000000000E+00 -0.00000000000E+00 -0.45593999997E+02  0.45594000000E+02  0.51100000000E-03 0.  1.
    9900012    2    1    2    0    0 -0.42052005529E+01 -0.38525114763E+02  0.19538574596E+02  0.47787261798E+02  0.19999957844E+02 0.  0.
        -12    1    1    2    0    0  0.42052005529E+01  0.38525114763E+02 -0.19538574596E+02  0.43400738202E+02  0.00000000000E+00 0.  1.
         11    1    3    3    0    0 -0.75877938494E+01 -0.33807606474E+02  0.16329944966E+02  0.38303994228E+02  0.51100000000E-03 0. -1.
        -11    1    3    3    0    0  0.25800155024E+01  0.11912853636E+01  0.17741207579E+01  0.33500963471E+01  0.51100000000E-03 0.  1.
         12    1    3    3    0    0  0.80257779414E+00 -0.59087936529E+01  0.14345088723E+01  0.61331712231E+01  0.00000000000E+00 0. -1.
</event>
<event>
 7    1  0.2740409E-010  0.4778727E+02  0.7816164E-02  0.1312668E+00
        -11   -1    0    0    0    0  0.00000000000E+00  0.00000000000E+00  0.45593999997E+02  0.45594000000E+02  0.51100000000E-03 0. -1.
         11   -1    0    0    0    0 -0.00000000000E+00 -0.00000000000E+00 -0.45593999997E+02  0.45594000000E+02  0.51100000000E-03 0.  1.
    9900012    2    1    2    0    0  0.39373295756E+02 -0.24198721888E+01  0.18097272271E+02  0.47787268857E+02  0.19999990027E+02 0.  0.
        -12    1    1    2    0    0 -0.39373295756E+02  0.24198721888E+01 -0.18097272271E+02  0.43400731143E+02  0.00000000000E+00 0.  1.
         11    1    3    3    0    0  0.34688072237E+02 -0.39057966785E+01  0.82276069787E+01  0.35863785635E+02  0.51100000000E-03 0. -1.
        -11    1    3    3    0    0  0.71127332268E+00  0.23529233022E+01  0.25008058387E+01  0.35065920649E+01  0.51100000000E-03 0.  1.
         12    1    3    3    0    0  0.39739501960E+01 -0.86699881247E+00  0.73688594536E+01  0.84168911570E+01  0.00000000000E+00 0. -1.
</event>
<event>
 7    1  0.2740409E-010  0.4778727E+02  0.7816164E-02  0.1312668E+00
        -11   -1    0    0    0    0  0.00000000000E+00  0.00000000000E+00  0.45593999997E+02  0.45594000000E+02  0.51100000000E-03 0.  1.
         11   -1    0    0    0    0 -0.00000000000E+00 -0.00000000000E+00 -0.45593999997E+02  0.45594000000E+02  0.51100000000E-03 0. -1.
    9900012    2    1    2    0    0 -0.66585812849E+01 -0.90637658571E+01 -0.41918192610E+02  0.47787269270E+02  0.19999991909E+02 0.  0.
        -12    1    1    2    0    0  0.66585812849E+01  0.90637658571E+01  0.41918192610E+02  0.43400730730E+02  0.00000000000E+00 0.  1.
         11    1    3    3    0    0 -0.10810812527E+02 -0.71803886446E+01 -0.15622793716E+02  0.20310178047E+02  0.51100000000E-03 0. -1.
        -11    1    3    3    0    0  0.25624857052E+01 -0.35629867442E+01 -0.23209390794E+02  0.23620690693E+02  0.51100000000E-03 0.  1.
        -12    1    3    3    0    0  0.15897455366E+01  0.16796095317E+01 -0.30860080997E+01  0.38564005292E+01  0.00000000000E+00 0.  1.
</event>
<event>
 7    1  0.2740409E-010  0.4778727E+02  0.7816164E-02  0.1312668E+00
        -11   -1    0    0    0    0  0.00000000000E+00  0.00000000000E+00  0.45593999997E+02  0.45594000000E+02  0.51100000000E-03 0. -1.
         11   -1    0    0    0    0 -0.00000000000E+00 -0.00000000000E+00 -0.45593999997E+02  0.45594000000E+02  0.51100000000E-03 0.  1.
    9900012    2    1    2    0    0  0.36128751864E+02 -0.22683913797E+02  0.79860371159E+01  0.47787269070E+02  0.19999990999E+02 0.  0.
        -12    1    1    2    0    0 -0.36128751864E+02  0.22683913797E+02 -0.79860371159E+01  0.43400730930E+02  0.00000000000E+00 0.  1.
         11    1    3    3    0    0  0.13876298570E+02 -0.16307363937E+02  0.67580968810E+01  0.22453366213E+02  0.51100000000E-03 0. -1.
        -11    1    3    3    0    0  0.38734632021E+01 -0.39958642807E+01  0.36329365651E+01  0.66459669631E+01  0.51100000000E-03 0.  1.
         12    1    3    3    0    0  0.18378990092E+02 -0.23806855796E+01 -0.24049963303E+01  0.18687935894E+02  0.00000000000E+00 0. -1.
</event>
<event>
 7    1  0.2740409E-010  0.4778727E+02  0.7816164E-02  0.1312668E+00
        -11   -1    0    0    0    0  0.00000000000E+00  0.00000000000E+00  0.45593999997E+02  0.45594000000E+02  0.51100000000E-03 0.  1.
         11   -1    0    0    0    0 -0.00000000000E+00 -0.00000000000E+00 -0.45593999997E+02  0.45594000000E+02  0.51100000000E-03 0. -1.
    9900012    2    1    2    0    0 -0.24693326011E+02  0.22890693752E+02 -0.27383921611E+02  0.47787269906E+02  0.19999994808E+02 0.  0.
        -12    1    1    2    0    0  0.24693326011E+02 -0.22890693752E+02  0.27383921611E+02  0.43400730094E+02  0.00000000000E+00 0.  1.
         11    1    3    3    0    0 -0.15458806378E+01  0.42248854996E+01 -0.41722872032E+01  0.61357465069E+01  0.51100000000E-03 0. -1.
        -11    1    3    3    0    0 -0.50157710006E+01  0.76239928162E+01  0.13073522430E+01  0.92191320275E+01  0.51100000000E-03 0.  1.
        -12    1    3    3    0    0 -0.18131674372E+02  0.11041815436E+02 -0.24518986651E+02  0.32432391371E+02  0.00000000000E+00 0.  1.
</event>
<event>
 7    1  0.2740409E-010  0.4778727E+02  0.7816164E-02  0.1312668E+00
        -11   -1    0    0    0    0  0.00000000000E+00  0.00000000000E+00  0.45593999997E+02  0.45594000000E+02  0.51100000000E-03 0. -1.
         11   -1    0    0    0    0 -0.00000000000E+00 -0.00000000000E+00 -0.45593999997E+02  0.45594000000E+02  0.51100000000E-03 0.  1.
    9900012    2    1    2    0    0  0.19057878753E+02 -0.38620617085E+02 -0.53729706514E+01  0.47787267054E+02  0.19999981806E+02 0.  0.
        -12    1    1    2    0    0 -0.19057878753E+02  0.38620617085E+02  0.53729706514E+01  0.43400732946E+02  0.00000000000E+00 0.  1.
         11    1    3    3    0    0  0.35667020925E+01 -0.25215495217E+02 -0.17476967375E+01  0.25526398238E+02  0.51100000000E-03 0. -1.
        -11    1    3    3    0    0  0.15035829140E+02 -0.13879112572E+02 -0.47055198812E+01  0.20996376862E+02  0.51100000000E-03 0.  1.
        -12    1    3    3    0    0  0.45534752041E+00  0.47399070376E+00  0.10802459672E+01  0.12644919538E+01  0.00000000000E+00 0.  1.
</event>
<event>
 7    1  0.2740409E-010  0.4778728E+02  0.7816164E-02  0.1312668E+00
        -11   -1    0    0    0    0  0.00000000000E+00  0.00000000000E+00  0.45593999997E+02  0.45594000000E+02  0.51100000000E-03 0.  1.
         11   -1    0    0    0    0 -0.00000000000E+00 -0.00000000000E+00 -0.45593999997E+02  0.45594000000E+02  0.51100000000E-03 0. -1.
    9900012    2    1    2    0    0  0.56366194659E+01  0.10797226565E+02 -0.41656588174E+02  0.47787275135E+02  0.20000018650E+02 0.  0.
        -12    1    1    2    0    0 -0.56366194659E+01 -0.10797226565E+02  0.41656588174E+02  0.43400724865E+02  0.00000000000E+00 0.  1.
         11    1    3    3    0    0 -0.28667441651E+01  0.90289899353E+01 -0.23468230519E+02  0.25308076286E+02  0.51100000000E-03 0. -1.
        -11    1    3    3    0    0 -0.13085593891E+01  0.11852547803E+01 -0.84869857111E+01  0.86686840576E+01  0.51100000000E-03 0.  1.
         12    1    3    3    0    0  0.98119230201E+01  0.58298184919E+00 -0.97013719443E+01  0.13810514791E+02  0.00000000000E+00 0. -1.
</event>
<event>
 7    1  0.2740409E-010  0.4778728E+02  0.7816164E-02  0.1312668E+00
        -11   -1    0    0    0    0  0.00000000000E+00  0.00000000000E+00  0.45593999997E+02  0.45594000000E+02  0.51100000000E-03 0.  1.
         11   -1    0    0    0    0 -0.00000000000E+00 -0.00000000000E+00 -0.45593999997E+02  0.45594000000E+02  0.51100000000E-03 0. -1.
    9900012    2    1    2    0    0  0.28981985819E+02  0.99472526823E+01 -0.30736288499E+02  0.47787276865E+02  0.20000026539E+02 0.  0.
        -12    1    1    2    0    0 -0.28981985819E+02 -0.99472526823E+01  0.30736288499E+02  0.43400723135E+02  0.00000000000E+00 0.  1.
         11    1    3    3    0    0  0.68179101394E+01 -0.56744931176E+01 -0.83944995797E+01  0.12212755392E+02  0.51100000000E-03 0. -1.
        -11    1    3    3    0    0  0.13056488459E+02  0.79515779741E+01 -0.15815620323E+02  0.21996211710E+02  0.51100000000E-03 0.  1.
         12    1    3    3    0    0  0.91075872212E+01  0.76701678258E+01 -0.65261685963E+01  0.13578309763E+02  0.00000000000E+00 0. -1.
</event>
<event>
 7    1  0.2740409E-010  0.4778727E+02  0.7816164E-02  0.1312668E+00
        -11   -1    0    0    0    0  0.00000000000E+00  0.00000000000E+00  0.45593999997E+02  0.45594000000E+02  0.51100000000E-03 0.  1.
         11   -1    0    0    0    0 -0.00000000000E+00 -0.00000000000E+00 -0.45593999997E+02  0.45594000000E+02  0.51100000000E-03 0. -1.
    9900012    2    1    2    0    0 -0.22271366078E+01  0.42136274542E+02 -0.10158610122E+02  0.47787272709E+02  0.20000007590E+02 0.  0.
        -12    1    1    2    0    0  0.22271366078E+01 -0.42136274542E+02  0.10158610122E+02  0.43400727291E+02  0.00000000000E+00 0.  1.
         11    1    3    3    0    0 -0.66052006184E+01  0.88638076529E+01 -0.48949672805E+01  0.12089518860E+02  0.51100000000E-03 0. -1.
        -11    1    3    3    0    0  0.18501395163E+01  0.32363550373E+02 -0.37994937959E+01  0.32638299011E+02  0.51100000000E-03 0.  1.
         12    1    3    3    0    0  0.25279244943E+01  0.90891651657E+00 -0.14641490452E+01  0.30594548387E+01  0.00000000000E+00 0. -1.
</event>
<event>
 7    1 -0.2740409E-010  0.4778727E+02  0.7816164E-02  0.1312668E+00
        -11   -1    0    0    0    0  0.00000000000E+00  0.00000000000E+00  0.45593999997E+02  0.45594000000E+02  0.51100000000E-03 0. -1.
         11   -1    0    0    0    0 -0.00000000000E+00 -0.00000000000E+00 -0.45593999997E+02  0.45594000000E+02  0.51100000000E-03 0.  1.
    9900012    2    1    2    0    0  0.30203385445E+02 -0.11651193568E+02  0.28907241526E+02  0.47787269401E+02  0.19999992507E+02 0.  0.
        -12    1    1    2    0    0 -0.30203385445E+02  0.11651193568E+02 -0.28907241526E+02  0.43400730599E+02  0.00000000000E+00 0.  1.
         11    1    3    3    0    0  0.11843050761E+01 -0.71670900016E+01  0.72661568635E+01  0.10274570231E+02  0.51100000000E-03 0. -1.
        -11    1    3    3    0    0  0.13090672692E+02 -0.63203867424E+01  0.11562267715E+02  0.18574149646E+02  0.51100000000E-03 0.  1.
         12    1    3    3    0    0  0.15928407676E+02  0.18362831762E+01  0.10078816948E+02  0.18938549524E+02  0.00000000000E+00 0. -1.
</event>
<event>
 7    1  0.2740409E-010  0.4778728E+02  0.7816164E-02  0.1312668E+00
        -11   -1    0    0    0    0  0.00000000000E+00  0.00000000000E+00  0.45593999997E+02  0.45594000000E+02  0.51100000000E-03 0.  1.
         11   -1    0    0    0    0 -0.00000000000E+00 -0.00000000000E+00 -0.45593999997E+02  0.45594000000E+02  0.51100000000E-03 0. -1.
    9900012    2    1    2    0    0 -0.32421028367E+02 -0.23722010728E+02  0.16424545811E+02  0.47787279056E+02  0.20000036529E+02 0.  0.
        -12    1    1    2    0    0  0.32421028367E+02  0.23722010728E+02 -0.16424545811E+02  0.43400720944E+02  0.00000000000E+00 0.  1.
         11    1    3    3    0    0 -0.23592205068E+02 -0.13789264823E+02  0.29008308111E+01  0.27480006987E+02  0.51100000000E-03 0. -1.
        -11    1    3    3    0    0 -0.99436933890E+01 -0.95054916416E+01  0.13212180256E+02  0.19073361449E+02  0.51100000000E-03 0.  1.
         12    1    3    3    0    0  0.11148700903E+01 -0.42725426292E+00  0.31153474388E+00  0.12339106208E+01  0.00000000000E+00 0. -1.
</event>
<event>
 7    1  0.2740409E-010  0.4778727E+02  0.7816164E-02  0.1312668E+00
        -11   -1    0    0    0    0  0.00000000000E+00  0.00000000000E+00  0.45593999997E+02  0.45594000000E+02  0.51100000000E-03 0. -1.
         11   -1    0    0    0    0 -0.00000000000E+00 -0.00000000000E+00 -0.45593999997E+02  0.45594000000E+02  0.51100000000E-03 0.  1.
    9900012    2    1    2    0    0  0.80805548698E+01 -0.40249765002E+02  0.14081346391E+02  0.47787271137E+02  0.20000000420E+02 0.  0.
        -12    1    1    2    0    0 -0.80805548698E+01  0.40249765002E+02 -0.14081346391E+02  0.43400728863E+02  0.00000000000E+00 0.  1.
         11    1    3    3    0    0  0.12054405966E+02 -0.23191354663E+02  0.44388617043E+01  0.26511339608E+02  0.51100000000E-03 0. -1.
        -11    1    3    3    0    0 -0.58637704016E+01 -0.15278012869E+02  0.81640911758E+01  0.18288079876E+02  0.51100000000E-03 0.  1.
         12    1    3    3    0    0  0.18899193051E+01 -0.17803974696E+01  0.14783935109E+01  0.29878516533E+01  0.00000000000E+00 0. -1.
</event>
<event>
 7    1  0.2740409E-010  0.4778727E+02  0.7816164E-02  0.1312668E+00
        -11   -1    0    0    0    0  0.00000000000E+00  0.00000000000E+00  0.45593999997E+02  0.45594000000E+02  0.51100000000E-03 0.  1.
         11   -1    0    0    0    0 -0.00000000000E+00 -0.00000000000E+00 -0.45593999997E+02  0.45594000000E+02  0.51100000000E-03 0. -1.
    9900012    2    1    2    0    0 -0.32906005705E+02 -0.28066369065E+02 -0.36189951031E+01  0.47787269482E+02  0.19999992876E+02 0.  0.
        -12    1    1    2    0    0  0.32906005705E+02  0.28066369065E+02  0.36189951031E+01  0.43400730518E+02  0.00000000000E+00 0.  1.
         11    1    3    3    0    0 -0.17250422864E+02 -0.94151456561E+01  0.57283101326E+01  0.20470358911E+02  0.51100000000E-03 0. -1.
        -11    1    3    3    0    0 -0.12483252316E+02 -0.18057869269E+02 -0.62055508737E+01  0.22812871210E+02  0.51100000000E-03 0.  1.
        -12    1    3    3    0    0 -0.31723305238E+01 -0.59335413969E+00 -0.31417543620E+01  0.45040393603E+01  0.00000000000E+00 0.  1.
</event>
<event>
 7    1  0.2740409E-010  0.4778727E+02  0.7816164E-02  0.1312668E+00
        -11   -1    0    0    0    0  0.00000000000E+00  0.00000000000E+00  0.45593999997E+02  0.45594000000E+02  0.51100000000E-03 0. -1.
         11   -1    0    0    0    0 -0.00000000000E+00 -0.00000000000E+00 -0.45593999997E+02  0.45594000000E+02  0.51100000000E-03 0.  1.
    9900012    2    1    2    0    0  0.29461999586E+02  0.99692637779E+01  0.30269254106E+02  0.47787269775E+02  0.19999994213E+02 0.  0.
        -12    1    1    2    0    0 -0.29461999586E+02 -0.99692637779E+01 -0.30269254106E+02  0.43400730225E+02  0.00000000000E+00 0.  1.
         11    1    3    3    0    0  0.24476772362E+02  0.34083798455E+01  0.14213787890E+02  0.28508967096E+02  0.51100000000E-03 0.  1.
        -11    1    3    3    0    0  0.21186179028E+01  0.24476060973E+01  0.13022143616E+02  0.13418477635E+02  0.51100000000E-03 0. -1.
        -12    1    3    3    0    0  0.28666093218E+01  0.41132778351E+01  0.30333226004E+01  0.58598250444E+01  0.00000000000E+00 0.  1.
</event>
<event>
 7    1  0.2740409E-010  0.4778727E+02  0.7816164E-02  0.1312668E+00
        -11   -1    0    0    0    0  0.00000000000E+00  0.00000000000E+00  0.45593999997E+02  0.45594000000E+02  0.51100000000E-03 0.  1.
         11   -1    0    0    0    0 -0.00000000000E+00 -0.00000000000E+00 -0.45593999997E+02  0.45594000000E+02  0.51100000000E-03 0. -1.
    9900012    2    1    2    0    0 -0.31265116288E+01  0.37415360480E+02 -0.21770142153E+02  0.47787270004E+02  0.19999995257E+02 0.  0.
        -12    1    1    2    0    0  0.31265116288E+01 -0.37415360480E+02  0.21770142153E+02  0.43400729996E+02  0.00000000000E+00 0.  1.
         11    1    3    3    0    0 -0.79319175573E+01  0.14421191845E+02 -0.48246407834E+01  0.17151187986E+02  0.51100000000E-03 0. -1.
        -11    1    3    3    0    0  0.58141479639E+01  0.58633005756E+01 -0.42278555016E+01  0.92767113024E+01  0.51100000000E-03 0.  1.
         12    1    3    3    0    0 -0.10087420354E+01  0.17130868059E+02 -0.12717645868E+02  0.21359370716E+02  0.00000000000E+00 0. -1.
</event>
<event>
 7    1  0.2740409E-010  0.4778727E+02  0.7816164E-02  0.1312668E+00
        -11   -1    0    0    0    0  0.00000000000E+00  0.00000000000E+00  0.45593999997E+02  0.45594000000E+02  0.51100000000E-03 0.  1.
         11   -1    0    0    0    0 -0.00000000000E+00 -0.00000000000E+00 -0.45593999997E+02  0.45594000000E+02  0.51100000000E-03 0. -1.
    9900012    2    1    2    0    0  0.11474341432E+02 -0.55829225106E+01 -0.41482455725E+02  0.47787266503E+02  0.19999979296E+02 0.  0.
        -12    1    1    2    0    0 -0.11474341432E+02  0.55829225106E+01  0.41482455725E+02  0.43400733497E+02  0.00000000000E+00 0.  1.
         11    1    3    3    0    0 -0.14568528558E+01 -0.45748293824E+01 -0.87603188920E+00  0.48804627090E+01  0.51100000000E-03 0. -1.
        -11    1    3    3    0    0  0.70923905477E+01  0.10892141559E+01 -0.16088853567E+02  0.17616458229E+02  0.51100000000E-03 0.  1.
         12    1    3    3    0    0  0.58388037397E+01 -0.20973072840E+01 -0.24517570269E+02  0.25290345566E+02  0.00000000000E+00 0. -1.
</event>
<event>
 7    1  0.2740409E-010  0.4778727E+02  0.7816164E-02  0.1312668E+00
        -11   -1    0    0    0    0  0.00000000000E+00  0.00000000000E+00  0.45593999997E+02  0.45594000000E+02  0.51100000000E-03 0.  1.
         11   -1    0    0    0    0 -0.00000000000E+00 -0.00000000000E+00 -0.45593999997E+02  0.45594000000E+02  0.51100000000E-03 0. -1.
    9900012    2    1    2    0    0 -0.88178769632E+01 -0.26593211479E+02 -0.33146182713E+02  0.47787270982E+02  0.19999999714E+02 0.  0.
        -12    1    1    2    0    0  0.88178769632E+01  0.26593211479E+02  0.33146182713E+02  0.43400729018E+02  0.00000000000E+00 0.  1.
         11    1    3    3    0    0  0.37412631457E+01 -0.64442927127E+01 -0.10174854508E+02  0.12611646325E+02  0.51100000000E-03 0. -1.
        -11    1    3    3    0    0 -0.10229676640E+02 -0.20350173912E+02 -0.16032607963E+02  0.27853552391E+02  0.51100000000E-03 0.  1.
        -12    1    3    3    0    0 -0.23294634690E+01  0.20125514653E+00 -0.69387202413E+01  0.73220722664E+01  0.00000000000E+00 0.  1.
</event>
<event>
 7    1  0.2740409E-010  0.4778727E+02  0.7816164E-02  0.1312668E+00
        -11   -1    0    0    0    0  0.00000000000E+00  0.00000000000E+00  0.45593999997E+02  0.45594000000E+02  0.51100000000E-03 0.  1.
         11   -1    0    0    0    0 -0.00000000000E+00 -0.00000000000E+00 -0.45593999997E+02  0.45594000000E+02  0.51100000000E-03 0. -1.
    9900012    2    1    2    0    0  0.34265525180E+02  0.70219486749E+01 -0.25694147977E+02  0.47787271673E+02  0.20000002867E+02 0.  0.
        -12    1    1    2    0    0 -0.34265525180E+02 -0.70219486749E+01  0.25694147977E+02  0.43400728327E+02  0.00000000000E+00 0.  1.
         11    1    3    3    0    0  0.15071528534E+02 -0.54103729261E+01 -0.11378462084E+02  0.19644146894E+02  0.51100000000E-03 0. -1.
        -11    1    3    3    0    0  0.62296551235E+01  0.71973646244E+01 -0.25104986516E+01  0.98444534757E+01  0.51100000000E-03 0.  1.
        -12    1    3    3    0    0  0.12964341523E+02  0.52349569765E+01 -0.11805187242E+02  0.18298671303E+02  0.00000000000E+00 0.  1.
</event>
<event>
 7    1  0.2740409E-010  0.4778727E+02  0.7816164E-02  0.1312668E+00
        -11   -1    0    0    0    0  0.00000000000E+00  0.00000000000E+00  0.45593999997E+02  0.45594000000E+02  0.51100000000E-03 0. -1.
         11   -1    0    0    0    0 -0.00000000000E+00 -0.00000000000E+00 -0.45593999997E+02  0.45594000000E+02  0.51100000000E-03 0.  1.
    9900012    2    1    2    0    0 -0.32475752862E+02  0.24301631956E+02  0.15439534034E+02  0.47787273614E+02  0.20000011715E+02 0.  0.
        -12    1    1    2    0    0  0.32475752862E+02 -0.24301631956E+02 -0.15439534034E+02  0.43400726386E+02  0.00000000000E+00 0.  1.
         11    1    3    3    0    0 -0.80776617297E+01  0.72069105289E+01  0.56159123732E+00  0.10839906059E+02  0.51100000000E-03 0. -1.
        -11    1    3    3    0    0 -0.41484648153E+01  0.12269043120E+02  0.67011630802E+01  0.14582344335E+02  0.51100000000E-03 0.  1.
        -12    1    3    3    0    0 -0.20249626317E+02  0.48256783066E+01  0.81767797160E+01  0.22365023220E+02  0.00000000000E+00 0.  1.
</event>
<event>
 7    1  0.2740409E-010  0.4778727E+02  0.7816164E-02  0.1312668E+00
        -11   -1    0    0    0    0  0.00000000000E+00  0.00000000000E+00  0.45593999997E+02  0.45594000000E+02  0.51100000000E-03 0. -1.
         11   -1    0    0    0    0 -0.00000000000E+00 -0.00000000000E+00 -0.45593999997E+02  0.45594000000E+02  0.51100000000E-03 0.  1.
    9900012    2    1    2    0    0 -0.38253214510E+01 -0.30604313504E+02  0.30534673215E+02  0.47787270080E+02  0.19999995602E+02 0.  0.
        -12    1    1    2    0    0  0.38253214510E+01  0.30604313504E+02 -0.30534673215E+02  0.43400729920E+02  0.00000000000E+00 0.  1.
         11    1    3    3    0    0 -0.88754345989E+01 -0.91842368643E+01  0.89690382038E+01  0.15606639378E+02  0.51100000000E-03 0. -1.
        -11    1    3    3    0    0  0.61417064351E+01 -0.21715890378E+02  0.21270371823E+02  0.31011758586E+02  0.51100000000E-03 0.  1.
        -12    1    3    3    0    0 -0.10915932872E+01  0.29581373909E+00  0.29526318849E+00  0.11688721159E+01  0.00000000000E+00 0.  1.
</event>
<event>
 7    1  0.2740409E-010  0.4778727E+02  0.7816164E-02  0.1312668E+00
        -11   -1    0    0    0    0  0.00000000000E+00  0.00000000000E+00  0.45593999997E+02  0.45594000000E+02  0.51100000000E-03 0. -1.
         11   -1    0    0    0    0 -0.00000000000E+00 -0.00000000000E+00 -0.45593999997E+02  0.45594000000E+02  0.51100000000E-03 0.  1.
    9900012    2    1    2    0    0 -0.19149723421E+02  0.38834367617E+02  0.29670980287E+01  0.47787266296E+02  0.19999978351E+02 0.  0.
        -12    1    1    2    0    0  0.19149723421E+02 -0.38834367617E+02 -0.29670980287E+01  0.43400733704E+02  0.00000000000E+00 0.  1.
         11    1    3    3    0    0 -0.14753850070E+02  0.33958459164E+02  0.19744646364E+01  0.37077642206E+02  0.51100000000E-03 0. -1.
        -11    1    3    3    0    0 -0.61485912115E+01  0.87267093756E+00  0.12388613543E+01  0.63325750029E+01  0.51100000000E-03 0.  1.
        -12    1    3    3    0    0  0.17527178608E+01  0.40032375156E+01 -0.24622796208E+00  0.43770490876E+01  0.00000000000E+00 0.  1.
</event>
<event>
 7    1  0.2740409E-010  0.4778727E+02  0.7816164E-02  0.1312668E+00
        -11   -1    0    0    0    0  0.00000000000E+00  0.00000000000E+00  0.45593999997E+02  0.45594000000E+02  0.51100000000E-03 0.  1.
         11   -1    0    0    0    0 -0.00000000000E+00 -0.00000000000E+00 -0.45593999997E+02  0.45594000000E+02  0.51100000000E-03 0. -1.
    9900012    2    1    2    0    0  0.40273790708E+02  0.15665979335E+02 -0.40276565478E+01  0.47787272543E+02  0.20000006831E+02 0.  0.
        -12    1    1    2    0    0 -0.40273790708E+02 -0.15665979335E+02  0.40276565478E+01  0.43400727457E+02  0.00000000000E+00 0.  1.
         11    1    3    3    0    0  0.17694160391E+02  0.45063634243E+01 -0.12106614058E+01  0.18299079882E+02  0.51100000000E-03 0. -1.
        -11    1    3    3    0    0  0.39587740699E+01  0.82336812767E+01 -0.51622291469E+01  0.10493522265E+02  0.51100000000E-03 0.  1.
        -12    1    3    3    0    0  0.18620856248E+02  0.29259346343E+01  0.23452340049E+01  0.18994670395E+02  0.00000000000E+00 0.  1.
</event>
<event>
 7    1  0.2740409E-010  0.4778727E+02  0.7816164E-02  0.1312668E+00
        -11   -1    0    0    0    0  0.00000000000E+00  0.00000000000E+00  0.45593999997E+02  0.45594000000E+02  0.51100000000E-03 0. -1.
         11   -1    0    0    0    0 -0.00000000000E+00 -0.00000000000E+00 -0.45593999997E+02  0.45594000000E+02  0.51100000000E-03 0.  1.
    9900012    2    1    2    0    0 -0.33618645089E+02 -0.22693010504E+02  0.15441415099E+02  0.47787270471E+02  0.19999997386E+02 0.  0.
        -12    1    1    2    0    0  0.33618645089E+02  0.22693010504E+02 -0.15441415099E+02  0.43400729529E+02  0.00000000000E+00 0.  1.
         11    1    3    3    0    0 -0.42467602060E+01 -0.10082778836E+02  0.47628926688E+01  0.11932415855E+02  0.51100000000E-03 0. -1.
        -11    1    3    3    0    0 -0.21806898662E+02 -0.94032845728E+01  0.18890940643E+01  0.23822914739E+02  0.51100000000E-03 0.  1.
        -12    1    3    3    0    0 -0.75649862206E+01 -0.32069470950E+01  0.87894283663E+01  0.12031939877E+02  0.00000000000E+00 0.  1.
</event>
<event>
 7    1  0.2740409E-010  0.4778727E+02  0.7816164E-02  0.1312668E+00
        -11   -1    0    0    0    0  0.00000000000E+00  0.00000000000E+00  0.45593999997E+02  0.45594000000E+02  0.51100000000E-03 0.  1.
         11   -1    0    0    0    0 -0.00000000000E+00 -0.00000000000E+00 -0.45593999997E+02  0.45594000000E+02  0.51100000000E-03 0. -1.
    9900012    2    1    2    0    0 -0.26612897266E+02  0.31580089390E+02  0.13344473040E+02  0.47787270657E+02  0.19999998235E+02 0.  0.
        -12    1    1    2    0    0  0.26612897266E+02 -0.31580089390E+02 -0.13344473040E+02  0.43400729343E+02  0.00000000000E+00 0.  1.
         11    1    3    3    0    0 -0.27354810892E+01  0.15230633217E+02  0.34675679272E+01  0.15858091706E+02  0.51100000000E-03 0. -1.
        -11    1    3    3    0    0 -0.22519774572E+01 -0.88518664747E+00  0.20985986362E+01  0.32029789830E+01  0.51100000000E-03 0.  1.
         12    1    3    3    0    0 -0.21625438720E+02  0.17234642820E+02  0.77783064761E+01  0.28726199968E+02  0.00000000000E+00 0. -1.
</event>
<event>
 7    1  0.2740409E-010  0.4778723E+02  0.7816164E-02  0.1312668E+00
        -11   -1    0    0    0    0  0.00000000000E+00  0.00000000000E+00  0.45593999997E+02  0.45594000000E+02  0.51100000000E-03 0.  1.
         11   -1    0    0    0    0 -0.00000000000E+00 -0.00000000000E+00 -0.45593999997E+02  0.45594000000E+02  0.51100000000E-03 0. -1.
    9900012    2    1    2    0    0  0.14154731093E+02 -0.28708009052E+01 -0.40927120547E+02  0.47787226891E+02  0.19999798688E+02 0.  0.
        -12    1    1    2    0    0 -0.14154731093E+02  0.28708009052E+01  0.40927120547E+02  0.43400773109E+02  0.00000000000E+00 0.  1.
         11    1    3    3    0    0  0.44518375610E+01 -0.43020850537E+01 -0.29501805107E+02  0.30144374240E+02  0.51100000000E-03 0. -1.
        -11    1    3    3    0    0  0.50783284633E+01  0.51533019131E+01 -0.80115509375E+01  0.10794947396E+02  0.51100000000E-03 0.  1.
         12    1    3    3    0    0  0.46245650686E+01 -0.37220177646E+01 -0.34137645022E+01  0.68479052557E+01  0.00000000000E+00 0. -1.
</event>
<event>
 7    1  0.2740409E-010  0.4778727E+02  0.7816164E-02  0.1312668E+00
        -11   -1    0    0    0    0  0.00000000000E+00  0.00000000000E+00  0.45593999997E+02  0.45594000000E+02  0.51100000000E-03 0. -1.
         11   -1    0    0    0    0 -0.00000000000E+00 -0.00000000000E+00 -0.45593999997E+02  0.45594000000E+02  0.51100000000E-03 0.  1.
    9900012    2    1    2    0    0  0.23285875879E+02 -0.36326963038E+02  0.46629892630E+01  0.47787265813E+02  0.19999976150E+02 0.  0.
        -12    1    1    2    0    0 -0.23285875879E+02  0.36326963038E+02 -0.46629892630E+01  0.43400734187E+02  0.00000000000E+00 0.  1.
         11    1    3    3    0    0  0.43674533662E-01 -0.17469019726E+01  0.18624824151E+01  0.25539019117E+01  0.51100000000E-03 0.  1.
        -11    1    3    3    0    0 -0.12574792103E+01 -0.10913362833E+02 -0.58853896541E+00  0.11001323587E+02  0.51100000000E-03 0. -1.
        -12    1    3    3    0    0  0.24499680556E+02 -0.23666698232E+02  0.33890458133E+01  0.34232040314E+02  0.00000000000E+00 0.  1.
</event>
<event>
 7    1  0.2740409E-010  0.4778727E+02  0.7816164E-02  0.1312668E+00
        -11   -1    0    0    0    0  0.00000000000E+00  0.00000000000E+00  0.45593999997E+02  0.45594000000E+02  0.51100000000E-03 0.  1.
         11   -1    0    0    0    0 -0.00000000000E+00 -0.00000000000E+00 -0.45593999997E+02  0.45594000000E+02  0.51100000000E-03 0. -1.
    9900012    2    1    2    0    0 -0.17252243599E+02 -0.23290189775E+02 -0.32304036346E+02  0.47787267135E+02  0.19999982176E+02 0.  0.
        -12    1    1    2    0    0  0.17252243599E+02  0.23290189775E+02  0.32304036346E+02  0.43400732865E+02  0.00000000000E+00 0.  1.
         11    1    3    3    0    0 -0.74599526630E+01 -0.92136313047E+01 -0.74962000018E+01  0.14026222238E+02  0.51100000000E-03 0. -1.
        -11    1    3    3    0    0 -0.97646370284E+01 -0.14638312916E+01 -0.77790825427E+01  0.12570006516E+02  0.51100000000E-03 0.  1.
        -12    1    3    3    0    0 -0.27653907744E-01 -0.12612727179E+02 -0.17028753801E+02  0.21191038381E+02  0.00000000000E+00 0.  1.
</event>
<event>
 7    1  0.2740409E-010  0.4778728E+02  0.7816164E-02  0.1312668E+00
        -11   -1    0    0    0    0  0.00000000000E+00  0.00000000000E+00  0.45593999997E+02  0.45594000000E+02  0.51100000000E-03 0.  1.
         11   -1    0    0    0    0 -0.00000000000E+00 -0.00000000000E+00 -0.45593999997E+02  0.45594000000E+02  0.51100000000E-03 0. -1.
    9900012    2    1    2    0    0 -0.28078765265E+02 -0.31400041285E+02 -0.10451921921E+02  0.47787281995E+02  0.20000049926E+02 0.  0.
        -12    1    1    2    0    0  0.28078765265E+02  0.31400041285E+02  0.10451921921E+02  0.43400718005E+02  0.00000000000E+00 0.  1.
         11    1    3    3    0    0 -0.64368205982E+01 -0.17231413429E+02 -0.11011429653E+02  0.21438419984E+02  0.51100000000E-03 0. -1.
        -11    1    3    3    0    0 -0.91519200005E+01 -0.76703298449E+01  0.23053312649E+01  0.12161667325E+02  0.51100000000E-03 0.  1.
         12    1    3    3    0    0 -0.12490024667E+02 -0.64982980116E+01 -0.17458235324E+01  0.14187194685E+02  0.00000000000E+00 0. -1.
</event>
<event>
 7    1  0.2740409E-010  0.4778728E+02  0.7816164E-02  0.1312668E+00
        -11   -1    0    0    0    0  0.00000000000E+00  0.00000000000E+00  0.45593999997E+02  0.45594000000E+02  0.51100000000E-03 0. -1.
         11   -1    0    0    0    0 -0.00000000000E+00 -0.00000000000E+00 -0.45593999997E+02  0.45594000000E+02  0.51100000000E-03 0.  1.
    9900012    2    1    2    0    0  0.89584703859E+01  0.42214862948E+02  0.46123673650E+01  0.47787276756E+02  0.20000026041E+02 0.  0.
        -12    1    1    2    0    0 -0.89584703859E+01 -0.42214862948E+02 -0.46123673650E+01  0.43400723244E+02  0.00000000000E+00 0.  1.
         11    1    3    3    0    0  0.14208574592E+02  0.20378060943E+02  0.19566245975E+01  0.24919416924E+02  0.51100000000E-03 0. -1.
        -11    1    3    3    0    0 -0.49953234458E+01  0.13872636523E+02  0.16695798721E+01  0.14838827367E+02  0.51100000000E-03 0.  1.
         12    1    3    3    0    0 -0.25478076071E+00  0.79641654823E+01  0.98616289540E+00  0.80290324648E+01  0.00000000000E+00 0. -1.
</event>
<event>
 7    1  0.2740409E-010  0.4778726E+02  0.7816164E-02  0.1312668E+00
        -11   -1    0    0    0    0  0.00000000000E+00  0.00000000000E+00  0.45593999997E+02  0.45594000000E+02  0.51100000000E-03 0.  1.
         11   -1    0    0    0    0 -0.00000000000E+00 -0.00000000000E+00 -0.45593999997E+02  0.45594000000E+02  0.51100000000E-03 0. -1.
    9900012    2    1    2    0    0 -0.26655266580E+02  0.14397251827E+02 -0.31077974194E+02  0.47787256036E+02  0.19999931571E+02 0.  0.
        -12    1    1    2    0    0  0.26655266580E+02 -0.14397251827E+02  0.31077974194E+02  0.43400743964E+02  0.00000000000E+00 0.  1.
         11    1    3    3    0    0 -0.18326037550E+02  0.11728583270E+02 -0.11597348760E+02  0.24655664995E+02  0.51100000000E-03 0. -1.
        -11    1    3    3    0    0 -0.50638205348E+01 -0.27087404468E+01 -0.12365623844E+02  0.13634082533E+02  0.51100000000E-03 0.  1.
         12    1    3    3    0    0 -0.32654084954E+01  0.53774090035E+01 -0.71150015897E+01  0.94975085077E+01  0.00000000000E+00 0. -1.
</event>
<event>
 7    1  0.2740409E-010  0.4778728E+02  0.7816164E-02  0.1312668E+00
        -11   -1    0    0    0    0  0.00000000000E+00  0.00000000000E+00  0.45593999997E+02  0.45594000000E+02  0.51100000000E-03 0.  1.
         11   -1    0    0    0    0 -0.00000000000E+00 -0.00000000000E+00 -0.45593999997E+02  0.45594000000E+02  0.51100000000E-03 0. -1.
    9900012    2    1    2    0    0  0.35351912506E+02  0.21592502834E+02 -0.12947161367E+02  0.47787275537E+02  0.20000020483E+02 0.  0.
        -12    1    1    2    0    0 -0.35351912506E+02 -0.21592502834E+02  0.12947161367E+02  0.43400724463E+02  0.00000000000E+00 0.  1.
         11    1    3    3    0    0  0.59357187602E+01  0.11836470915E+02 -0.21984902363E+01  0.13422673374E+02  0.51100000000E-03 0. -1.
        -11    1    3    3    0    0  0.28469908378E+01  0.34145677636E+01  0.11159065791E+01  0.45836533025E+01  0.51100000000E-03 0.  1.
         12    1    3    3    0    0  0.26569202908E+02  0.63414641555E+01 -0.11864577710E+02  0.29780948860E+02  0.00000000000E+00 0. -1.
</event>
<event>
 7    1  0.2740409E-010  0.4778727E+02  0.7816164E-02  0.1312668E+00
        -11   -1    0    0    0    0  0.00000000000E+00  0.00000000000E+00  0.45593999997E+02  0.45594000000E+02  0.51100000000E-03 0.  1.
         11   -1    0    0    0    0 -0.00000000000E+00 -0.00000000000E+00 -0.45593999997E+02  0.45594000000E+02  0.51100000000E-03 0. -1.
    9900012    2    1    2    0    0  0.28985192304E+02 -0.89300671740E+01 -0.31044093894E+02  0.47787271453E+02  0.20000001864E+02 0.  0.
        -12    1    1    2    0    0 -0.28985192304E+02  0.89300671740E+01  0.31044093894E+02  0.43400728547E+02  0.00000000000E+00 0.  1.
         11    1    3    3    0    0 -0.11983338280E+01 -0.31654925108E+01 -0.72806840612E+01  0.80289916838E+01  0.51100000000E-03 0. -1.
        -11    1    3    3    0    0  0.16318503081E+02 -0.17146801006E+01 -0.76054701591E+01  0.18085266027E+02  0.51100000000E-03 0.  1.
         12    1    3    3    0    0  0.13865023052E+02 -0.40498945627E+01 -0.16157939674E+02  0.21673013743E+02  0.00000000000E+00 0. -1.
</event>
<event>
 7    1  0.2740409E-010  0.4778729E+02  0.7816164E-02  0.1312668E+00
        -11   -1    0    0    0    0  0.00000000000E+00  0.00000000000E+00  0.45593999997E+02  0.45594000000E+02  0.51100000000E-03 0. -1.
         11   -1    0    0    0    0 -0.00000000000E+00 -0.00000000000E+00 -0.45593999997E+02  0.45594000000E+02  0.51100000000E-03 0.  1.
    9900012    2    1    2    0    0  0.42994660861E+01  0.33803822686E+01  0.43054723312E+02  0.47787290416E+02  0.20000088322E+02 0.  0.
        -12    1    1    2    0    0 -0.42994660861E+01 -0.33803822686E+01 -0.43054723312E+02  0.43400709584E+02  0.00000000000E+00 0.  1.
         11    1    3    3    0    0  0.43671292591E+01  0.91582760697E+01  0.16121439243E+02  0.19048533856E+02  0.51100000000E-03 0.  1.
        -11    1    3    3    0    0  0.36774696305E+01 -0.41439365096E+01  0.19314482400E+02  0.20093412436E+02  0.51100000000E-03 0. -1.
        -12    1    3    3    0    0 -0.37451328035E+01 -0.16339572916E+01  0.76188016696E+01  0.86453441243E+01  0.00000000000E+00 0.  1.
</event>
<event>
 7    1  0.2740409E-010  0.4778727E+02  0.7816164E-02  0.1312668E+00
        -11   -1    0    0    0    0  0.00000000000E+00  0.00000000000E+00  0.45593999997E+02  0.45594000000E+02  0.51100000000E-03 0. -1.
         11   -1    0    0    0    0 -0.00000000000E+00 -0.00000000000E+00 -0.45593999997E+02  0.45594000000E+02  0.51100000000E-03 0.  1.
    9900012    2    1    2    0    0  0.65515101635E+00  0.42426546697E+02 -0.91204359149E+01  0.47787269145E+02  0.19999991338E+02 0.  0.
        -12    1    1    2    0    0 -0.65515101635E+00 -0.42426546697E+02  0.91204359149E+01  0.43400730855E+02  0.00000000000E+00 0.  1.
         11    1    3    3    0    0 -0.50943816021E+01  0.33940927951E+02 -0.55244967999E+01  0.34762902342E+02  0.51100000000E-03 0. -1.
        -11    1    3    3    0    0  0.73119981375E+01  0.74659881800E+01 -0.38595091350E+01  0.11140112535E+02  0.51100000000E-03 0.  1.
         12    1    3    3    0    0 -0.15624655191E+01  0.10196305662E+01  0.26357002010E+00  0.18842542677E+01  0.00000000000E+00 0. -1.
</event>
<event>
 7    1  0.2740409E-010  0.4778727E+02  0.7816164E-02  0.1312668E+00
        -11   -1    0    0    0    0  0.00000000000E+00  0.00000000000E+00  0.45593999997E+02  0.45594000000E+02  0.51100000000E-03 0.  1.
         11   -1    0    0    0    0 -0.00000000000E+00 -0.00000000000E+00 -0.45593999997E+02  0.45594000000E+02  0.51100000000E-03 0. -1.
    9900012    2    1    2    0    0 -0.31230808232E+02  0.28518428636E+02 -0.97446984574E+01  0.47787270712E+02  0.19999998483E+02 0.  0.
        -12    1    1    2    0    0  0.31230808232E+02 -0.28518428636E+02  0.97446984574E+01  0.43400729288E+02  0.00000000000E+00 0.  1.
         11    1    3    3    0    0 -0.20437968463E+02  0.26947932379E+02 -0.12908736357E+02  0.36201340983E+02  0.51100000000E-03 0. -1.
        -11    1    3    3    0    0 -0.29086274866E+01  0.12928900813E+01  0.31678811985E+00  0.31987550065E+01  0.51100000000E-03 0.  1.
         12    1    3    3    0    0 -0.78842122829E+01  0.27760617633E+00  0.28472497796E+01  0.83871747221E+01  0.00000000000E+00 0. -1.
</event>
<event>
 7    1  0.2740409E-010  0.4778727E+02  0.7816164E-02  0.1312668E+00
        -11   -1    0    0    0    0  0.00000000000E+00  0.00000000000E+00  0.45593999997E+02  0.45594000000E+02  0.51100000000E-03 0.  1.
         11   -1    0    0    0    0 -0.00000000000E+00 -0.00000000000E+00 -0.45593999997E+02  0.45594000000E+02  0.51100000000E-03 0. -1.
    9900012    2    1    2    0    0 -0.22756224460E+02  0.26749861419E+02 -0.25499460077E+02  0.47787270722E+02  0.19999998531E+02 0.  0.
        -12    1    1    2    0    0  0.22756224460E+02 -0.26749861419E+02  0.25499460077E+02  0.43400729278E+02  0.00000000000E+00 0.  1.
         11    1    3    3    0    0  0.95771974451E+00  0.12367278300E+02 -0.67709829789E+01  0.14131985368E+02  0.51100000000E-03 0. -1.
        -11    1    3    3    0    0 -0.16430276018E+02  0.11688952823E+02 -0.14245122881E+02  0.24688238379E+02  0.51100000000E-03 0.  1.
         12    1    3    3    0    0 -0.72836681861E+01  0.26936302957E+01 -0.44833542179E+01  0.89670469754E+01  0.00000000000E+00 0. -1.
</event>
<event>
 7    1  0.2740409E-010  0.4778727E+02  0.7816164E-02  0.1312668E+00
        -11   -1    0    0    0    0  0.00000000000E+00  0.00000000000E+00  0.45593999997E+02  0.45594000000E+02  0.51100000000E-03 0.  1.
         11   -1    0    0    0    0 -0.00000000000E+00 -0.00000000000E+00 -0.45593999997E+02  0.45594000000E+02  0.51100000000E-03 0. -1.
    9900012    2    1    2    0    0 -0.51370709501E+01  0.42862138647E+02 -0.44800481174E+01  0.47787271222E+02  0.20000000810E+02 0.  0.
        -12    1    1    2    0    0  0.51370709501E+01 -0.42862138647E+02  0.44800481174E+01  0.43400728778E+02  0.00000000000E+00 0.  1.
         11    1    3    3    0    0 -0.78455054575E+01  0.17468180427E+02 -0.23377087250E+01  0.19291297666E+02  0.51100000000E-03 0. -1.
        -11    1    3    3    0    0  0.38354876244E+01  0.24325918410E+01  0.22854157469E+01  0.50844462608E+01  0.51100000000E-03 0.  1.
        -12    1    3    3    0    0 -0.11270531170E+01  0.22961366379E+02 -0.44277551393E+01  0.23411527295E+02  0.00000000000E+00 0.  1.
</event>
<event>
 7    1  0.2740409E-010  0.4778727E+02  0.7816164E-02  0.1312668E+00
        -11   -1    0    0    0    0  0.00000000000E+00  0.00000000000E+00  0.45593999997E+02  0.45594000000E+02  0.51100000000E-03 0.  1.
         11   -1    0    0    0    0 -0.00000000000E+00 -0.00000000000E+00 -0.45593999997E+02  0.45594000000E+02  0.51100000000E-03 0. -1.
    9900012    2    1    2    0    0  0.59041749412E+01 -0.28691435070E+02 -0.32024455371E+02  0.47787268786E+02  0.19999989701E+02 0.  0.
        -12    1    1    2    0    0 -0.59041749412E+01  0.28691435070E+02  0.32024455371E+02  0.43400731214E+02  0.00000000000E+00 0.  1.
         11    1    3    3    0    0  0.63337832068E+01 -0.25318654005E+02 -0.21073271035E+02  0.33544504807E+02  0.51100000000E-03 0. -1.
        -11    1    3    3    0    0  0.31925903710E+01  0.86275795028E+00 -0.56746714542E+01  0.65680195594E+01  0.51100000000E-03 0.  1.
        -12    1    3    3    0    0 -0.36221986367E+01 -0.42355390150E+01 -0.52765128821E+01  0.76747444196E+01  0.00000000000E+00 0.  1.
</event>
<event>
 7    1  0.2740409E-010  0.4778727E+02  0.7816164E-02  0.1312668E+00
        -11   -1    0    0    0    0  0.00000000000E+00  0.00000000000E+00  0.45593999997E+02  0.45594000000E+02  0.51100000000E-03 0. -1.
         11   -1    0    0    0    0 -0.00000000000E+00 -0.00000000000E+00 -0.45593999997E+02  0.45594000000E+02  0.51100000000E-03 0.  1.
    9900012    2    1    2    0    0  0.37714837458E+02  0.12438251317E+02  0.17507264873E+02  0.47787269780E+02  0.19999994233E+02 0.  0.
        -12    1    1    2    0    0 -0.37714837458E+02 -0.12438251317E+02 -0.17507264873E+02  0.43400730220E+02  0.00000000000E+00 0.  1.
         11    1    3    3    0    0  0.12337341289E+02  0.76477851447E+01  0.61827386370E+01  0.15777352915E+02  0.51100000000E-03 0. -1.
        -11    1    3    3    0    0  0.12558237886E+02 -0.28010517321E+01 -0.66836769321E+00  0.12884174217E+02  0.51100000000E-03 0.  1.
        -12    1    3    3    0    0  0.12819258283E+02  0.75915179044E+01  0.11992893929E+02  0.19125742647E+02  0.00000000000E+00 0.  1.
</event>
<event>
 7    1  0.2740409E-010  0.4778727E+02  0.7816164E-02  0.1312668E+00
        -11   -1    0    0    0    0  0.00000000000E+00  0.00000000000E+00  0.45593999997E+02  0.45594000000E+02  0.51100000000E-03 0.  1.
         11   -1    0    0    0    0 -0.00000000000E+00 -0.00000000000E+00 -0.45593999997E+02  0.45594000000E+02  0.51100000000E-03 0. -1.
    9900012    2    1    2    0    0 -0.23477342015E+02 -0.31258776323E+02 -0.18850109799E+02  0.47787270458E+02  0.19999997327E+02 0.  0.
        -12    1    1    2    0    0  0.23477342015E+02  0.31258776323E+02  0.18850109799E+02  0.43400729542E+02  0.00000000000E+00 0.  1.
         11    1    3    3    0    0 -0.62215244108E+01 -0.15069737921E+02 -0.43773928718E+01  0.16880934086E+02  0.51100000000E-03 0. -1.
        -11    1    3    3    0    0 -0.89044069323E+01 -0.33312258182E+01  0.44100783726E+00  0.95173534369E+01  0.51100000000E-03 0.  1.
        -12    1    3    3    0    0 -0.83514106718E+01 -0.12857812584E+02 -0.14913724765E+02  0.21388982935E+02  0.00000000000E+00 0.  1.
</event>
<event>
 7    1  0.2740409E-010  0.4778727E+02  0.7816164E-02  0.1312668E+00
        -11   -1    0    0    0    0  0.00000000000E+00  0.00000000000E+00  0.45593999997E+02  0.45594000000E+02  0.51100000000E-03 0. -1.
         11   -1    0    0    0    0 -0.00000000000E+00 -0.00000000000E+00 -0.45593999997E+02  0.45594000000E+02  0.51100000000E-03 0.  1.
    9900012    2    1    2    0    0  0.29318001849E+02 -0.26471386691E+02  0.17981762138E+02  0.47787270566E+02  0.19999997820E+02 0.  0.
        -12    1    1    2    0    0 -0.29318001849E+02  0.26471386691E+02 -0.17981762138E+02  0.43400729434E+02  0.00000000000E+00 0.  1.
         11    1    3    3    0    0  0.17738703761E+02 -0.10970044058E+02  0.72392748728E+01  0.22077377079E+02  0.51100000000E-03 0. -1.
        -11    1    3    3    0    0  0.71756169337E+00 -0.87671245152E+01  0.93771409794E+01  0.12857221327E+02  0.51100000000E-03 0.  1.
        -12    1    3    3    0    0  0.10861736394E+02 -0.67342181186E+01  0.13653462859E+01  0.12852672160E+02  0.00000000000E+00 0.  1.
</event>
<event>
 7    1  0.2740409E-010  0.4778729E+02  0.7816164E-02  0.1312668E+00
        -11   -1    0    0    0    0  0.00000000000E+00  0.00000000000E+00  0.45593999997E+02  0.45594000000E+02  0.51100000000E-03 0.  1.
         11   -1    0    0    0    0 -0.00000000000E+00 -0.00000000000E+00 -0.45593999997E+02  0.45594000000E+02  0.51100000000E-03 0. -1.
    9900012    2    1    2    0    0  0.23646082540E+02  0.17139596773E+02 -0.32104802697E+02  0.47787293171E+02  0.20000100885E+02 0.  0.
        -12    1    1    2    0    0 -0.23646082540E+02 -0.17139596773E+02  0.32104802697E+02  0.43400706829E+02  0.00000000000E+00 0.  1.
         11    1    3    3    0    0  0.47220386737E+01  0.40243459964E+01 -0.17761085968E+02  0.18813537279E+02  0.51100000000E-03 0. -1.
        -11    1    3    3    0    0  0.12549202738E+02  0.96013853622E+01 -0.39544774716E+01  0.16288246762E+02  0.51100000000E-03 0.  1.
        -12    1    3    3    0    0  0.63748411286E+01  0.35138654144E+01 -0.10389239257E+02  0.12685509131E+02  0.00000000000E+00 0.  1.
</event>
<event>
 7    1  0.2740409E-010  0.4778727E+02  0.7816164E-02  0.1312668E+00
        -11   -1    0    0    0    0  0.00000000000E+00  0.00000000000E+00  0.45593999997E+02  0.45594000000E+02  0.51100000000E-03 0.  1.
         11   -1    0    0    0    0 -0.00000000000E+00 -0.00000000000E+00 -0.45593999997E+02  0.45594000000E+02  0.51100000000E-03 0. -1.
    9900012    2    1    2    0    0  0.11524798521E+02 -0.16507234906E+02 -0.38448838150E+02  0.47787274888E+02  0.20000017524E+02 0.  0.
        -12    1    1    2    0    0 -0.11524798521E+02  0.16507234906E+02  0.38448838150E+02  0.43400725112E+02  0.00000000000E+00 0.  1.
         11    1    3    3    0    0  0.31071792749E+01 -0.21948847551E+01 -0.18199384219E+02  0.18592731600E+02  0.51100000000E-03 0.  1.
        -11    1    3    3    0    0  0.75739884656E+01 -0.31637756522E+01 -0.32079741252E+01  0.88128245134E+01  0.51100000000E-03 0. -1.
        -12    1    3    3    0    0  0.84363078008E+00 -0.11148574499E+02 -0.17041479806E+02  0.20381718775E+02  0.00000000000E+00 0.  1.
</event>
<event>
 7    1  0.2740409E-010  0.4778727E+02  0.7816164E-02  0.1312668E+00
        -11   -1    0    0    0    0  0.00000000000E+00  0.00000000000E+00  0.45593999997E+02  0.45594000000E+02  0.51100000000E-03 0. -1.
         11   -1    0    0    0    0 -0.00000000000E+00 -0.00000000000E+00 -0.45593999997E+02  0.45594000000E+02  0.51100000000E-03 0.  1.
    9900012    2    1    2    0    0  0.21727243385E+02 -0.34895998939E+02  0.13921897042E+02  0.47787273459E+02  0.20000011007E+02 0.  0.
        -12    1    1    2    0    0 -0.21727243385E+02  0.34895998939E+02 -0.13921897042E+02  0.43400726541E+02  0.00000000000E+00 0.  1.
         11    1    3    3    0    0  0.66955998423E+01 -0.95969791966E+01  0.35008753126E+01  0.12214302893E+02  0.51100000000E-03 0. -1.
        -11    1    3    3    0    0  0.39484309819E+01 -0.20087836684E+02  0.11135888284E+02  0.23304920039E+02  0.51100000000E-03 0.  1.
        -12    1    3    3    0    0  0.11083212561E+02 -0.52111830585E+01 -0.71486655507E+00  0.12268050527E+02  0.00000000000E+00 0.  1.
</event>
<event>
 7    1  0.2740409E-010  0.4778728E+02  0.7816164E-02  0.1312668E+00
        -11   -1    0    0    0    0  0.00000000000E+00  0.00000000000E+00  0.45593999997E+02  0.45594000000E+02  0.51100000000E-03 0.  1.
         11   -1    0    0    0    0 -0.00000000000E+00 -0.00000000000E+00 -0.45593999997E+02  0.45594000000E+02  0.51100000000E-03 0. -1.
    9900012    2    1    2    0    0  0.32379976753E+02  0.24773766258E+02 -0.14880205580E+02  0.47787275268E+02  0.20000019258E+02 0.  0.
        -12    1    1    2    0    0 -0.32379976753E+02 -0.24773766258E+02  0.14880205580E+02  0.43400724732E+02  0.00000000000E+00 0.  1.
         11    1    3    3    0    0  0.19333821598E+02  0.83258194685E+01 -0.23856208392E+01  0.21185068196E+02  0.51100000000E-03 0. -1.
        -11    1    3    3    0    0  0.11026612606E+02  0.14764828942E+02 -0.14373716424E+02  0.23370709945E+02  0.51100000000E-03 0.  1.
        -12    1    3    3    0    0  0.20195425493E+01  0.16831178481E+01  0.18791316836E+01  0.32314971272E+01  0.00000000000E+00 0.  1.
</event>
<event>
 7    1  0.2740409E-010  0.4778727E+02  0.7816164E-02  0.1312668E+00
        -11   -1    0    0    0    0  0.00000000000E+00  0.00000000000E+00  0.45593999997E+02  0.45594000000E+02  0.51100000000E-03 0.  1.
         11   -1    0    0    0    0 -0.00000000000E+00 -0.00000000000E+00 -0.45593999997E+02  0.45594000000E+02  0.51100000000E-03 0. -1.
    9900012    2    1    2    0    0 -0.50566623512E+01 -0.25897540408E+02 -0.34458251561E+02  0.47787268048E+02  0.19999986340E+02 0.  0.
        -12    1    1    2    0    0  0.50566623512E+01  0.25897540408E+02  0.34458251561E+02  0.43400731952E+02  0.00000000000E+00 0.  1.
         11    1    3    3    0    0 -0.25083499079E+01 -0.22830918414E+02 -0.24849431346E+02  0.33838393776E+02  0.51100000000E-03 0. -1.
        -11    1    3    3    0    0  0.67827090001E+00 -0.28887140105E+01  0.78082041181E+00  0.30682895601E+01  0.51100000000E-03 0.  1.
         12    1    3    3    0    0 -0.32265833432E+01 -0.17790798344E+00 -0.10389640627E+02  0.10880584712E+02  0.00000000000E+00 0. -1.
</event>
<event>
 7    1  0.2740409E-010  0.4778727E+02  0.7816164E-02  0.1312668E+00
        -11   -1    0    0    0    0  0.00000000000E+00  0.00000000000E+00  0.45593999997E+02  0.45594000000E+02  0.51100000000E-03 0. -1.
         11   -1    0    0    0    0 -0.00000000000E+00 -0.00000000000E+00 -0.45593999997E+02  0.45594000000E+02  0.51100000000E-03 0.  1.
    9900012    2    1    2    0    0  0.27181486473E+02  0.20697906634E+02  0.26765395442E+02  0.47787274901E+02  0.20000017586E+02 0.  0.
        -12    1    1    2    0    0 -0.27181486473E+02 -0.20697906634E+02 -0.26765395442E+02  0.43400725099E+02  0.00000000000E+00 0.  1.
         11    1    3    3    0    0  0.90659314773E+01  0.12877647973E+02  0.72297162907E+01  0.17328985221E+02  0.51100000000E-03 0. -1.
        -11    1    3    3    0    0  0.17293614000E+01 -0.15883385665E+01  0.79602151473E+01  0.82993093511E+01  0.51100000000E-03 0.  1.
         12    1    3    3    0    0  0.16386193596E+02  0.94085972271E+01  0.11575464004E+02  0.22158980330E+02  0.00000000000E+00 0. -1.
</event>
<event>
 7    1  0.2740409E-010  0.4778728E+02  0.7816164E-02  0.1312668E+00
        -11   -1    0    0    0    0  0.00000000000E+00  0.00000000000E+00  0.45593999997E+02  0.45594000000E+02  0.51100000000E-03 0.  1.
         11   -1    0    0    0    0 -0.00000000000E+00 -0.00000000000E+00 -0.45593999997E+02  0.45594000000E+02  0.51100000000E-03 0. -1.
    9900012    2    1    2    0    0 -0.21184379482E+02 -0.12702543127E+02 -0.35685995960E+02  0.47787276002E+02  0.20000022602E+02 0.  0.
        -12    1    1    2    0    0  0.21184379482E+02  0.12702543127E+02  0.35685995960E+02  0.43400723998E+02  0.00000000000E+00 0.  1.
         11    1    3    3    0    0 -0.18028735793E+02 -0.97429022597E+01 -0.31797437313E+02  0.37829042793E+02  0.51100000000E-03 0. -1.
        -11    1    3    3    0    0  0.20629911765E+01  0.10892522489E+01 -0.20407082124E+01  0.30994988829E+01  0.51100000000E-03 0.  1.
         12    1    3    3    0    0 -0.52186348647E+01 -0.40488931157E+01 -0.18478504354E+01  0.68587343253E+01  0.00000000000E+00 0. -1.
</event>
<event>
 7    1  0.2740409E-010  0.4778727E+02  0.7816164E-02  0.1312668E+00
        -11   -1    0    0    0    0  0.00000000000E+00  0.00000000000E+00  0.45593999997E+02  0.45594000000E+02  0.51100000000E-03 0.  1.
         11   -1    0    0    0    0 -0.00000000000E+00 -0.00000000000E+00 -0.45593999997E+02  0.45594000000E+02  0.51100000000E-03 0. -1.
    9900012    2    1    2    0    0  0.25354692208E+02 -0.10724309592E+02 -0.33552224524E+02  0.47787274157E+02  0.20000014192E+02 0.  0.
        -12    1    1    2    0    0 -0.25354692208E+02  0.10724309592E+02  0.33552224524E+02  0.43400725843E+02  0.00000000000E+00 0.  1.
         11    1    3    3    0    0  0.45395948932E+01  0.37521827651E+01 -0.11897471564E+02  0.13275414388E+02  0.51100000000E-03 0. -1.
        -11    1    3    3    0    0  0.20248530210E+02 -0.10612006812E+02 -0.17348949599E+02  0.28698496767E+02  0.51100000000E-03 0.  1.
         12    1    3    3    0    0  0.56656710498E+00 -0.38644855454E+01 -0.43058033615E+01  0.58133630029E+01  0.00000000000E+00 0. -1.
</event>
<event>
 7    1  0.2740409E-010  0.4778727E+02  0.7816164E-02  0.1312668E+00
        -11   -1    0    0    0    0  0.00000000000E+00  0.00000000000E+00  0.45593999997E+02  0.45594000000E+02  0.51100000000E-03 0. -1.
         11   -1    0    0    0    0 -0.00000000000E+00 -0.00000000000E+00 -0.45593999997E+02  0.45594000000E+02  0.51100000000E-03 0.  1.
    9900012    2    1    2    0    0  0.37540766360E+02  0.16423553167E+02  0.14303185163E+02  0.47787270245E+02  0.19999996353E+02 0.  0.
        -12    1    1    2    0    0 -0.37540766360E+02 -0.16423553167E+02 -0.14303185163E+02  0.43400729755E+02  0.00000000000E+00 0.  1.
         11    1    3    3    0    0  0.21570608038E+02  0.15622885186E+02  0.33681835158E+01  0.26846048743E+02  0.51100000000E-03 0. -1.
        -11    1    3    3    0    0  0.83338164365E+01 -0.42722648154E-01  0.10171736035E+01  0.83957706033E+01  0.51100000000E-03 0.  1.
         12    1    3    3    0    0  0.76363418851E+01  0.84339062883E+00  0.99178280433E+01  0.12545450898E+02  0.00000000000E+00 0. -1.
</event>
<event>
 7    1  0.2740409E-010  0.4778727E+02  0.7816164E-02  0.1312668E+00
        -11   -1    0    0    0    0  0.00000000000E+00  0.00000000000E+00  0.45593999997E+02  0.45594000000E+02  0.51100000000E-03 0.  1.
         11   -1    0    0    0    0 -0.00000000000E+00 -0.00000000000E+00 -0.45593999997E+02  0.45594000000E+02  0.51100000000E-03 0. -1.
    9900012    2    1    2    0    0  0.34678510221E+02 -0.14490849903E+02 -0.21703450775E+02  0.47787267545E+02  0.19999984047E+02 0.  0.
        -12    1    1    2    0    0 -0.34678510221E+02  0.14490849903E+02  0.21703450775E+02  0.43400732455E+02  0.00000000000E+00 0.  1.
         11    1    3    3    0    0  0.14761509998E+02 -0.15687370726E+02 -0.14507847602E+02  0.25970626100E+02  0.51100000000E-03 0. -1.
        -11    1    3    3    0    0  0.17181850466E+02  0.55058346255E+00 -0.79004661532E+01  0.18919209636E+02  0.51100000000E-03 0.  1.
         12    1    3    3    0    0  0.27351497570E+01  0.64593736001E+00  0.70486298040E+00  0.28974318089E+01  0.00000000000E+00 0. -1.
</event>
<event>
 7    1  0.2947019E-010  0.4778727E+02  0.7816164E-02  0.1312668E+00
        -11   -1    0    0    0    0  0.00000000000E+00  0.00000000000E+00  0.45593999997E+02  0.45594000000E+02  0.51100000000E-03 0. -1.
         11   -1    0    0    0    0 -0.00000000000E+00 -0.00000000000E+00 -0.45593999997E+02  0.45594000000E+02  0.51100000000E-03 0.  1.
    9900012    2    1    2    0    0  0.35272752627E+02 -0.28604879027E+01  0.25125162411E+02  0.47787271261E+02  0.20000000988E+02 0.  0.
        -12    1    1    2    0    0 -0.35272752627E+02  0.28604879027E+01 -0.25125162411E+02  0.43400728739E+02  0.00000000000E+00 0.  1.
         11    1    3    3    0    0  0.27250385733E+02  0.39095267673E+01  0.16275292327E+02  0.31980510670E+02  0.51100000000E-03 0. -1.
        -11    1    3    3    0    0  0.23525666302E+01 -0.29814683796E+01 -0.90555247632E+00  0.39043243970E+01  0.51100000000E-03 0.  1.
         12    1    3    3    0    0  0.56698002636E+01 -0.37885462904E+01  0.97554225606E+01  0.11902436194E+02  0.00000000000E+00 0. -1.
</event>
<event>
 7    1  0.2740409E-010  0.4778727E+02  0.7816164E-02  0.1312668E+00
        -11   -1    0    0    0    0  0.00000000000E+00  0.00000000000E+00  0.45593999997E+02  0.45594000000E+02  0.51100000000E-03 0.  1.
         11   -1    0    0    0    0 -0.00000000000E+00 -0.00000000000E+00 -0.45593999997E+02  0.45594000000E+02  0.51100000000E-03 0. -1.
    9900012    2    1    2    0    0  0.65145887449E+01 -0.23216349983E+02 -0.36085792049E+02  0.47787272347E+02  0.20000005939E+02 0.  0.
        -12    1    1    2    0    0 -0.65145887449E+01  0.23216349983E+02  0.36085792049E+02  0.43400727653E+02  0.00000000000E+00 0.  1.
         11    1    3    3    0    0 -0.38538681301E-01 -0.17803636217E+02 -0.27710100079E+02  0.32936614800E+02  0.51100000000E-03 0. -1.
        -11    1    3    3    0    0 -0.12683282580E+01 -0.16678101796E+01 -0.52161276682E+01  0.56212307796E+01  0.51100000000E-03 0.  1.
         12    1    3    3    0    0  0.78214556842E+01 -0.37449035856E+01 -0.31595643010E+01  0.92294267676E+01  0.00000000000E+00 0. -1.
</event>
<event>
 7    1  0.2740409E-010  0.4778727E+02  0.7816164E-02  0.1312668E+00
        -11   -1    0    0    0    0  0.00000000000E+00  0.00000000000E+00  0.45593999997E+02  0.45594000000E+02  0.51100000000E-03 0.  1.
         11   -1    0    0    0    0 -0.00000000000E+00 -0.00000000000E+00 -0.45593999997E+02  0.45594000000E+02  0.51100000000E-03 0. -1.
    9900012    2    1    2    0    0 -0.25911786230E+02 -0.29664248287E+02 -0.18227315833E+02  0.47787270345E+02  0.19999996813E+02 0.  0.
        -12    1    1    2    0    0  0.25911786230E+02  0.29664248287E+02  0.18227315833E+02  0.43400729655E+02  0.00000000000E+00 0.  1.
         11    1    3    3    0    0 -0.43814172730E+01 -0.16732619822E+02 -0.14844338817E+01  0.17360326254E+02  0.51100000000E-03 0. -1.
        -11    1    3    3    0    0 -0.19737655458E+02 -0.12550644536E+02 -0.16389004563E+02  0.28560342997E+02  0.51100000000E-03 0.  1.
        -12    1    3    3    0    0 -0.17927134987E+01 -0.38098392906E+00 -0.35387738894E+00  0.18666010954E+01  0.00000000000E+00 0.  1.
</event>
<event>
 7    1  0.2740409E-010  0.4778727E+02  0.7816164E-02  0.1312668E+00
        -11   -1    0    0    0    0  0.00000000000E+00  0.00000000000E+00  0.45593999997E+02  0.45594000000E+02  0.51100000000E-03 0.  1.
         11   -1    0    0    0    0 -0.00000000000E+00 -0.00000000000E+00 -0.45593999997E+02  0.45594000000E+02  0.51100000000E-03 0. -1.
    9900012    2    1    2    0    0 -0.35914521311E+01  0.42780925915E+02  0.63652958688E+01  0.47787272564E+02  0.20000006926E+02 0.  0.
        -12    1    1    2    0    0  0.35914521311E+01 -0.42780925915E+02 -0.63652958688E+01  0.43400727436E+02  0.00000000000E+00 0.  1.
         11    1    3    3    0    0  0.77280214540E+01  0.18180563583E+02  0.20580615131E+01  0.19861793102E+02  0.51100000000E-03 0.  1.
        -11    1    3    3    0    0 -0.50402980775E+01  0.91569192676E+01 -0.81760071071E+00  0.10484381067E+02  0.51100000000E-03 0. -1.
         12    1    3    3    0    0 -0.62791755076E+01  0.15443443064E+02  0.51248350665E+01  0.17441098394E+02  0.00000000000E+00 0. -1.
</event>
<event>
 7    1  0.2740409E-010  0.4778725E+02  0.7816164E-02  0.1312668E+00
        -11   -1    0    0    0    0  0.00000000000E+00  0.00000000000E+00  0.45593999997E+02  0.45594000000E+02  0.51100000000E-03 0.  1.
         11   -1    0    0    0    0 -0.00000000000E+00 -0.00000000000E+00 -0.45593999997E+02  0.45594000000E+02  0.51100000000E-03 0. -1.
    9900012    2    1    2    0    0 -0.13611885347E+02 -0.36589915643E+02 -0.18961003372E+02  0.47787251178E+02  0.19999909420E+02 0.  0.
        -12    1    1    2    0    0  0.13611885347E+02  0.36589915643E+02  0.18961003372E+02  0.43400748822E+02  0.00000000000E+00 0.  1.
         11    1    3    3    0    0 -0.62015059541E+01 -0.42601118354E+01  0.14890704897E+01  0.76697170830E+01  0.51100000000E-03 0. -1.
        -11    1    3    3    0    0 -0.23119294411E+01 -0.23777444556E+01  0.29249367716E+00  0.33293001140E+01  0.51100000000E-03 0.  1.
         12    1    3    3    0    0 -0.50984499522E+01 -0.29952059352E+02 -0.20742567538E+02  0.36788233981E+02  0.00000000000E+00 0. -1.
</event>
<event>
 7    1  0.2740409E-010  0.4778728E+02  0.7816164E-02  0.1312668E+00
        -11   -1    0    0    0    0  0.00000000000E+00  0.00000000000E+00  0.45593999997E+02  0.45594000000E+02  0.51100000000E-03 0. -1.
         11   -1    0    0    0    0 -0.00000000000E+00 -0.00000000000E+00 -0.45593999997E+02  0.45594000000E+02  0.51100000000E-03 0.  1.
    9900012    2    1    2    0    0  0.95748386324E+01 -0.15978757331E+02  0.39199801166E+02  0.47787278438E+02  0.20000033708E+02 0.  0.
        -12    1    1    2    0    0 -0.95748386324E+01  0.15978757331E+02 -0.39199801166E+02  0.43400721562E+02  0.00000000000E+00 0.  1.
         11    1    3    3    0    0  0.12923601415E+01 -0.10173562914E+02  0.13503093101E+02  0.16955975367E+02  0.51100000000E-03 0. -1.
        -11    1    3    3    0    0  0.24857412748E+01  0.24730310733E+01  0.32555106526E+00  0.35214735739E+01  0.51100000000E-03 0.  1.
        -12    1    3    3    0    0  0.57967372161E+01 -0.82782254910E+01  0.25371156999E+02  0.27309829496E+02  0.00000000000E+00 0.  1.
</event>
<event>
 7    1  0.2740409E-010  0.4778727E+02  0.7816164E-02  0.1312668E+00
        -11   -1    0    0    0    0  0.00000000000E+00  0.00000000000E+00  0.45593999997E+02  0.45594000000E+02  0.51100000000E-03 0.  1.
         11   -1    0    0    0    0 -0.00000000000E+00 -0.00000000000E+00 -0.45593999997E+02  0.45594000000E+02  0.51100000000E-03 0. -1.
    9900012    2    1    2    0    0  0.98758098348E+01 -0.39677641286E+02 -0.14552545274E+02  0.47787269455E+02  0.19999992753E+02 0.  0.
        -12    1    1    2    0    0 -0.98758098348E+01  0.39677641286E+02  0.14552545274E+02  0.43400730545E+02  0.00000000000E+00 0.  1.
         11    1    3    3    0    0 -0.23410533334E+01 -0.96028830627E+01 -0.62391237280E+01  0.11688565309E+02  0.51100000000E-03 0. -1.
        -11    1    3    3    0    0  0.11746772806E+02 -0.29616475319E+02 -0.10710732983E+02  0.33613123672E+02  0.51100000000E-03 0.  1.
        -12    1    3    3    0    0  0.47009036238E+00 -0.45828290419E+00  0.23973114370E+01  0.24855804745E+01  0.00000000000E+00 0.  1.
</event>
<event>
 7    1  0.2740409E-010  0.4778727E+02  0.7816164E-02  0.1312668E+00
        -11   -1    0    0    0    0  0.00000000000E+00  0.00000000000E+00  0.45593999997E+02  0.45594000000E+02  0.51100000000E-03 0. -1.
         11   -1    0    0    0    0 -0.00000000000E+00 -0.00000000000E+00 -0.45593999997E+02  0.45594000000E+02  0.51100000000E-03 0.  1.
    9900012    2    1    2    0    0 -0.21897038798E+02  0.35874152426E+02  0.10825352894E+02  0.47787269756E+02  0.19999994127E+02 0.  0.
        -12    1    1    2    0    0  0.21897038798E+02 -0.35874152426E+02 -0.10825352894E+02  0.43400730244E+02  0.00000000000E+00 0.  1.
         11    1    3    3    0    0 -0.22010560096E+02  0.20634052209E+02  0.64795051085E+01  0.30857946352E+02  0.51100000000E-03 0.  1.
        -11    1    3    3    0    0  0.17698260342E+01  0.97273048953E+01  0.50983406517E+01  0.11124109959E+02  0.51100000000E-03 0. -1.
         12    1    3    3    0    0 -0.16563047357E+01  0.55127953218E+01 -0.75249286649E+00  0.58052134458E+01  0.00000000000E+00 0. -1.
</event>
<event>
 7    1  0.2740409E-010  0.4778727E+02  0.7816164E-02  0.1312668E+00
        -11   -1    0    0    0    0  0.00000000000E+00  0.00000000000E+00  0.45593999997E+02  0.45594000000E+02  0.51100000000E-03 0.  1.
         11   -1    0    0    0    0 -0.00000000000E+00 -0.00000000000E+00 -0.45593999997E+02  0.45594000000E+02  0.51100000000E-03 0. -1.
    9900012    2    1    2    0    0  0.11885618435E+02  0.36540872480E+02 -0.20177213720E+02  0.47787271427E+02  0.20000001745E+02 0.  0.
        -12    1    1    2    0    0 -0.11885618435E+02 -0.36540872480E+02  0.20177213720E+02  0.43400728573E+02  0.00000000000E+00 0.  1.
         11    1    3    3    0    0 -0.15981907550E+01  0.56608622737E+01 -0.97961275629E+01  0.11426446992E+02  0.51100000000E-03 0. -1.
        -11    1    3    3    0    0  0.30819484303E+01  0.10653658577E+01 -0.12207624157E+01  0.34819063277E+01  0.51100000000E-03 0.  1.
         12    1    3    3    0    0  0.10401860760E+02  0.29814644348E+02 -0.91603237414E+01  0.32878918107E+02  0.00000000000E+00 0. -1.
</event>
<event>
 7    1  0.2740409E-010  0.4778727E+02  0.7816164E-02  0.1312668E+00
        -11   -1    0    0    0    0  0.00000000000E+00  0.00000000000E+00  0.45593999997E+02  0.45594000000E+02  0.51100000000E-03 0. -1.
         11   -1    0    0    0    0 -0.00000000000E+00 -0.00000000000E+00 -0.45593999997E+02  0.45594000000E+02  0.51100000000E-03 0.  1.
    9900012    2    1    2    0    0 -0.27389709002E+02  0.33616627497E+02  0.18301783578E+01  0.47787270094E+02  0.19999995668E+02 0.  0.
        -12    1    1    2    0    0  0.27389709002E+02 -0.33616627497E+02 -0.18301783578E+01  0.43400729906E+02  0.00000000000E+00 0.  1.
         11    1    3    3    0    0 -0.93751767174E+01  0.23705486069E+02  0.33665293048E+01  0.25713372554E+02  0.51100000000E-03 0. -1.
        -11    1    3    3    0    0 -0.10454220712E+02  0.53511343732E+01 -0.47636458259E+01  0.12673503525E+02  0.51100000000E-03 0.  1.
         12    1    3    3    0    0 -0.75603115723E+01  0.45600070548E+01  0.32272948789E+01  0.94003940154E+01  0.00000000000E+00 0. -1.
</event>
<event>
 7    1  0.2740409E-010  0.4778727E+02  0.7816164E-02  0.1312668E+00
        -11   -1    0    0    0    0  0.00000000000E+00  0.00000000000E+00  0.45593999997E+02  0.45594000000E+02  0.51100000000E-03 0.  1.
         11   -1    0    0    0    0 -0.00000000000E+00 -0.00000000000E+00 -0.45593999997E+02  0.45594000000E+02  0.51100000000E-03 0. -1.
    9900012    2    1    2    0    0  0.30439906927E+02  0.23537709155E+02 -0.20075147049E+02  0.47787271723E+02  0.20000003093E+02 0.  0.
        -12    1    1    2    0    0 -0.30439906927E+02 -0.23537709155E+02  0.20075147049E+02  0.43400728277E+02  0.00000000000E+00 0.  1.
         11    1    3    3    0    0  0.75966083259E+00  0.85799258174E+01 -0.41174367631E+01  0.95470151027E+01  0.51100000000E-03 0. -1.
        -11    1    3    3    0    0  0.29159613835E+01  0.38037933688E+01  0.63191844809E+00  0.48343557967E+01  0.51100000000E-03 0.  1.
         12    1    3    3    0    0  0.26764284710E+02  0.11153989969E+02 -0.16589628734E+02  0.33405900823E+02  0.00000000000E+00 0. -1.
</event>
<event>
 7    1  0.2740409E-010  0.4778730E+02  0.7816164E-02  0.1312668E+00
        -11   -1    0    0    0    0  0.00000000000E+00  0.00000000000E+00  0.45593999997E+02  0.45594000000E+02  0.51100000000E-03 0. -1.
         11   -1    0    0    0    0 -0.00000000000E+00 -0.00000000000E+00 -0.45593999997E+02  0.45594000000E+02  0.51100000000E-03 0.  1.
    9900012    2    1    2    0    0  0.25626145076E+02  0.61585003213E-01  0.35027383594E+02  0.47787300633E+02  0.20000134904E+02 0.  0.
        -12    1    1    2    0    0 -0.25626145076E+02 -0.61585003213E-01 -0.35027383594E+02  0.43400699367E+02  0.00000000000E+00 0.  1.
         11    1    3    3    0    0  0.14595083228E+02 -0.67031108205E+01  0.16924339399E+02  0.23331982631E+02  0.51100000000E-03 0. -1.
        -11    1    3    3    0    0  0.90505315887E+00  0.45189529727E+01  0.14409901470E+01  0.48287172267E+01  0.51100000000E-03 0.  1.
        -12    1    3    3    0    0  0.10126008689E+02  0.22457428510E+01  0.16662054047E+02  0.19626600775E+02  0.00000000000E+00 0.  1.
</event>
<event>
 7    1  0.2740409E-010  0.4778727E+02  0.7816164E-02  0.1312668E+00
        -11   -1    0    0    0    0  0.00000000000E+00  0.00000000000E+00  0.45593999997E+02  0.45594000000E+02  0.51100000000E-03 0.  1.
         11   -1    0    0    0    0 -0.00000000000E+00 -0.00000000000E+00 -0.45593999997E+02  0.45594000000E+02  0.51100000000E-03 0. -1.
    9900012    2    1    2    0    0 -0.26627092240E+02 -0.34016399833E+02 -0.41839705793E+01  0.47787272949E+02  0.20000008684E+02 0.  0.
        -12    1    1    2    0    0  0.26627092240E+02  0.34016399833E+02  0.41839705793E+01  0.43400727051E+02  0.00000000000E+00 0.  1.
         11    1    3    3    0    0 -0.15532823111E+02 -0.24057747889E+02 -0.10777887578E+02  0.30597494803E+02  0.51100000000E-03 0. -1.
        -11    1    3    3    0    0 -0.10386623028E+02 -0.64013158804E+01  0.45162616760E+01  0.13009819473E+02  0.51100000000E-03 0.  1.
         12    1    3    3    0    0 -0.70764610095E+00 -0.35573360633E+01  0.20776553228E+01  0.41799586734E+01  0.00000000000E+00 0. -1.
</event>
<event>
 7    1  0.2740409E-010  0.4778728E+02  0.7816164E-02  0.1312668E+00
        -11   -1    0    0    0    0  0.00000000000E+00  0.00000000000E+00  0.45593999997E+02  0.45594000000E+02  0.51100000000E-03 0.  1.
         11   -1    0    0    0    0 -0.00000000000E+00 -0.00000000000E+00 -0.45593999997E+02  0.45594000000E+02  0.51100000000E-03 0. -1.
    9900012    2    1    2    0    0 -0.32459813825E+02 -0.27632227194E+02 -0.81512389798E+01  0.47787283530E+02  0.20000056925E+02 0.  0.
        -12    1    1    2    0    0  0.32459813825E+02  0.27632227194E+02  0.81512389798E+01  0.43400716470E+02  0.00000000000E+00 0.  1.
         11    1    3    3    0    0 -0.57774274675E+00  0.14276931937E+01 -0.11484998730E+01  0.19212357367E+01  0.51100000000E-03 0.  1.
        -11    1    3    3    0    0 -0.14012625283E+02 -0.21861398695E+02 -0.54981645108E+01  0.26542498629E+02  0.51100000000E-03 0. -1.
        -12    1    3    3    0    0 -0.17869445795E+02 -0.71985216926E+01 -0.15045745960E+01  0.19323549164E+02  0.00000000000E+00 0.  1.
</event>
<event>
 7    1  0.2740409E-010  0.4778728E+02  0.7816164E-02  0.1312668E+00
        -11   -1    0    0    0    0  0.00000000000E+00  0.00000000000E+00  0.45593999997E+02  0.45594000000E+02  0.51100000000E-03 0. -1.
         11   -1    0    0    0    0 -0.00000000000E+00 -0.00000000000E+00 -0.45593999997E+02  0.45594000000E+02  0.51100000000E-03 0.  1.
    9900012    2    1    2    0    0 -0.30325221462E+02 -0.15323057316E+02  0.27003838762E+02  0.47787280535E+02  0.20000043269E+02 0.  0.
        -12    1    1    2    0    0  0.30325221462E+02  0.15323057316E+02 -0.27003838762E+02  0.43400719465E+02  0.00000000000E+00 0.  1.
         11    1    3    3    0    0 -0.22837542913E+02 -0.52206667439E+01  0.21265617488E+02  0.31639140554E+02  0.51100000000E-03 0. -1.
        -11    1    3    3    0    0 -0.47942110547E+01 -0.78931479061E+01  0.78102554058E+01  0.12094888725E+02  0.51100000000E-03 0.  1.
         12    1    3    3    0    0 -0.26934674943E+01 -0.22092426659E+01 -0.20720341319E+01  0.40532512559E+01  0.00000000000E+00 0. -1.
</event>
<event>
 7    1  0.2740409E-010  0.4778727E+02  0.7816164E-02  0.1312668E+00
        -11   -1    0    0    0    0  0.00000000000E+00  0.00000000000E+00  0.45593999997E+02  0.45594000000E+02  0.51100000000E-03 0. -1.
         11   -1    0    0    0    0 -0.00000000000E+00 -0.00000000000E+00 -0.45593999997E+02  0.45594000000E+02  0.51100000000E-03 0.  1.
    9900012    2    1    2    0    0 -0.20269209443E+02 -0.36863146137E+02  0.10671965882E+02  0.47787271315E+02  0.20000001235E+02 0.  0.
        -12    1    1    2    0    0  0.20269209443E+02  0.36863146137E+02 -0.10671965882E+02  0.43400728685E+02  0.00000000000E+00 0.  1.
         11    1    3    3    0    0 -0.52314563788E+00 -0.18810329099E+02  0.66756597101E+01  0.19966637048E+02  0.51100000000E-03 0. -1.
        -11    1    3    3    0    0 -0.12164927716E+02 -0.11818528937E+02 -0.62432956489E+00  0.16972120676E+02  0.51100000000E-03 0.  1.
         12    1    3    3    0    0 -0.75811360895E+01 -0.62342881003E+01  0.46206357370E+01  0.10848513591E+02  0.00000000000E+00 0. -1.
</event>
<event>
 7    1  0.2740409E-010  0.4778727E+02  0.7816164E-02  0.1312668E+00
        -11   -1    0    0    0    0  0.00000000000E+00  0.00000000000E+00  0.45593999997E+02  0.45594000000E+02  0.51100000000E-03 0.  1.
         11   -1    0    0    0    0 -0.00000000000E+00 -0.00000000000E+00 -0.45593999997E+02  0.45594000000E+02  0.51100000000E-03 0. -1.
    9900012    2    1    2    0    0 -0.11354277717E+02 -0.14535436991E+02 -0.39286445503E+02  0.47787270153E+02  0.19999995934E+02 0.  0.
        -12    1    1    2    0    0  0.11354277717E+02  0.14535436991E+02  0.39286445503E+02  0.43400729847E+02  0.00000000000E+00 0.  1.
         11    1    3    3    0    0 -0.49162075259E-01 -0.69340135667E+01 -0.59394132446E+01  0.91301473703E+01  0.51100000000E-03 0. -1.
        -11    1    3    3    0    0 -0.15434838469E+01 -0.98603603491E+00  0.11754100214E+01  0.21762808705E+01  0.51100000000E-03 0.  1.
         12    1    3    3    0    0 -0.97616317950E+01 -0.66153873895E+01 -0.34522442280E+02  0.36480841912E+02  0.00000000000E+00 0. -1.
</event>
<event>
 7    1  0.2740409E-010  0.4778727E+02  0.7816164E-02  0.1312668E+00
        -11   -1    0    0    0    0  0.00000000000E+00  0.00000000000E+00  0.45593999997E+02  0.45594000000E+02  0.51100000000E-03 0.  1.
         11   -1    0    0    0    0 -0.00000000000E+00 -0.00000000000E+00 -0.45593999997E+02  0.45594000000E+02  0.51100000000E-03 0. -1.
    9900012    2    1    2    0    0 -0.15356234788E+02  0.38363053671E+02 -0.13269711997E+02  0.47787273159E+02  0.20000009642E+02 0.  0.
        -12    1    1    2    0    0  0.15356234788E+02 -0.38363053671E+02  0.13269711997E+02  0.43400726841E+02  0.00000000000E+00 0.  1.
         11    1    3    3    0    0 -0.36836888279E+01  0.58723633269E+01 -0.13782684063E+01  0.70678029461E+01  0.51100000000E-03 0. -1.
        -11    1    3    3    0    0 -0.11703052694E+02  0.18463347751E+02 -0.14793351628E+02  0.26395073502E+02  0.51100000000E-03 0.  1.
        -12    1    3    3    0    0  0.30506732939E-01  0.14027342593E+02  0.29019080376E+01  0.14324396711E+02  0.00000000000E+00 0.  1.
</event>
<event>
 7    1  0.2740409E-010  0.4778727E+02  0.7816164E-02  0.1312668E+00
        -11   -1    0    0    0    0  0.00000000000E+00  0.00000000000E+00  0.45593999997E+02  0.45594000000E+02  0.51100000000E-03 0.  1.
         11   -1    0    0    0    0 -0.00000000000E+00 -0.00000000000E+00 -0.45593999997E+02  0.45594000000E+02  0.51100000000E-03 0. -1.
    9900012    2    1    2    0    0  0.20440443408E+02  0.10977147826E+02 -0.36678515842E+02  0.47787273906E+02  0.20000013048E+02 0.  0.
        -12    1    1    2    0    0 -0.20440443408E+02 -0.10977147826E+02  0.36678515842E+02  0.43400726094E+02  0.00000000000E+00 0.  1.
         11    1    3    3    0    0  0.29410757479E+01  0.41707170195E+00 -0.20313164949E+02  0.20529212012E+02  0.51100000000E-03 0. -1.
        -11    1    3    3    0    0  0.61039750753E+01  0.63246694893E+01 -0.32407637426E+01  0.93681644822E+01  0.51100000000E-03 0.  1.
         12    1    3    3    0    0  0.11395392585E+02  0.42354066350E+01 -0.13124587151E+02  0.17889897412E+02  0.00000000000E+00 0. -1.
</event>
<event>
 7    1  0.2740409E-010  0.4778727E+02  0.7816164E-02  0.1312668E+00
        -11   -1    0    0    0    0  0.00000000000E+00  0.00000000000E+00  0.45593999997E+02  0.45594000000E+02  0.51100000000E-03 0.  1.
         11   -1    0    0    0    0 -0.00000000000E+00 -0.00000000000E+00 -0.45593999997E+02  0.45594000000E+02  0.51100000000E-03 0. -1.
    9900012    2    1    2    0    0  0.12935017437E+02 -0.25354147135E+02 -0.32763946982E+02  0.47787266425E+02  0.19999978936E+02 0.  0.
        -12    1    1    2    0    0 -0.12935017437E+02  0.25354147135E+02  0.32763946982E+02  0.43400733575E+02  0.00000000000E+00 0.  1.
         11    1    3    3    0    0  0.25140131843E-01 -0.37309210830E+01  0.23358032853E+01  0.44018611294E+01  0.51100000000E-03 0. -1.
        -11    1    3    3    0    0 -0.26665123023E+00 -0.91732411090E+00 -0.11968853488E+01  0.15313788566E+01  0.51100000000E-03 0.  1.
         12    1    3    3    0    0  0.13176528535E+02 -0.20705901941E+02 -0.33902864919E+02  0.41854026439E+02  0.00000000000E+00 0. -1.
</event>
<event>
 7    1  0.2740409E-010  0.4778727E+02  0.7816164E-02  0.1312668E+00
        -11   -1    0    0    0    0  0.00000000000E+00  0.00000000000E+00  0.45593999997E+02  0.45594000000E+02  0.51100000000E-03 0.  1.
         11   -1    0    0    0    0 -0.00000000000E+00 -0.00000000000E+00 -0.45593999997E+02  0.45594000000E+02  0.51100000000E-03 0. -1.
    9900012    2    1    2    0    0  0.78917631749E-01  0.20375250865E+02 -0.38320571298E+02  0.47787271200E+02  0.20000000709E+02 0.  0.
        -12    1    1    2    0    0 -0.78917631749E-01 -0.20375250865E+02  0.38320571298E+02  0.43400728800E+02  0.00000000000E+00 0.  1.
         11    1    3    3    0    0 -0.37632670616E+01  0.62281026114E+01 -0.17440016584E+02  0.18897238418E+02  0.51100000000E-03 0. -1.
        -11    1    3    3    0    0  0.75814727065E+01  0.33765768535E+01 -0.65214790963E+01  0.10555078849E+02  0.51100000000E-03 0.  1.
        -12    1    3    3    0    0 -0.37392880132E+01  0.10770571400E+02 -0.14359075617E+02  0.18334953933E+02  0.00000000000E+00 0.  1.
</event>
<event>
 7    1  0.2740409E-010  0.4778727E+02  0.7816164E-02  0.1312668E+00
        -11   -1    0    0    0    0  0.00000000000E+00  0.00000000000E+00  0.45593999997E+02  0.45594000000E+02  0.51100000000E-03 0. -1.
         11   -1    0    0    0    0 -0.00000000000E+00 -0.00000000000E+00 -0.45593999997E+02  0.45594000000E+02  0.51100000000E-03 0.  1.
    9900012    2    1    2    0    0  0.39974804901E+02  0.16900834435E+02 -0.14125098758E-02  0.47787271510E+02  0.20000002122E+02 0.  0.
        -12    1    1    2    0    0 -0.39974804901E+02 -0.16900834435E+02  0.14125098758E-02  0.43400728490E+02  0.00000000000E+00 0.  1.
         11    1    3    3    0    0  0.14472537112E+02  0.47391891436E+01 -0.79673847719E+01  0.17187014417E+02  0.51100000000E-03 0. -1.
        -11    1    3    3    0    0  0.15434708955E+02  0.11818906453E+02  0.45720238904E+01  0.19970483043E+02  0.51100000000E-03 0.  1.
         12    1    3    3    0    0  0.10067558835E+02  0.34273883812E+00  0.33939483716E+01  0.10629774050E+02  0.00000000000E+00 0. -1.
</event>
<event>
 7    1  0.2740409E-010  0.4778727E+02  0.7816164E-02  0.1312668E+00
        -11   -1    0    0    0    0  0.00000000000E+00  0.00000000000E+00  0.45593999997E+02  0.45594000000E+02  0.51100000000E-03 0.  1.
         11   -1    0    0    0    0 -0.00000000000E+00 -0.00000000000E+00 -0.45593999997E+02  0.45594000000E+02  0.51100000000E-03 0. -1.
    9900012    2    1    2    0    0 -0.10409542394E+01  0.47995340744E+01 -0.43121969218E+02  0.47787270256E+02  0.19999996405E+02 0.  0.
        -12    1    1    2    0    0  0.10409542394E+01 -0.47995340744E+01  0.43121969218E+02  0.43400729744E+02  0.00000000000E+00 0.  1.
         11    1    3    3    0    0  0.15076623122E+01 -0.62934252947E+01 -0.77142153777E+01  0.10069228706E+02  0.51100000000E-03 0. -1.
        -11    1    3    3    0    0  0.71207590313E+00  0.38824483462E+00 -0.90092823542E+01  0.90457147281E+01  0.51100000000E-03 0.  1.
         12    1    3    3    0    0 -0.32606924547E+01  0.10704714534E+02 -0.26398471486E+02  0.28672326821E+02  0.00000000000E+00 0. -1.
</event>
<event>
 7    1  0.2740409E-010  0.4778727E+02  0.7816164E-02  0.1312668E+00
        -11   -1    0    0    0    0  0.00000000000E+00  0.00000000000E+00  0.45593999997E+02  0.45594000000E+02  0.51100000000E-03 0.  1.
         11   -1    0    0    0    0 -0.00000000000E+00 -0.00000000000E+00 -0.45593999997E+02  0.45594000000E+02  0.51100000000E-03 0. -1.
    9900012    2    1    2    0    0  0.31699803313E+02  0.12146356658E+02 -0.27040933483E+02  0.47787267359E+02  0.19999983195E+02 0.  0.
        -12    1    1    2    0    0 -0.31699803313E+02 -0.12146356658E+02  0.27040933483E+02  0.43400732641E+02  0.00000000000E+00 0.  1.
         11    1    3    3    0    0  0.21312355967E+02  0.13789926814E+02 -0.18251192890E+02  0.31264750768E+02  0.51100000000E-03 0. -1.
        -11    1    3    3    0    0  0.16454405286E+01 -0.34839675486E+01 -0.60599664295E+01  0.71811348546E+01  0.51100000000E-03 0.  1.
         12    1    3    3    0    0  0.87420068176E+01  0.18403973925E+01 -0.27297741636E+01  0.93413817364E+01  0.00000000000E+00 0. -1.
</event>
<event>
 7    1  0.2740409E-010  0.4778724E+02  0.7816164E-02  0.1312668E+00
        -11   -1    0    0    0    0  0.00000000000E+00  0.00000000000E+00  0.45593999997E+02  0.45594000000E+02  0.51100000000E-03 0. -1.
         11   -1    0    0    0    0 -0.00000000000E+00 -0.00000000000E+00 -0.45593999997E+02  0.45594000000E+02  0.51100000000E-03 0.  1.
    9900012    2    1    2    0    0 -0.17157853014E+02  0.77138198776E+01  0.39111771333E+02  0.47787244316E+02  0.19999878133E+02 0.  0.
        -12    1    1    2    0    0  0.17157853014E+02 -0.77138198776E+01 -0.39111771333E+02  0.43400755684E+02  0.00000000000E+00 0.  1.
         11    1    3    3    0    0 -0.74624109205E+01  0.33275257346E+01  0.22465772896E+02  0.23905458714E+02  0.51100000000E-03 0. -1.
        -11    1    3    3    0    0  0.30532919875E+01 -0.95401061703E+00  0.21622479746E+01  0.38610937288E+01  0.51100000000E-03 0.  1.
        -12    1    3    3    0    0 -0.12748734081E+02  0.53403047600E+01  0.14483750463E+02  0.20020691873E+02  0.00000000000E+00 0.  1.
</event>
<event>
 7    1  0.2740409E-010  0.4778727E+02  0.7816164E-02  0.1312668E+00
        -11   -1    0    0    0    0  0.00000000000E+00  0.00000000000E+00  0.45593999997E+02  0.45594000000E+02  0.51100000000E-03 0.  1.
         11   -1    0    0    0    0 -0.00000000000E+00 -0.00000000000E+00 -0.45593999997E+02  0.45594000000E+02  0.51100000000E-03 0. -1.
    9900012    2    1    2    0    0 -0.90474577644E+01 -0.12787895383E+02 -0.40475137539E+02  0.47787268219E+02  0.19999987119E+02 0.  0.
        -12    1    1    2    0    0  0.90474577644E+01  0.12787895383E+02  0.40475137539E+02  0.43400731781E+02  0.00000000000E+00 0.  1.
         11    1    3    3    0    0 -0.52810234604E+01 -0.23873657305E+01 -0.14184583126E+01  0.59666362522E+01  0.51100000000E-03 0. -1.
        -11    1    3    3    0    0 -0.22865031207E+01  0.15428275364E+01 -0.51607505323E+01  0.58516458921E+01  0.51100000000E-03 0.  1.
         12    1    3    3    0    0 -0.14799311833E+01 -0.11943357188E+02 -0.33895928694E+02  0.35968986075E+02  0.00000000000E+00 0. -1.
</event>
<event>
 7    1  0.2740409E-010  0.4778728E+02  0.7816164E-02  0.1312668E+00
        -11   -1    0    0    0    0  0.00000000000E+00  0.00000000000E+00  0.45593999997E+02  0.45594000000E+02  0.51100000000E-03 0.  1.
         11   -1    0    0    0    0 -0.00000000000E+00 -0.00000000000E+00 -0.45593999997E+02  0.45594000000E+02  0.51100000000E-03 0. -1.
    9900012    2    1    2    0    0  0.14070314396E+02 -0.17515206729E+02 -0.37133091707E+02  0.47787277498E+02  0.20000029426E+02 0.  0.
        -12    1    1    2    0    0 -0.14070314396E+02  0.17515206729E+02  0.37133091707E+02  0.43400722502E+02  0.00000000000E+00 0.  1.
         11    1    3    3    0    0  0.15503954911E-01 -0.11920363780E+01 -0.22841276649E+01  0.25765151949E+01  0.51100000000E-03 0. -1.
        -11    1    3    3    0    0  0.74351809942E+01  0.18621297535E+01 -0.36322108531E+01  0.84818865577E+01  0.51100000000E-03 0.  1.
        -12    1    3    3    0    0  0.66196294466E+01 -0.18185300105E+02 -0.31216753189E+02  0.36728875746E+02  0.00000000000E+00 0.  1.
</event>
<event>
 7    1  0.2740409E-010  0.4778727E+02  0.7816164E-02  0.1312668E+00
        -11   -1    0    0    0    0  0.00000000000E+00  0.00000000000E+00  0.45593999997E+02  0.45594000000E+02  0.51100000000E-03 0. -1.
         11   -1    0    0    0    0 -0.00000000000E+00 -0.00000000000E+00 -0.45593999997E+02  0.45594000000E+02  0.51100000000E-03 0.  1.
    9900012    2    1    2    0    0 -0.63007484844E+01  0.25910629208E+02  0.34242707113E+02  0.47787272727E+02  0.20000007670E+02 0.  0.
        -12    1    1    2    0    0  0.63007484844E+01 -0.25910629208E+02 -0.34242707113E+02  0.43400727273E+02  0.00000000000E+00 0.  1.
         11    1    3    3    0    0 -0.13283009456E+01  0.17565340734E+02  0.15852613133E+02  0.23698331627E+02  0.51100000000E-03 0. -1.
        -11    1    3    3    0    0 -0.30464445190E+01 -0.26382689660E+01  0.74343002139E+01  0.84563648972E+01  0.51100000000E-03 0.  1.
        -12    1    3    3    0    0 -0.19260030198E+01  0.10983557440E+02  0.10955793766E+02  0.15632576202E+02  0.00000000000E+00 0.  1.
</event>
<event>
 7    1  0.2740409E-010  0.4778727E+02  0.7816164E-02  0.1312668E+00
        -11   -1    0    0    0    0  0.00000000000E+00  0.00000000000E+00  0.45593999997E+02  0.45594000000E+02  0.51100000000E-03 0. -1.
         11   -1    0    0    0    0 -0.00000000000E+00 -0.00000000000E+00 -0.45593999997E+02  0.45594000000E+02  0.51100000000E-03 0.  1.
    9900012    2    1    2    0    0 -0.42861530975E+01  0.18344050624E+02  0.39099207935E+02  0.47787270020E+02  0.19999995330E+02 0.  0.
        -12    1    1    2    0    0  0.42861530975E+01 -0.18344050624E+02 -0.39099207935E+02  0.43400729980E+02  0.00000000000E+00 0.  1.
         11    1    3    3    0    0 -0.26943489539E+01  0.67066955943E+01  0.73786568092E+01  0.10328787860E+02  0.51100000000E-03 0. -1.
        -11    1    3    3    0    0 -0.31706378200E+01 -0.33292640857E+01  0.10301428783E+02  0.11280796903E+02  0.51100000000E-03 0.  1.
        -12    1    3    3    0    0  0.15788336763E+01  0.14966619115E+02  0.21419122342E+02  0.26177685257E+02  0.00000000000E+00 0.  1.
</event>
<event>
 7    1  0.2740409E-010  0.4778727E+02  0.7816164E-02  0.1312668E+00
        -11   -1    0    0    0    0  0.00000000000E+00  0.00000000000E+00  0.45593999997E+02  0.45594000000E+02  0.51100000000E-03 0.  1.
         11   -1    0    0    0    0 -0.00000000000E+00 -0.00000000000E+00 -0.45593999997E+02  0.45594000000E+02  0.51100000000E-03 0. -1.
    9900012    2    1    2    0    0 -0.13096165949E+02  0.56092690730E+01 -0.40995729750E+02  0.47787270515E+02  0.19999997585E+02 0.  0.
        -12    1    1    2    0    0  0.13096165949E+02 -0.56092690730E+01  0.40995729750E+02  0.43400729485E+02  0.00000000000E+00 0.  1.
         11    1    3    3    0    0 -0.55825488120E+01  0.33849436856E+01 -0.27532779222E+02  0.28296229907E+02  0.51100000000E-03 0. -1.
        -11    1    3    3    0    0  0.12941906314E+01  0.33057060518E+00  0.15104200144E+01  0.20163271551E+01  0.51100000000E-03 0.  1.
        -12    1    3    3    0    0 -0.88078077679E+01  0.18937547822E+01 -0.14973370543E+02  0.17474713453E+02  0.00000000000E+00 0.  1.
</event>
<event>
 7    1  0.2740409E-010  0.4778728E+02  0.7816164E-02  0.1312668E+00
        -11   -1    0    0    0    0  0.00000000000E+00  0.00000000000E+00  0.45593999997E+02  0.45594000000E+02  0.51100000000E-03 0. -1.
         11   -1    0    0    0    0 -0.00000000000E+00 -0.00000000000E+00 -0.45593999997E+02  0.45594000000E+02  0.51100000000E-03 0.  1.
    9900012    2    1    2    0    0  0.14855752052E+01  0.13475522693E+01  0.43354350322E+02  0.47787279699E+02  0.20000039460E+02 0.  0.
        -12    1    1    2    0    0 -0.14855752052E+01 -0.13475522693E+01 -0.43354350322E+02  0.43400720301E+02  0.00000000000E+00 0.  1.
         11    1    3    3    0    0 -0.77104876869E+01  0.20615417380E+01  0.21350822905E+02  0.22793841574E+02  0.51100000000E-03 0. -1.
        -11    1    3    3    0    0  0.87896371399E+01  0.20712183094E+01  0.17178409389E+02  0.19407354682E+02  0.51100000000E-03 0.  1.
         12    1    3    3    0    0  0.40642575209E+00 -0.27852077781E+01  0.48251180276E+01  0.55860834436E+01  0.00000000000E+00 0. -1.
</event>
<event>
 7    1  0.2740409E-010  0.4778727E+02  0.7816164E-02  0.1312668E+00
        -11   -1    0    0    0    0  0.00000000000E+00  0.00000000000E+00  0.45593999997E+02  0.45594000000E+02  0.51100000000E-03 0.  1.
         11   -1    0    0    0    0 -0.00000000000E+00 -0.00000000000E+00 -0.45593999997E+02  0.45594000000E+02  0.51100000000E-03 0. -1.
    9900012    2    1    2    0    0  0.11767026863E+02  0.22976254490E+02 -0.34889143437E+02  0.47787268193E+02  0.19999986999E+02 0.  0.
        -12    1    1    2    0    0 -0.11767026863E+02 -0.22976254490E+02  0.34889143437E+02  0.43400731807E+02  0.00000000000E+00 0.  1.
         11    1    3    3    0    0  0.10715892076E+02  0.13994809063E+02 -0.34015877614E+02  0.38311420671E+02  0.51100000000E-03 0. -1.
        -11    1    3    3    0    0  0.14262081275E+01  0.72188217151E+01 -0.16041485107E+01  0.75311851181E+01  0.51100000000E-03 0.  1.
         12    1    3    3    0    0 -0.37507334082E+00  0.17626237124E+01  0.73088268756E+00  0.19446624040E+01  0.00000000000E+00 0. -1.
</event>
<event>
 7    1  0.2740409E-010  0.4778727E+02  0.7816164E-02  0.1312668E+00
        -11   -1    0    0    0    0  0.00000000000E+00  0.00000000000E+00  0.45593999997E+02  0.45594000000E+02  0.51100000000E-03 0.  1.
         11   -1    0    0    0    0 -0.00000000000E+00 -0.00000000000E+00 -0.45593999997E+02  0.45594000000E+02  0.51100000000E-03 0. -1.
    9900012    2    1    2    0    0  0.60946005226E+01 -0.32444009572E+02 -0.28175616362E+02  0.47787271089E+02  0.20000000202E+02 0.  0.
        -12    1    1    2    0    0 -0.60946005226E+01  0.32444009572E+02  0.28175616362E+02  0.43400728911E+02  0.00000000000E+00 0.  1.
         11    1    3    3    0    0  0.11544595683E+02 -0.24282815552E+02 -0.26161632138E+02  0.37514847953E+02  0.51100000000E-03 0. -1.
        -11    1    3    3    0    0 -0.34360057309E+01 -0.48414821540E+01 -0.86507967357E-01  0.59374715763E+01  0.51100000000E-03 0.  1.
         12    1    3    3    0    0 -0.20139894297E+01 -0.33197118661E+01 -0.19274762575E+01  0.43349515591E+01  0.00000000000E+00 0. -1.
</event>
<event>
 7    1  0.2740409E-010  0.4778727E+02  0.7816164E-02  0.1312668E+00
        -11   -1    0    0    0    0  0.00000000000E+00  0.00000000000E+00  0.45593999997E+02  0.45594000000E+02  0.51100000000E-03 0.  1.
         11   -1    0    0    0    0 -0.00000000000E+00 -0.00000000000E+00 -0.45593999997E+02  0.45594000000E+02  0.51100000000E-03 0. -1.
    9900012    2    1    2    0    0  0.68652935933E+01 -0.41841965121E+02 -0.92596314507E+01  0.47787273325E+02  0.20000010400E+02 0.  0.
        -12    1    1    2    0    0 -0.68652935933E+01  0.41841965121E+02  0.92596314507E+01  0.43400726675E+02  0.00000000000E+00 0.  1.
         11    1    3    3    0    0 -0.12322225358E+01 -0.83428326988E+01  0.49746305788E+00  0.84479997379E+01  0.51100000000E-03 0. -1.
        -11    1    3    3    0    0 -0.43103966440E+01 -0.42276891353E+01  0.14775002348E+00  0.60394291935E+01  0.51100000000E-03 0.  1.
         12    1    3    3    0    0  0.12407912773E+02 -0.29271443287E+02 -0.99048445320E+01  0.33299844394E+02  0.00000000000E+00 0. -1.
</event>
<event>
 7    1  0.2740409E-010  0.4778727E+02  0.7816164E-02  0.1312668E+00
        -11   -1    0    0    0    0  0.00000000000E+00  0.00000000000E+00  0.45593999997E+02  0.45594000000E+02  0.51100000000E-03 0.  1.
         11   -1    0    0    0    0 -0.00000000000E+00 -0.00000000000E+00 -0.45593999997E+02  0.45594000000E+02  0.51100000000E-03 0. -1.
    9900012    2    1    2    0    0  0.13816352731E+02 -0.10809335569E+01 -0.41128619984E+02  0.47787269569E+02  0.19999993274E+02 0.  0.
        -12    1    1    2    0    0 -0.13816352731E+02  0.10809335569E+01  0.41128619984E+02  0.43400730431E+02  0.00000000000E+00 0.  1.
         11    1    3    3    0    0  0.12627426522E+01  0.25480211565E+00 -0.15475029874E+02  0.15528554117E+02  0.51100000000E-03 0.  1.
        -11    1    3    3    0    0  0.13480790421E+02 -0.36641214675E+01 -0.26201764388E+02  0.29693264451E+02  0.51100000000E-03 0. -1.
        -12    1    3    3    0    0 -0.92718034223E+00  0.23283857950E+01  0.54817427734E+00  0.25654510004E+01  0.00000000000E+00 0.  1.
</event>
<event>
 7    1  0.2740409E-010  0.4778727E+02  0.7816164E-02  0.1312668E+00
        -11   -1    0    0    0    0  0.00000000000E+00  0.00000000000E+00  0.45593999997E+02  0.45594000000E+02  0.51100000000E-03 0.  1.
         11   -1    0    0    0    0 -0.00000000000E+00 -0.00000000000E+00 -0.45593999997E+02  0.45594000000E+02  0.51100000000E-03 0. -1.
    9900012    2    1    2    0    0  0.22859523171E+02 -0.11520424601E+02 -0.35047758802E+02  0.47787269826E+02  0.19999994443E+02 0.  0.
        -12    1    1    2    0    0 -0.22859523171E+02  0.11520424601E+02  0.35047758802E+02  0.43400730174E+02  0.00000000000E+00 0.  1.
         11    1    3    3    0    0  0.64924153270E+01 -0.40620277998E+01 -0.96592105583E+01  0.12326876145E+02  0.51100000000E-03 0. -1.
        -11    1    3    3    0    0  0.15266176774E+02 -0.68613478800E+00 -0.24012299410E+02  0.28462562384E+02  0.51100000000E-03 0.  1.
        -12    1    3    3    0    0  0.11009310701E+01 -0.67722620136E+01 -0.13762488336E+01  0.69978312965E+01  0.00000000000E+00 0.  1.
</event>
<event>
 7    1  0.2740409E-010  0.4778726E+02  0.7816164E-02  0.1312668E+00
        -11   -1    0    0    0    0  0.00000000000E+00  0.00000000000E+00  0.45593999997E+02  0.45594000000E+02  0.51100000000E-03 0.  1.
         11   -1    0    0    0    0 -0.00000000000E+00 -0.00000000000E+00 -0.45593999997E+02  0.45594000000E+02  0.51100000000E-03 0. -1.
    9900012    2    1    2    0    0  0.13748048968E+02 -0.40896080153E+02  0.47038226194E+01  0.47787260726E+02  0.19999952956E+02 0.  0.
        -12    1    1    2    0    0 -0.13748048968E+02  0.40896080153E+02 -0.47038226194E+01  0.43400739274E+02  0.00000000000E+00 0.  1.
         11    1    3    3    0    0  0.31517735307E+01 -0.12287749836E+02 -0.58349846108E+01  0.13963148573E+02  0.51100000000E-03 0. -1.
        -11    1    3    3    0    0  0.59840284022E+01 -0.26319445346E+02  0.89017610048E+01  0.28421174298E+02  0.51100000000E-03 0.  1.
         12    1    3    3    0    0  0.46122470346E+01 -0.22888849708E+01  0.16370462254E+01  0.54029378547E+01  0.00000000000E+00 0. -1.
</event>
<event>
 7    1  0.2740409E-010  0.4778727E+02  0.7816164E-02  0.1312668E+00
        -11   -1    0    0    0    0  0.00000000000E+00  0.00000000000E+00  0.45593999997E+02  0.45594000000E+02  0.51100000000E-03 0.  1.
         11   -1    0    0    0    0 -0.00000000000E+00 -0.00000000000E+00 -0.45593999997E+02  0.45594000000E+02  0.51100000000E-03 0. -1.
    9900012    2    1    2    0    0 -0.26178318134E+02 -0.70748255616E+01 -0.33886071091E+02  0.47787270617E+02  0.19999998050E+02 0.  0.
        -12    1    1    2    0    0  0.26178318134E+02  0.70748255616E+01  0.33886071091E+02  0.43400729383E+02  0.00000000000E+00 0.  1.
         11    1    3    3    0    0 -0.21402291942E+02 -0.11508725040E+01 -0.31276837793E+02  0.37916001773E+02  0.51100000000E-03 0. -1.
        -11    1    3    3    0    0 -0.28733329982E+01 -0.78973709436E+00  0.11880124460E+01  0.32079745993E+01  0.51100000000E-03 0.  1.
         12    1    3    3    0    0 -0.19026931941E+01 -0.51342159633E+01 -0.37972457434E+01  0.66632942442E+01  0.00000000000E+00 0. -1.
</event>
<event>
 7    1  0.2740409E-010  0.4778727E+02  0.7816164E-02  0.1312668E+00
        -11   -1    0    0    0    0  0.00000000000E+00  0.00000000000E+00  0.45593999997E+02  0.45594000000E+02  0.51100000000E-03 0.  1.
         11   -1    0    0    0    0 -0.00000000000E+00 -0.00000000000E+00 -0.45593999997E+02  0.45594000000E+02  0.51100000000E-03 0. -1.
    9900012    2    1    2    0    0  0.38655768028E+02 -0.12051671533E+02  0.15624083558E+02  0.47787272177E+02  0.20000005162E+02 0.  0.
        -12    1    1    2    0    0 -0.38655768028E+02  0.12051671533E+02 -0.15624083558E+02  0.43400727823E+02  0.00000000000E+00 0.  1.
         11    1    3    3    0    0  0.19730264402E+02 -0.13869270083E+02  0.97121213206E+01  0.25999332430E+02  0.51100000000E-03 0. -1.
        -11    1    3    3    0    0  0.28099645016E+01 -0.26844788348E+01  0.27460685207E+01  0.47584892241E+01  0.51100000000E-03 0.  1.
         12    1    3    3    0    0  0.16115539125E+02  0.45020773856E+01  0.31658937168E+01  0.17029450522E+02  0.00000000000E+00 0. -1.
</event>
<event>
 7    1  0.2740409E-010  0.4778727E+02  0.7816164E-02  0.1312668E+00
        -11   -1    0    0    0    0  0.00000000000E+00  0.00000000000E+00  0.45593999997E+02  0.45594000000E+02  0.51100000000E-03 0.  1.
         11   -1    0    0    0    0 -0.00000000000E+00 -0.00000000000E+00 -0.45593999997E+02  0.45594000000E+02  0.51100000000E-03 0. -1.
    9900012    2    1    2    0    0 -0.11009055447E+02  0.37285101733E+02 -0.19293653371E+02  0.47787272201E+02  0.20000005274E+02 0.  0.
        -12    1    1    2    0    0  0.11009055447E+02 -0.37285101733E+02  0.19293653371E+02  0.43400727799E+02  0.00000000000E+00 0.  1.
         11    1    3    3    0    0 -0.31834465013E+01  0.20214292375E+02 -0.76082684474E+01  0.21832033732E+02  0.51100000000E-03 0. -1.
        -11    1    3    3    0    0 -0.96372925934E+01  0.11496853809E+02 -0.13110632446E+02  0.19923446976E+02  0.51100000000E-03 0.  1.
        -12    1    3    3    0    0  0.18116836481E+01  0.55739555501E+01  0.14252475228E+01  0.60317914931E+01  0.00000000000E+00 0.  1.
</event>
<event>
 7    1  0.2740409E-010  0.4778727E+02  0.7816164E-02  0.1312668E+00
        -11   -1    0    0    0    0  0.00000000000E+00  0.00000000000E+00  0.45593999997E+02  0.45594000000E+02  0.51100000000E-03 0.  1.
         11   -1    0    0    0    0 -0.00000000000E+00 -0.00000000000E+00 -0.45593999997E+02  0.45594000000E+02  0.51100000000E-03 0. -1.
    9900012    2    1    2    0    0 -0.27260616637E+02 -0.21632000461E+02 -0.25933355050E+02  0.47787267662E+02  0.19999984576E+02 0.  0.
        -12    1    1    2    0    0  0.27260616637E+02  0.21632000461E+02  0.25933355050E+02  0.43400732338E+02  0.00000000000E+00 0.  1.
         11    1    3    3    0    0 -0.12761620592E+02 -0.72473439340E+01 -0.10660702940E+02  0.18139281730E+02  0.51100000000E-03 0. -1.
        -11    1    3    3    0    0 -0.41834486862E+01  0.18414678168E+01 -0.77575595360E+01  0.90039978257E+01  0.51100000000E-03 0.  1.
        -12    1    3    3    0    0 -0.10315547358E+02 -0.16226124344E+02 -0.75150925742E+01  0.20643988106E+02  0.00000000000E+00 0.  1.
</event>
<event>
 7    1  0.2740409E-010  0.4778727E+02  0.7816164E-02  0.1312668E+00
        -11   -1    0    0    0    0  0.00000000000E+00  0.00000000000E+00  0.45593999997E+02  0.45594000000E+02  0.51100000000E-03 0.  1.
         11   -1    0    0    0    0 -0.00000000000E+00 -0.00000000000E+00 -0.45593999997E+02  0.45594000000E+02  0.51100000000E-03 0. -1.
    9900012    2    1    2    0    0  0.13860444876E+02 -0.99388504574E+01 -0.39909029613E+02  0.47787270453E+02  0.19999997301E+02 0.  0.
        -12    1    1    2    0    0 -0.13860444876E+02  0.99388504574E+01  0.39909029613E+02  0.43400729547E+02  0.00000000000E+00 0.  1.
         11    1    3    3    0    0  0.55447816552E+01  0.49111736942E+01 -0.98180144470E+01  0.12298684426E+02  0.51100000000E-03 0. -1.
        -11    1    3    3    0    0  0.32569821027E+01 -0.49035653710E+01 -0.40158744278E+01  0.71260180638E+01  0.51100000000E-03 0.  1.
         12    1    3    3    0    0  0.50586811183E+01 -0.99464587806E+01 -0.26075140738E+02  0.28362567963E+02  0.00000000000E+00 0. -1.
</event>
<event>
 7    1  0.2740409E-010  0.4778727E+02  0.7816164E-02  0.1312668E+00
        -11   -1    0    0    0    0  0.00000000000E+00  0.00000000000E+00  0.45593999997E+02  0.45594000000E+02  0.51100000000E-03 0.  1.
         11   -1    0    0    0    0 -0.00000000000E+00 -0.00000000000E+00 -0.45593999997E+02  0.45594000000E+02  0.51100000000E-03 0. -1.
    9900012    2    1    2    0    0 -0.28853122816E+02 -0.31261277461E+02  0.85937928562E+01  0.47787269126E+02  0.19999991255E+02 0.  0.
        -12    1    1    2    0    0  0.28853122816E+02  0.31261277461E+02 -0.85937928562E+01  0.43400730874E+02  0.00000000000E+00 0.  1.
         11    1    3    3    0    0 -0.68881989132E+01 -0.42738199695E+01  0.61410187596E+00  0.81295721151E+01  0.51100000000E-03 0. -1.
        -11    1    3    3    0    0 -0.16630772912E+02 -0.28754118925E+02  0.65023450274E+01  0.33847635869E+02  0.51100000000E-03 0.  1.
        -12    1    3    3    0    0 -0.53341509908E+01  0.17666614336E+01  0.14773459528E+01  0.58100611424E+01  0.00000000000E+00 0.  1.
</event>
<event>
 7    1  0.2740409E-010  0.4778727E+02  0.7816164E-02  0.1312668E+00
        -11   -1    0    0    0    0  0.00000000000E+00  0.00000000000E+00  0.45593999997E+02  0.45594000000E+02  0.51100000000E-03 0.  1.
         11   -1    0    0    0    0 -0.00000000000E+00 -0.00000000000E+00 -0.45593999997E+02  0.45594000000E+02  0.51100000000E-03 0. -1.
    9900012    2    1    2    0    0 -0.15644628217E+02 -0.34886448610E+02 -0.20537882167E+02  0.47787270829E+02  0.19999999016E+02 0.  0.
        -12    1    1    2    0    0  0.15644628217E+02  0.34886448610E+02  0.20537882167E+02  0.43400729171E+02  0.00000000000E+00 0.  1.
         11    1    3    3    0    0 -0.12768881245E+02 -0.21254075775E+02 -0.14266475819E+02  0.28606160138E+02  0.51100000000E-03 0. -1.
        -11    1    3    3    0    0  0.69814460600E-01  0.20119699336E+01  0.14282126169E+00  0.20182406315E+01  0.51100000000E-03 0.  1.
        -12    1    3    3    0    0 -0.29455614326E+01 -0.15644342769E+02 -0.64142276099E+01  0.17162870059E+02  0.00000000000E+00 0.  1.
</event>
<event>
 7    1  0.2740409E-010  0.4778730E+02  0.7816164E-02  0.1312668E+00
        -11   -1    0    0    0    0  0.00000000000E+00  0.00000000000E+00  0.45593999997E+02  0.45594000000E+02  0.51100000000E-03 0.  1.
         11   -1    0    0    0    0 -0.00000000000E+00 -0.00000000000E+00 -0.45593999997E+02  0.45594000000E+02  0.51100000000E-03 0. -1.
    9900012    2    1    2    0    0 -0.10654765026E+02 -0.48626121118E+01 -0.41790574409E+02  0.47787295815E+02  0.20000112941E+02 0.  0.
        -12    1    1    2    0    0  0.10654765026E+02  0.48626121118E+01  0.41790574409E+02  0.43400704185E+02  0.00000000000E+00 0.  1.
         11    1    3    3    0    0 -0.10168813365E+02 -0.35547610988E+01 -0.22486927420E+02  0.24933972744E+02  0.51100000000E-03 0. -1.
        -11    1    3    3    0    0  0.18697355674E+01  0.43609952903E+01 -0.34907369953E+01  0.58906227213E+01  0.51100000000E-03 0.  1.
         12    1    3    3    0    0 -0.23556872288E+01 -0.56688463033E+01 -0.15812909993E+02  0.16962700351E+02  0.00000000000E+00 0. -1.
</event>
<event>
 7    1  0.2740409E-010  0.4778727E+02  0.7816164E-02  0.1312668E+00
        -11   -1    0    0    0    0  0.00000000000E+00  0.00000000000E+00  0.45593999997E+02  0.45594000000E+02  0.51100000000E-03 0.  1.
         11   -1    0    0    0    0 -0.00000000000E+00 -0.00000000000E+00 -0.45593999997E+02  0.45594000000E+02  0.51100000000E-03 0. -1.
    9900012    2    1    2    0    0  0.26085081995E+02  0.26830932792E+01 -0.34583124840E+02  0.47787274017E+02  0.20000013551E+02 0.  0.
        -12    1    1    2    0    0 -0.26085081995E+02 -0.26830932792E+01  0.34583124840E+02  0.43400725983E+02  0.00000000000E+00 0.  1.
         11    1    3    3    0    0  0.76170424484E+01 -0.32886966998E+01 -0.79762731598E+00  0.83349307880E+01  0.51100000000E-03 0. -1.
        -11    1    3    3    0    0 -0.37001368305E-01  0.12786448410E+01 -0.19855659979E+01  0.23619429128E+01  0.51100000000E-03 0.  1.
         12    1    3    3    0    0  0.18505040915E+02  0.46931451381E+01 -0.31799931526E+02  0.37090400316E+02  0.00000000000E+00 0. -1.
</event>
<event>
 7    1  0.2740409E-010  0.4778727E+02  0.7816164E-02  0.1312668E+00
        -11   -1    0    0    0    0  0.00000000000E+00  0.00000000000E+00  0.45593999997E+02  0.45594000000E+02  0.51100000000E-03 0.  1.
         11   -1    0    0    0    0 -0.00000000000E+00 -0.00000000000E+00 -0.45593999997E+02  0.45594000000E+02  0.51100000000E-03 0. -1.
    9900012    2    1    2    0    0 -0.15009452740E+02 -0.26966673351E+02 -0.30514556044E+02  0.47787271046E+02  0.20000000006E+02 0.  0.
        -12    1    1    2    0    0  0.15009452740E+02  0.26966673351E+02  0.30514556044E+02  0.43400728954E+02  0.00000000000E+00 0.  1.
         11    1    3    3    0    0 -0.58896945981E+01 -0.93450197161E+00 -0.38961551808E+00  0.59760854167E+01  0.51100000000E-03 0. -1.
        -11    1    3    3    0    0 -0.27685755326E+00 -0.10507488784E+02 -0.71746418641E+01  0.12726329274E+02  0.51100000000E-03 0.  1.
         12    1    3    3    0    0 -0.88429005890E+01 -0.15524682596E+02 -0.22950298662E+02  0.29084856355E+02  0.00000000000E+00 0. -1.
</event>
<event>
 7    1  0.2740409E-010  0.4778727E+02  0.7816164E-02  0.1312668E+00
        -11   -1    0    0    0    0  0.00000000000E+00  0.00000000000E+00  0.45593999997E+02  0.45594000000E+02  0.51100000000E-03 0. -1.
         11   -1    0    0    0    0 -0.00000000000E+00 -0.00000000000E+00 -0.45593999997E+02  0.45594000000E+02  0.51100000000E-03 0.  1.
    9900012    2    1    2    0    0 -0.24471088671E+02  0.32026771319E+02  0.16095805773E+02  0.47787271603E+02  0.20000002548E+02 0.  0.
        -12    1    1    2    0    0  0.24471088671E+02 -0.32026771319E+02 -0.16095805773E+02  0.43400728397E+02  0.00000000000E+00 0.  1.
         11    1    3    3    0    0 -0.81693541691E+01  0.18510269220E+02  0.11877712293E+02  0.23461638129E+02  0.51100000000E-03 0. -1.
        -11    1    3    3    0    0 -0.16411688061E+02  0.81154052923E+01  0.46992948337E+01  0.18902028469E+02  0.51100000000E-03 0.  1.
        -12    1    3    3    0    0  0.10995355920E+00  0.54010968071E+01 -0.48120135327E+00  0.54236050047E+01  0.00000000000E+00 0.  1.
</event>
<event>
 7    1  0.2740409E-010  0.4778726E+02  0.7816164E-02  0.1312668E+00
        -11   -1    0    0    0    0  0.00000000000E+00  0.00000000000E+00  0.45593999997E+02  0.45594000000E+02  0.51100000000E-03 0. -1.
         11   -1    0    0    0    0 -0.00000000000E+00 -0.00000000000E+00 -0.45593999997E+02  0.45594000000E+02  0.51100000000E-03 0.  1.
    9900012    2    1    2    0    0  0.42902204607E+02 -0.51171863824E+01 -0.41035961334E+01  0.47787259709E+02  0.19999948315E+02 0.  0.
        -12    1    1    2    0    0 -0.42902204607E+02  0.51171863824E+01  0.41035961334E+01  0.43400740291E+02  0.00000000000E+00 0.  1.
         11    1    3    3    0    0  0.35424331716E+02 -0.27049455291E+01 -0.81669407214E+01  0.36454066013E+02  0.51100000000E-03 0. -1.
        -11    1    3    3    0    0  0.86121403496E+01 -0.27438365502E+01  0.44698219289E+01  0.10083496851E+02  0.51100000000E-03 0.  1.
         12    1    3    3    0    0 -0.11342674587E+01  0.33159569694E+00 -0.40647734094E+00  0.12496968444E+01  0.00000000000E+00 0. -1.
</event>
<event>
 7    1  0.2740409E-010  0.4778727E+02  0.7816164E-02  0.1312668E+00
        -11   -1    0    0    0    0  0.00000000000E+00  0.00000000000E+00  0.45593999997E+02  0.45594000000E+02  0.51100000000E-03 0. -1.
         11   -1    0    0    0    0 -0.00000000000E+00 -0.00000000000E+00 -0.45593999997E+02  0.45594000000E+02  0.51100000000E-03 0.  1.
    9900012    2    1    2    0    0 -0.35151816860E+02 -0.52136352092E+01  0.24915678711E+02  0.47787271132E+02  0.20000000400E+02 0.  0.
        -12    1    1    2    0    0  0.35151816860E+02  0.52136352092E+01 -0.24915678711E+02  0.43400728868E+02  0.00000000000E+00 0.  1.
         11    1    3    3    0    0 -0.55946345279E+00  0.74675965686E+00  0.55252004464E+00  0.10844021399E+01  0.51100000000E-03 0. -1.
        -11    1    3    3    0    0 -0.18422779026E+02 -0.12444705554E+02  0.15913307333E+02  0.27340498055E+02  0.51100000000E-03 0.  1.
        -12    1    3    3    0    0 -0.16169574381E+02  0.64843106876E+01  0.84498513333E+01  0.19362370938E+02  0.00000000000E+00 0.  1.
</event>
<event>
 7    1  0.2740409E-010  0.4778727E+02  0.7816164E-02  0.1312668E+00
        -11   -1    0    0    0    0  0.00000000000E+00  0.00000000000E+00  0.45593999997E+02  0.45594000000E+02  0.51100000000E-03 0.  1.
         11   -1    0    0    0    0 -0.00000000000E+00 -0.00000000000E+00 -0.45593999997E+02  0.45594000000E+02  0.51100000000E-03 0. -1.
    9900012    2    1    2    0    0  0.11673043213E+02  0.11959007758E+02 -0.40054281511E+02  0.47787271068E+02  0.20000000108E+02 0.  0.
        -12    1    1    2    0    0 -0.11673043213E+02 -0.11959007758E+02  0.40054281511E+02  0.43400728932E+02  0.00000000000E+00 0.  1.
         11    1    3    3    0    0  0.56356389340E+01  0.11623434553E+02 -0.37530651149E+02  0.39691490686E+02  0.51100000000E-03 0. -1.
        -11    1    3    3    0    0  0.48180663487E+01 -0.18341088508E+01 -0.21208616707E+01  0.55745648355E+01  0.51100000000E-03 0.  1.
        -12    1    3    3    0    0  0.12193379305E+01  0.21696820557E+01 -0.40276869195E+00  0.25212155463E+01  0.00000000000E+00 0.  1.
</event>
<event>
 7    1  0.2740409E-010  0.4778727E+02  0.7816164E-02  0.1312668E+00
        -11   -1    0    0    0    0  0.00000000000E+00  0.00000000000E+00  0.45593999997E+02  0.45594000000E+02  0.51100000000E-03 0. -1.
         11   -1    0    0    0    0 -0.00000000000E+00 -0.00000000000E+00 -0.45593999997E+02  0.45594000000E+02  0.51100000000E-03 0.  1.
    9900012    2    1    2    0    0  0.57838695576E+01  0.12323713277E+02  0.41210388620E+02  0.47787272054E+02  0.20000004603E+02 0.  0.
        -12    1    1    2    0    0 -0.57838695576E+01 -0.12323713277E+02 -0.41210388620E+02  0.43400727946E+02  0.00000000000E+00 0.  1.
         11    1    3    3    0    0 -0.16779209808E+01  0.60371451123E+00  0.22693393580E+02  0.22763347787E+02  0.51100000000E-03 0. -1.
        -11    1    3    3    0    0  0.85594488321E+01  0.12518503631E+02  0.18079968632E+02  0.23597931339E+02  0.51100000000E-03 0.  1.
        -12    1    3    3    0    0 -0.10976582937E+01 -0.79850486536E+00  0.43702640780E+00  0.14259929280E+01  0.00000000000E+00 0.  1.
</event>
<event>
 7    1  0.2740409E-010  0.4778727E+02  0.7816164E-02  0.1312668E+00
        -11   -1    0    0    0    0  0.00000000000E+00  0.00000000000E+00  0.45593999997E+02  0.45594000000E+02  0.51100000000E-03 0. -1.
         11   -1    0    0    0    0 -0.00000000000E+00 -0.00000000000E+00 -0.45593999997E+02  0.45594000000E+02  0.51100000000E-03 0.  1.
    9900012    2    1    2    0    0  0.12334284170E+02  0.29295762193E+02 -0.29550753935E+02  0.47787270668E+02  0.19999998282E+02 0.  0.
        -12    1    1    2    0    0 -0.12334284170E+02 -0.29295762193E+02  0.29550753935E+02  0.43400729332E+02  0.00000000000E+00 0.  1.
         11    1    3    3    0    0 -0.39357121227E+01  0.11472459332E+02 -0.64532128789E+01  0.13738672052E+02  0.51100000000E-03 0.  1.
        -11    1    3    3    0    0  0.98730030598E+01  0.62284239558E+01 -0.93073977087E+01  0.14929739005E+02  0.51100000000E-03 0. -1.
         12    1    3    3    0    0  0.63969932332E+01  0.11594878905E+02 -0.13790143347E+02  0.19118859610E+02  0.00000000000E+00 0. -1.
</event>
<event>
 7    1  0.2740409E-010  0.4778727E+02  0.7816164E-02  0.1312668E+00
        -11   -1    0    0    0    0  0.00000000000E+00  0.00000000000E+00  0.45593999997E+02  0.45594000000E+02  0.51100000000E-03 0.  1.
         11   -1    0    0    0    0 -0.00000000000E+00 -0.00000000000E+00 -0.45593999997E+02  0.45594000000E+02  0.51100000000E-03 0. -1.
    9900012    2    1    2    0    0  0.23332667215E+02  0.87867858791E+00 -0.36584667000E+02  0.47787270801E+02  0.19999998892E+02 0.  0.
        -12    1    1    2    0    0 -0.23332667215E+02 -0.87867858791E+00  0.36584667000E+02  0.43400729199E+02  0.00000000000E+00 0.  1.
         11    1    3    3    0    0  0.74778872273E+01  0.52448091340E+01 -0.22491343512E+02  0.24275241574E+02  0.51100000000E-03 0. -1.
        -11    1    3    3    0    0  0.92921247393E+01  0.20482803475E+01 -0.85414123528E+01  0.12786506943E+02  0.51100000000E-03 0.  1.
         12    1    3    3    0    0  0.65626552487E+01 -0.64144108936E+01 -0.55519111352E+01  0.10725522285E+02  0.00000000000E+00 0. -1.
</event>
<event>
 7    1  0.2740409E-010  0.4778727E+02  0.7816164E-02  0.1312668E+00
        -11   -1    0    0    0    0  0.00000000000E+00  0.00000000000E+00  0.45593999997E+02  0.45594000000E+02  0.51100000000E-03 0. -1.
         11   -1    0    0    0    0 -0.00000000000E+00 -0.00000000000E+00 -0.45593999997E+02  0.45594000000E+02  0.51100000000E-03 0.  1.
    9900012    2    1    2    0    0 -0.41511534506E+02  0.78857533879E+01  0.99111380066E+01  0.47787271202E+02  0.20000000720E+02 0.  0.
        -12    1    1    2    0    0  0.41511534506E+02 -0.78857533879E+01 -0.99111380066E+01  0.43400728798E+02  0.00000000000E+00 0.  1.
         11    1    3    3    0    0 -0.31530040806E+02  0.37021027329E+01  0.13070428664E+02  0.34331984265E+02  0.51100000000E-03 0. -1.
        -11    1    3    3    0    0 -0.55634744209E+01  0.60565346708E+01 -0.13884596535E+01  0.83403645196E+01  0.51100000000E-03 0.  1.
         12    1    3    3    0    0 -0.44180192797E+01 -0.18728840158E+01 -0.17708310040E+01  0.51149224176E+01  0.00000000000E+00 0. -1.
</event>
<event>
 7    1  0.2740409E-010  0.4778727E+02  0.7816164E-02  0.1312668E+00
        -11   -1    0    0    0    0  0.00000000000E+00  0.00000000000E+00  0.45593999997E+02  0.45594000000E+02  0.51100000000E-03 0. -1.
         11   -1    0    0    0    0 -0.00000000000E+00 -0.00000000000E+00 -0.45593999997E+02  0.45594000000E+02  0.51100000000E-03 0.  1.
    9900012    2    1    2    0    0  0.37925447525E+02 -0.13843767291E+02 -0.15925882415E+02  0.47787271970E+02  0.20000004222E+02 0.  0.
        -12    1    1    2    0    0 -0.37925447525E+02  0.13843767291E+02  0.15925882415E+02  0.43400728030E+02  0.00000000000E+00 0.  1.
         11    1    3    3    0    0  0.13153900155E+02 -0.98818499719E+01 -0.78156230906E+01  0.18214280461E+02  0.51100000000E-03 0. -1.
        -11    1    3    3    0    0  0.83156510311E+00  0.97424314514E+00  0.25904186161E+01  0.28897956839E+01  0.51100000000E-03 0.  1.
        -12    1    3    3    0    0  0.23939982267E+02 -0.49361604646E+01 -0.10700677941E+02  0.26683195826E+02  0.00000000000E+00 0.  1.
</event>
<event>
 7    1  0.2740409E-010  0.4778727E+02  0.7816164E-02  0.1312668E+00
        -11   -1    0    0    0    0  0.00000000000E+00  0.00000000000E+00  0.45593999997E+02  0.45594000000E+02  0.51100000000E-03 0.  1.
         11   -1    0    0    0    0 -0.00000000000E+00 -0.00000000000E+00 -0.45593999997E+02  0.45594000000E+02  0.51100000000E-03 0. -1.
    9900012    2    1    2    0    0 -0.21889794246E+01 -0.19332400699E+02 -0.38795488690E+02  0.47787270854E+02  0.19999999131E+02 0.  0.
        -12    1    1    2    0    0  0.21889794246E+01  0.19332400699E+02  0.38795488690E+02  0.43400729146E+02  0.00000000000E+00 0.  1.
         11    1    3    3    0    0 -0.55811822695E+00 -0.36021848662E+00 -0.17916452455E+02  0.17928762426E+02  0.51100000000E-03 0. -1.
        -11    1    3    3    0    0 -0.16643363394E+01  0.14155567271E+00 -0.40911028588E+01  0.44189564743E+01  0.51100000000E-03 0.  1.
         12    1    3    3    0    0  0.33475141782E-01 -0.19113737885E+02 -0.16787933377E+02  0.25439551953E+02  0.00000000000E+00 0. -1.
</event>
<event>
 7    1  0.2740409E-010  0.4778726E+02  0.7816164E-02  0.1312668E+00
        -11   -1    0    0    0    0  0.00000000000E+00  0.00000000000E+00  0.45593999997E+02  0.45594000000E+02  0.51100000000E-03 0.  1.
         11   -1    0    0    0    0 -0.00000000000E+00 -0.00000000000E+00 -0.45593999997E+02  0.45594000000E+02  0.51100000000E-03 0. -1.
    9900012    2    1    2    0    0 -0.10624653021E+01  0.75583058697E+01 -0.42724320494E+02  0.47787258280E+02  0.19999941803E+02 0.  0.
        -12    1    1    2    0    0  0.10624653021E+01 -0.75583058697E+01  0.42724320494E+02  0.43400741720E+02  0.00000000000E+00 0.  1.
         11    1    3    3    0    0 -0.68738639253E+01  0.10322755884E+01 -0.13802487355E+02  0.15453939808E+02  0.51100000000E-03 0. -1.
        -11    1    3    3    0    0  0.91968549124E+01  0.32867860853E+01 -0.19195841615E+02  0.21537535575E+02  0.51100000000E-03 0.  1.
        -12    1    3    3    0    0 -0.33854562892E+01  0.32392441961E+01 -0.97259915238E+01  0.10795782897E+02  0.00000000000E+00 0.  1.
</event>
<event>
 7    1  0.2740409E-010  0.4778728E+02  0.7816164E-02  0.1312668E+00
        -11   -1    0    0    0    0  0.00000000000E+00  0.00000000000E+00  0.45593999997E+02  0.45594000000E+02  0.51100000000E-03 0.  1.
         11   -1    0    0    0    0 -0.00000000000E+00 -0.00000000000E+00 -0.45593999997E+02  0.45594000000E+02  0.51100000000E-03 0. -1.
    9900012    2    1    2    0    0 -0.12660559803E+02  0.41510965283E+02  0.41579138480E+00  0.47787275400E+02  0.20000019861E+02 0.  0.
        -12    1    1    2    0    0  0.12660559803E+02 -0.41510965283E+02 -0.41579138480E+00  0.43400724600E+02  0.00000000000E+00 0.  1.
         11    1    3    3    0    0 -0.12680705932E+01  0.17067784005E+01  0.81602900626E+00  0.22774984386E+01  0.51100000000E-03 0. -1.
        -11    1    3    3    0    0 -0.12718093220E+00  0.30343597079E+02 -0.32768540507E+01  0.30520285573E+02  0.51100000000E-03 0.  1.
        -12    1    3    3    0    0 -0.11265308278E+02  0.94605898035E+01  0.28766164293E+01  0.14989491389E+02  0.00000000000E+00 0.  1.
</event>
<event>
 7    1  0.2740409E-010  0.4778727E+02  0.7816164E-02  0.1312668E+00
        -11   -1    0    0    0    0  0.00000000000E+00  0.00000000000E+00  0.45593999997E+02  0.45594000000E+02  0.51100000000E-03 0. -1.
         11   -1    0    0    0    0 -0.00000000000E+00 -0.00000000000E+00 -0.45593999997E+02  0.45594000000E+02  0.51100000000E-03 0.  1.
    9900012    2    1    2    0    0  0.33980336872E+02  0.20856439952E+02  0.17145515039E+02  0.47787273424E+02  0.20000010847E+02 0.  0.
        -12    1    1    2    0    0 -0.33980336872E+02 -0.20856439952E+02 -0.17145515039E+02  0.43400726576E+02  0.00000000000E+00 0.  1.
         11    1    3    3    0    0  0.12701355379E+02  0.12323423036E+02  0.10314882897E-01  0.17697211375E+02  0.51100000000E-03 0. -1.
        -11    1    3    3    0    0  0.74481926089E+01  0.35032757319E+01  0.10655456208E+01  0.82996326258E+01  0.51100000000E-03 0.  1.
         12    1    3    3    0    0  0.13830788884E+02  0.50297411840E+01  0.16069654536E+02  0.21790429423E+02  0.00000000000E+00 0. -1.
</event>
<event>
 7    1  0.2740409E-010  0.4778727E+02  0.7816164E-02  0.1312668E+00
        -11   -1    0    0    0    0  0.00000000000E+00  0.00000000000E+00  0.45593999997E+02  0.45594000000E+02  0.51100000000E-03 0.  1.
         11   -1    0    0    0    0 -0.00000000000E+00 -0.00000000000E+00 -0.45593999997E+02  0.45594000000E+02  0.51100000000E-03 0. -1.
    9900012    2    1    2    0    0 -0.40013089975E+02  0.11690350967E+02 -0.12079386664E+02  0.47787271236E+02  0.20000000872E+02 0.  0.
        -12    1    1    2    0    0  0.40013089975E+02 -0.11690350967E+02  0.12079386664E+02  0.43400728764E+02  0.00000000000E+00 0.  1.
         11    1    3    3    0    0 -0.34220645003E+02  0.15744932548E+02 -0.66663933518E+01  0.38254362443E+02  0.51100000000E-03 0. -1.
        -11    1    3    3    0    0 -0.54427878459E+01 -0.44285156726E+01 -0.56106251160E+01  0.89841418650E+01  0.51100000000E-03 0.  1.
        -12    1    3    3    0    0 -0.34965712649E+00  0.37393409151E+00  0.19763180374E+00  0.54876692752E+00  0.00000000000E+00 0.  1.
</event>
<event>
 7    1  0.2740409E-010  0.4778727E+02  0.7816164E-02  0.1312668E+00
        -11   -1    0    0    0    0  0.00000000000E+00  0.00000000000E+00  0.45593999997E+02  0.45594000000E+02  0.51100000000E-03 0.  1.
         11   -1    0    0    0    0 -0.00000000000E+00 -0.00000000000E+00 -0.45593999997E+02  0.45594000000E+02  0.51100000000E-03 0. -1.
    9900012    2    1    2    0    0  0.20553144318E+02  0.69354165096E+01 -0.37591111770E+02  0.47787269273E+02  0.19999991924E+02 0.  0.
        -12    1    1    2    0    0 -0.20553144318E+02 -0.69354165096E+01  0.37591111770E+02  0.43400730727E+02  0.00000000000E+00 0.  1.
         11    1    3    3    0    0  0.11962407026E+02  0.92440325979E+01 -0.25323306576E+02  0.29492730914E+02  0.51100000000E-03 0. -1.
        -11    1    3    3    0    0  0.23825064158E+01  0.40354885953E+01 -0.39240907965E+01  0.61122822140E+01  0.51100000000E-03 0.  1.
         12    1    3    3    0    0  0.62082308762E+01 -0.63441046836E+01 -0.83437143974E+01  0.12182256145E+02  0.00000000000E+00 0. -1.
</event>
<event>
 7    1  0.2740409E-010  0.4778729E+02  0.7816164E-02  0.1312668E+00
        -11   -1    0    0    0    0  0.00000000000E+00  0.00000000000E+00  0.45593999997E+02  0.45594000000E+02  0.51100000000E-03 0.  1.
         11   -1    0    0    0    0 -0.00000000000E+00 -0.00000000000E+00 -0.45593999997E+02  0.45594000000E+02  0.51100000000E-03 0. -1.
    9900012    2    1    2    0    0  0.23317096882E+02 -0.19568073902E+02 -0.30935824519E+02  0.47787288463E+02  0.20000079418E+02 0.  0.
        -12    1    1    2    0    0 -0.23317096882E+02  0.19568073902E+02  0.30935824519E+02  0.43400711537E+02  0.00000000000E+00 0.  1.
         11    1    3    3    0    0  0.13600700353E+02 -0.16585510550E+02 -0.20254363193E+02  0.29500804038E+02  0.51100000000E-03 0. -1.
        -11    1    3    3    0    0  0.14194151732E+01  0.17618908979E+01 -0.80660949946E+01  0.83774033980E+01  0.51100000000E-03 0.  1.
         12    1    3    3    0    0  0.82969813559E+01 -0.47444542495E+01 -0.26153663318E+01  0.99090810268E+01  0.00000000000E+00 0. -1.
</event>
<event>
 7    1  0.2740409E-010  0.4778727E+02  0.7816164E-02  0.1312668E+00
        -11   -1    0    0    0    0  0.00000000000E+00  0.00000000000E+00  0.45593999997E+02  0.45594000000E+02  0.51100000000E-03 0.  1.
         11   -1    0    0    0    0 -0.00000000000E+00 -0.00000000000E+00 -0.45593999997E+02  0.45594000000E+02  0.51100000000E-03 0. -1.
    9900012    2    1    2    0    0  0.24956267790E+02 -0.20437128256E+02 -0.29036725920E+02  0.47787274597E+02  0.20000016198E+02 0.  0.
        -12    1    1    2    0    0 -0.24956267790E+02  0.20437128256E+02  0.29036725920E+02  0.43400725403E+02  0.00000000000E+00 0.  1.
         11    1    3    3    0    0  0.23619210087E+01  0.31345481443E+01 -0.45403141717E+01  0.60015427982E+01  0.51100000000E-03 0. -1.
        -11    1    3    3    0    0  0.20235868233E+02 -0.21679843526E+02 -0.18186162336E+02  0.34788539481E+02  0.51100000000E-03 0.  1.
        -12    1    3    3    0    0  0.23584785478E+01 -0.18918328741E+01 -0.63102494123E+01  0.69971923176E+01  0.00000000000E+00 0.  1.
</event>
<event>
 7    1  0.2740409E-010  0.4778727E+02  0.7816164E-02  0.1312668E+00
        -11   -1    0    0    0    0  0.00000000000E+00  0.00000000000E+00  0.45593999997E+02  0.45594000000E+02  0.51100000000E-03 0.  1.
         11   -1    0    0    0    0 -0.00000000000E+00 -0.00000000000E+00 -0.45593999997E+02  0.45594000000E+02  0.51100000000E-03 0. -1.
    9900012    2    1    2    0    0  0.18825669526E+01 -0.40867655259E+02 -0.14488421192E+02  0.47787266673E+02  0.19999980070E+02 0.  0.
        -12    1    1    2    0    0 -0.18825669526E+01  0.40867655259E+02  0.14488421192E+02  0.43400733327E+02  0.00000000000E+00 0.  1.
         11    1    3    3    0    0  0.13791353446E+01 -0.76996286033E+01 -0.91862819216E+01  0.12065408022E+02  0.51100000000E-03 0. -1.
        -11    1    3    3    0    0  0.20721855585E+01 -0.29771144882E+02 -0.78118178547E+00  0.29853396219E+02  0.51100000000E-03 0.  1.
        -12    1    3    3    0    0 -0.15687539506E+01 -0.33968817736E+01 -0.45209574849E+01  0.58684624325E+01  0.00000000000E+00 0.  1.
</event>
<event>
 7    1  0.2740409E-010  0.4778727E+02  0.7816164E-02  0.1312668E+00
        -11   -1    0    0    0    0  0.00000000000E+00  0.00000000000E+00  0.45593999997E+02  0.45594000000E+02  0.51100000000E-03 0.  1.
         11   -1    0    0    0    0 -0.00000000000E+00 -0.00000000000E+00 -0.45593999997E+02  0.45594000000E+02  0.51100000000E-03 0. -1.
    9900012    2    1    2    0    0 -0.39996350354E+02 -0.62811688397E+01 -0.15635287466E+02  0.47787270308E+02  0.19999996644E+02 0.  0.
        -12    1    1    2    0    0  0.39996350354E+02  0.62811688397E+01  0.15635287466E+02  0.43400729692E+02  0.00000000000E+00 0.  1.
         11    1    3    3    0    0 -0.31798390797E+02 -0.10830911985E+02 -0.79270008678E+01  0.34514977253E+02  0.51100000000E-03 0.  1.
        -11    1    3    3    0    0 -0.26693752214E+01  0.45482391461E+01 -0.36308927064E+01  0.64027670197E+01  0.51100000000E-03 0. -1.
        -12    1    3    3    0    0 -0.55285843349E+01  0.15039989126E-02 -0.40773938920E+01  0.68695260361E+01  0.00000000000E+00 0.  1.
</event>
<event>
 7    1  0.2740409E-010  0.4778727E+02  0.7816164E-02  0.1312668E+00
        -11   -1    0    0    0    0  0.00000000000E+00  0.00000000000E+00  0.45593999997E+02  0.45594000000E+02  0.51100000000E-03 0.  1.
         11   -1    0    0    0    0 -0.00000000000E+00 -0.00000000000E+00 -0.45593999997E+02  0.45594000000E+02  0.51100000000E-03 0. -1.
    9900012    2    1    2    0    0  0.39514028174E+02  0.10753111800E+02  0.14374825126E+02  0.47787269208E+02  0.19999991626E+02 0.  0.
        -12    1    1    2    0    0 -0.39514028174E+02 -0.10753111800E+02 -0.14374825126E+02  0.43400730792E+02  0.00000000000E+00 0.  1.
         11    1    3    3    0    0  0.24291859765E+02  0.10029036343E+02  0.82963837474E+00  0.26293807653E+02  0.51100000000E-03 0. -1.
        -11    1    3    3    0    0  0.15342204209E+02  0.95111401222E+00  0.14114563039E+02  0.20868846109E+02  0.51100000000E-03 0.  1.
         12    1    3    3    0    0 -0.12003580095E+00 -0.22703855502E+00 -0.56937628701E+00  0.62461544585E+00  0.00000000000E+00 0. -1.
</event>
<event>
 7    1  0.2740409E-010  0.4778727E+02  0.7816164E-02  0.1312668E+00
        -11   -1    0    0    0    0  0.00000000000E+00  0.00000000000E+00  0.45593999997E+02  0.45594000000E+02  0.51100000000E-03 0. -1.
         11   -1    0    0    0    0 -0.00000000000E+00 -0.00000000000E+00 -0.45593999997E+02  0.45594000000E+02  0.51100000000E-03 0.  1.
    9900012    2    1    2    0    0  0.32689617606E+02  0.16430969241E+02 -0.23345995839E+02  0.47787269924E+02  0.19999994891E+02 0.  0.
        -12    1    1    2    0    0 -0.32689617606E+02 -0.16430969241E+02  0.23345995839E+02  0.43400730076E+02  0.00000000000E+00 0.  1.
         11    1    3    3    0    0  0.10956651340E+01  0.51275314939E+01 -0.37110817873E+01  0.64237208532E+01  0.51100000000E-03 0. -1.
        -11    1    3    3    0    0  0.13164777346E+02  0.12146493730E+02 -0.86391465897E+01  0.19886767624E+02  0.51100000000E-03 0.  1.
        -12    1    3    3    0    0  0.18429175126E+02 -0.84305598244E+00 -0.10995767463E+02  0.21476781446E+02  0.00000000000E+00 0.  1.
</event>
<event>
 7    1  0.2740409E-010  0.4778727E+02  0.7816164E-02  0.1312668E+00
        -11   -1    0    0    0    0  0.00000000000E+00  0.00000000000E+00  0.45593999997E+02  0.45594000000E+02  0.51100000000E-03 0.  1.
         11   -1    0    0    0    0 -0.00000000000E+00 -0.00000000000E+00 -0.45593999997E+02  0.45594000000E+02  0.51100000000E-03 0. -1.
    9900012    2    1    2    0    0 -0.11806267825E+02  0.10642845894E+02 -0.40385207567E+02  0.47787272829E+02  0.20000008138E+02 0.  0.
        -12    1    1    2    0    0  0.11806267825E+02 -0.10642845894E+02  0.40385207567E+02  0.43400727171E+02  0.00000000000E+00 0.  1.
         11    1    3    3    0    0 -0.98796017091E-01 -0.92030255096E+00 -0.39171535648E+01  0.40250229502E+01  0.51100000000E-03 0. -1.
        -11    1    3    3    0    0  0.19077256261E+01  0.15860891727E+01  0.99431542640E+00  0.26727812025E+01  0.51100000000E-03 0.  1.
        -12    1    3    3    0    0 -0.13615197434E+02  0.99770592718E+01 -0.37462369429E+02  0.41089468677E+02  0.00000000000E+00 0.  1.
</event>
<event>
 7    1  0.2740409E-010  0.4778727E+02  0.7816164E-02  0.1312668E+00
        -11   -1    0    0    0    0  0.00000000000E+00  0.00000000000E+00  0.45593999997E+02  0.45594000000E+02  0.51100000000E-03 0.  1.
         11   -1    0    0    0    0 -0.00000000000E+00 -0.00000000000E+00 -0.45593999997E+02  0.45594000000E+02  0.51100000000E-03 0. -1.
    9900012    2    1    2    0    0  0.36551848167E+02  0.11405407196E+02 -0.20432875819E+02  0.47787270375E+02  0.19999996949E+02 0.  0.
        -12    1    1    2    0    0 -0.36551848167E+02 -0.11405407196E+02  0.20432875819E+02  0.43400729625E+02  0.00000000000E+00 0.  1.
         11    1    3    3    0    0  0.18637694447E+01  0.12326824244E+01  0.25638278036E+01  0.34009345436E+01  0.51100000000E-03 0. -1.
        -11    1    3    3    0    0  0.29367220301E+02  0.10724945509E+02 -0.23355571894E+02  0.39024874416E+02  0.51100000000E-03 0.  1.
        -12    1    3    3    0    0  0.53208584211E+01 -0.55222073744E+00  0.35886827164E+00  0.53614614161E+01  0.00000000000E+00 0.  1.
</event>
<event>
 7    1  0.2740409E-010  0.4778727E+02  0.7816164E-02  0.1312668E+00
        -11   -1    0    0    0    0  0.00000000000E+00  0.00000000000E+00  0.45593999997E+02  0.45594000000E+02  0.51100000000E-03 0.  1.
         11   -1    0    0    0    0 -0.00000000000E+00 -0.00000000000E+00 -0.45593999997E+02  0.45594000000E+02  0.51100000000E-03 0. -1.
    9900012    2    1    2    0    0 -0.13893260602E+02  0.83493784153E+01 -0.40260256206E+02  0.47787273740E+02  0.20000012292E+02 0.  0.
        -12    1    1    2    0    0  0.13893260602E+02 -0.83493784153E+01  0.40260256206E+02  0.43400726260E+02  0.00000000000E+00 0.  1.
         11    1    3    3    0    0 -0.61078055664E+01  0.10167149449E+02 -0.10509863157E+02  0.15847190306E+02  0.51100000000E-03 0. -1.
        -11    1    3    3    0    0 -0.80508698555E+01 -0.31753764553E+01 -0.16631874787E+02  0.18748834104E+02  0.51100000000E-03 0.  1.
         12    1    3    3    0    0  0.26541481993E+00  0.13576054220E+01 -0.13118518263E+02  0.13191249331E+02  0.00000000000E+00 0. -1.
</event>
<event>
 7    1  0.2740409E-010  0.4778725E+02  0.7816164E-02  0.1312668E+00
        -11   -1    0    0    0    0  0.00000000000E+00  0.00000000000E+00  0.45593999997E+02  0.45594000000E+02  0.51100000000E-03 0.  1.
         11   -1    0    0    0    0 -0.00000000000E+00 -0.00000000000E+00 -0.45593999997E+02  0.45594000000E+02  0.51100000000E-03 0. -1.
    9900012    2    1    2    0    0  0.31912678385E+02 -0.10381468943E+02 -0.27521474656E+02  0.47787245325E+02  0.19999882734E+02 0.  0.
        -12    1    1    2    0    0 -0.31912678385E+02  0.10381468943E+02  0.27521474656E+02  0.43400754675E+02  0.00000000000E+00 0.  1.
         11    1    3    3    0    0  0.16159225670E+02 -0.90859084446E+01 -0.21698821786E+02  0.28539677183E+02  0.51100000000E-03 0. -1.
        -11    1    3    3    0    0  0.77619421016E+01  0.13266864812E+01 -0.72651643138E+01  0.10714030753E+02  0.51100000000E-03 0.  1.
         12    1    3    3    0    0  0.79915106134E+01 -0.26222469796E+01  0.14425114440E+01  0.85335373892E+01  0.00000000000E+00 0. -1.
</event>
<event>
 7    1  0.2740409E-010  0.4778726E+02  0.7816164E-02  0.1312668E+00
        -11   -1    0    0    0    0  0.00000000000E+00  0.00000000000E+00  0.45593999997E+02  0.45594000000E+02  0.51100000000E-03 0. -1.
         11   -1    0    0    0    0 -0.00000000000E+00 -0.00000000000E+00 -0.45593999997E+02  0.45594000000E+02  0.51100000000E-03 0.  1.
    9900012    2    1    2    0    0  0.25744837911E+02  0.17472504586E+02  0.30257877079E+02  0.47787260134E+02  0.19999950257E+02 0.  0.
        -12    1    1    2    0    0 -0.25744837911E+02 -0.17472504586E+02 -0.30257877079E+02  0.43400739866E+02  0.00000000000E+00 0.  1.
         11    1    3    3    0    0 -0.13830920305E+01 -0.16502353090E+01  0.15397139341E+01  0.26470624096E+01  0.51100000000E-03 0. -1.
        -11    1    3    3    0    0  0.48007382561E+01  0.61848242076E+01  0.21862063438E+01  0.81288767195E+01  0.51100000000E-03 0.  1.
         12    1    3    3    0    0  0.22327191685E+02  0.12937915688E+02  0.26531956801E+02  0.37011321005E+02  0.00000000000E+00 0. -1.
</event>
<event>
 7    1  0.2740409E-010  0.4778727E+02  0.7816164E-02  0.1312668E+00
        -11   -1    0    0    0    0  0.00000000000E+00  0.00000000000E+00  0.45593999997E+02  0.45594000000E+02  0.51100000000E-03 0. -1.
         11   -1    0    0    0    0 -0.00000000000E+00 -0.00000000000E+00 -0.45593999997E+02  0.45594000000E+02  0.51100000000E-03 0.  1.
    9900012    2    1    2    0    0  0.32801188781E+02  0.23094408010E+02  0.16563624351E+02  0.47787270532E+02  0.19999997663E+02 0.  0.
        -12    1    1    2    0    0 -0.32801188781E+02 -0.23094408010E+02 -0.16563624351E+02  0.43400729468E+02  0.00000000000E+00 0.  1.
         11    1    3    3    0    0  0.20356802840E+02  0.18625110178E+02  0.19614746363E+02  0.33853100688E+02  0.51100000000E-03 0. -1.
        -11    1    3    3    0    0  0.10838147339E+02  0.26471013436E+01 -0.27111855484E+01  0.11481424589E+02  0.51100000000E-03 0.  1.
         12    1    3    3    0    0  0.16062386013E+01  0.18221964878E+01 -0.33993646397E+00  0.24527452547E+01  0.00000000000E+00 0. -1.
</event>
<event>
 7    1  0.2740409E-010  0.4778727E+02  0.7816164E-02  0.1312668E+00
        -11   -1    0    0    0    0  0.00000000000E+00  0.00000000000E+00  0.45593999997E+02  0.45594000000E+02  0.51100000000E-03 0.  1.
         11   -1    0    0    0    0 -0.00000000000E+00 -0.00000000000E+00 -0.45593999997E+02  0.45594000000E+02  0.51100000000E-03 0. -1.
    9900012    2    1    2    0    0  0.36433205554E+02  0.11018822107E+02 -0.20852580649E+02  0.47787273886E+02  0.20000012954E+02 0.  0.
        -12    1    1    2    0    0 -0.36433205554E+02 -0.11018822107E+02  0.20852580649E+02  0.43400726114E+02  0.00000000000E+00 0.  1.
         11    1    3    3    0    0  0.19716784786E+02 -0.24144237450E+01 -0.14291558364E+02  0.24470996814E+02  0.51100000000E-03 0. -1.
        -11    1    3    3    0    0  0.80192425372E+01  0.72161778334E+01 -0.65590867661E+01  0.12625493767E+02  0.51100000000E-03 0.  1.
         12    1    3    3    0    0  0.86971782302E+01  0.62170680191E+01 -0.19355182070E-02  0.10690783305E+02  0.00000000000E+00 0. -1.
</event>
<event>
 7    1  0.2740409E-010  0.4778727E+02  0.7816164E-02  0.1312668E+00
        -11   -1    0    0    0    0  0.00000000000E+00  0.00000000000E+00  0.45593999997E+02  0.45594000000E+02  0.51100000000E-03 0.  1.
         11   -1    0    0    0    0 -0.00000000000E+00 -0.00000000000E+00 -0.45593999997E+02  0.45594000000E+02  0.51100000000E-03 0. -1.
    9900012    2    1    2    0    0 -0.36597676159E+02 -0.84448394150E+01 -0.21746686876E+02  0.47787267252E+02  0.19999982707E+02 0.  0.
        -12    1    1    2    0    0  0.36597676159E+02  0.84448394150E+01  0.21746686876E+02  0.43400732748E+02  0.00000000000E+00 0.  1.
         11    1    3    3    0    0 -0.18825802610E+02 -0.36111576290E+01 -0.12260154648E+02  0.22754399478E+02  0.51100000000E-03 0. -1.
        -11    1    3    3    0    0 -0.44244991107E+01 -0.66534969057E+01 -0.82822272664E+01  0.11508279724E+02  0.51100000000E-03 0.  1.
        -12    1    3    3    0    0 -0.13347374439E+02  0.18198151197E+01 -0.12043049610E+01  0.13524588050E+02  0.00000000000E+00 0.  1.
</event>
<event>
 7    1  0.2740409E-010  0.4778727E+02  0.7816164E-02  0.1312668E+00
        -11   -1    0    0    0    0  0.00000000000E+00  0.00000000000E+00  0.45593999997E+02  0.45594000000E+02  0.51100000000E-03 0.  1.
         11   -1    0    0    0    0 -0.00000000000E+00 -0.00000000000E+00 -0.45593999997E+02  0.45594000000E+02  0.51100000000E-03 0. -1.
    9900012    2    1    2    0    0  0.42963997152E+02  0.35305443258E+00 -0.61313973850E+01  0.47787265759E+02  0.19999975902E+02 0.  0.
        -12    1    1    2    0    0 -0.42963997152E+02 -0.35305443258E+00  0.61313973850E+01  0.43400734241E+02  0.00000000000E+00 0.  1.
         11    1    3    3    0    0  0.20735303469E+02  0.53383364164E+01 -0.45300401248E+01  0.21885426874E+02  0.51100000000E-03 0. -1.
        -11    1    3    3    0    0  0.16957533097E+02 -0.90171660822E+01 -0.87479576034E+00  0.19225828481E+02  0.51100000000E-03 0.  1.
        -12    1    3    3    0    0  0.52711605858E+01  0.40318840984E+01 -0.72656149985E+00  0.66760104042E+01  0.00000000000E+00 0.  1.
</event>
<event>
 7    1  0.2740409E-010  0.4778727E+02  0.7816164E-02  0.1312668E+00
        -11   -1    0    0    0    0  0.00000000000E+00  0.00000000000E+00  0.45593999997E+02  0.45594000000E+02  0.51100000000E-03 0.  1.
         11   -1    0    0    0    0 -0.00000000000E+00 -0.00000000000E+00 -0.45593999997E+02  0.45594000000E+02  0.51100000000E-03 0. -1.
    9900012    2    1    2    0    0 -0.25404633756E+02 -0.83448074549E+00 -0.35178565241E+02  0.47787271587E+02  0.20000002472E+02 0.  0.
        -12    1    1    2    0    0  0.25404633756E+02  0.83448074549E+00  0.35178565241E+02  0.43400728413E+02  0.00000000000E+00 0.  1.
         11    1    3    3    0    0 -0.12267884936E+02 -0.29922738877E+00 -0.20374835863E+02  0.23784963202E+02  0.51100000000E-03 0. -1.
        -11    1    3    3    0    0 -0.58009978568E+00 -0.10782780215E+01  0.24013682933E+01  0.26955090788E+01  0.51100000000E-03 0.  1.
        -12    1    3    3    0    0 -0.12556649034E+02  0.54302466473E+00 -0.17205097672E+02  0.21306799306E+02  0.00000000000E+00 0.  1.
</event>
<event>
 7    1  0.2740409E-010  0.4778727E+02  0.7816164E-02  0.1312668E+00
        -11   -1    0    0    0    0  0.00000000000E+00  0.00000000000E+00  0.45593999997E+02  0.45594000000E+02  0.51100000000E-03 0.  1.
         11   -1    0    0    0    0 -0.00000000000E+00 -0.00000000000E+00 -0.45593999997E+02  0.45594000000E+02  0.51100000000E-03 0. -1.
    9900012    2    1    2    0    0 -0.32016103101E+02 -0.27604133215E+02 -0.98287548181E+01  0.47787269020E+02  0.19999990768E+02 0.  0.
        -12    1    1    2    0    0  0.32016103101E+02  0.27604133215E+02  0.98287548181E+01  0.43400730980E+02  0.00000000000E+00 0.  1.
         11    1    3    3    0    0 -0.26022492477E+02 -0.19707355875E+02 -0.47165666457E+01  0.32981752401E+02  0.51100000000E-03 0. -1.
        -11    1    3    3    0    0 -0.67999974274E+00  0.18201460366E+01 -0.29330904788E+01  0.35182881154E+01  0.51100000000E-03 0.  1.
        -12    1    3    3    0    0 -0.53136108820E+01 -0.97169233768E+01 -0.21790976936E+01  0.11287228503E+02  0.00000000000E+00 0.  1.
</event>
<event>
 7    1  0.2740409E-010  0.4778727E+02  0.7816164E-02  0.1312668E+00
        -11   -1    0    0    0    0  0.00000000000E+00  0.00000000000E+00  0.45593999997E+02  0.45594000000E+02  0.51100000000E-03 0.  1.
         11   -1    0    0    0    0 -0.00000000000E+00 -0.00000000000E+00 -0.45593999997E+02  0.45594000000E+02  0.51100000000E-03 0. -1.
    9900012    2    1    2    0    0 -0.15057551088E+02  0.28586176179E+02 -0.28977995082E+02  0.47787268298E+02  0.19999987478E+02 0.  0.
        -12    1    1    2    0    0  0.15057551088E+02 -0.28586176179E+02  0.28977995082E+02  0.43400731702E+02  0.00000000000E+00 0.  1.
         11    1    3    3    0    0 -0.48996900641E+01  0.24775449660E+02 -0.18083918132E+02  0.31062162897E+02  0.51100000000E-03 0. -1.
        -11    1    3    3    0    0 -0.59071919514E+01  0.25215596215E+01 -0.19065677224E+01  0.66998642089E+01  0.51100000000E-03 0.  1.
         12    1    3    3    0    0 -0.42506690722E+01  0.12891668983E+01 -0.89875092272E+01  0.10025241192E+02  0.00000000000E+00 0. -1.
</event>
<event>
 7    1  0.2740409E-010  0.4778727E+02  0.7816164E-02  0.1312668E+00
        -11   -1    0    0    0    0  0.00000000000E+00  0.00000000000E+00  0.45593999997E+02  0.45594000000E+02  0.51100000000E-03 0.  1.
         11   -1    0    0    0    0 -0.00000000000E+00 -0.00000000000E+00 -0.45593999997E+02  0.45594000000E+02  0.51100000000E-03 0. -1.
    9900012    2    1    2    0    0 -0.11303193094E+02 -0.68576590723E+01 -0.41338040389E+02  0.47787271374E+02  0.20000001503E+02 0.  0.
        -12    1    1    2    0    0  0.11303193094E+02  0.68576590723E+01  0.41338040389E+02  0.43400728626E+02  0.00000000000E+00 0.  1.
         11    1    3    3    0    0 -0.82919140436E+00  0.25886237065E+01 -0.98333154007E+01  0.10202089154E+02  0.51100000000E-03 0. -1.
        -11    1    3    3    0    0 -0.75072266627E+00 -0.57225325772E+01 -0.17038930667E+01  0.60178248116E+01  0.51100000000E-03 0.  1.
        -12    1    3    3    0    0 -0.97232790237E+01 -0.37237502016E+01 -0.29800831921E+02  0.31567357408E+02  0.00000000000E+00 0.  1.
</event>
<event>
 7    1  0.2740409E-010  0.4778726E+02  0.7816164E-02  0.1312668E+00
        -11   -1    0    0    0    0  0.00000000000E+00  0.00000000000E+00  0.45593999997E+02  0.45594000000E+02  0.51100000000E-03 0.  1.
         11   -1    0    0    0    0 -0.00000000000E+00 -0.00000000000E+00 -0.45593999997E+02  0.45594000000E+02  0.51100000000E-03 0. -1.
    9900012    2    1    2    0    0  0.15761465885E+02 -0.40395167800E+02 -0.18522038152E+01  0.47787262133E+02  0.19999959367E+02 0.  0.
        -12    1    1    2    0    0 -0.15761465885E+02  0.40395167800E+02  0.18522038152E+01  0.43400737867E+02  0.00000000000E+00 0.  1.
         11    1    3    3    0    0  0.20623042012E+01 -0.16938860867E+02  0.61179821208E+00  0.17074905663E+02  0.51100000000E-03 0. -1.
        -11    1    3    3    0    0  0.16314906580E+01 -0.41674369178E+01 -0.62085961105E+01  0.76534931995E+01  0.51100000000E-03 0.  1.
        -12    1    3    3    0    0  0.12067671025E+02 -0.19288870016E+02  0.37445940831E+01  0.23058863270E+02  0.00000000000E+00 0.  1.
</event>
<event>
 7    1  0.2740409E-010  0.4778728E+02  0.7816164E-02  0.1312668E+00
        -11   -1    0    0    0    0  0.00000000000E+00  0.00000000000E+00  0.45593999997E+02  0.45594000000E+02  0.51100000000E-03 0.  1.
         11   -1    0    0    0    0 -0.00000000000E+00 -0.00000000000E+00 -0.45593999997E+02  0.45594000000E+02  0.51100000000E-03 0. -1.
    9900012    2    1    2    0    0  0.41182696928E+02 -0.52143325661E+01 -0.12665666090E+02  0.47787275492E+02  0.20000020276E+02 0.  0.
        -12    1    1    2    0    0 -0.41182696928E+02  0.52143325661E+01  0.12665666090E+02  0.43400724508E+02  0.00000000000E+00 0.  1.
         11    1    3    3    0    0  0.14525224998E+02 -0.37567080988E+01 -0.55250392069E+01  0.15988154223E+02  0.51100000000E-03 0. -1.
        -11    1    3    3    0    0  0.57805078663E+01 -0.59801571635E+01 -0.62777589367E+01  0.10420499432E+02  0.51100000000E-03 0.  1.
        -12    1    3    3    0    0  0.20876964064E+02  0.45225326962E+01 -0.86286794668E+00  0.21378621836E+02  0.00000000000E+00 0.  1.
</event>
<event>
 7    1  0.2740409E-010  0.4778727E+02  0.7816164E-02  0.1312668E+00
        -11   -1    0    0    0    0  0.00000000000E+00  0.00000000000E+00  0.45593999997E+02  0.45594000000E+02  0.51100000000E-03 0.  1.
         11   -1    0    0    0    0 -0.00000000000E+00 -0.00000000000E+00 -0.45593999997E+02  0.45594000000E+02  0.51100000000E-03 0. -1.
    9900012    2    1    2    0    0 -0.14677592871E+02  0.39418664281E+02 -0.10693937416E+02  0.47787272775E+02  0.20000007890E+02 0.  0.
        -12    1    1    2    0    0  0.14677592871E+02 -0.39418664281E+02  0.10693937416E+02  0.43400727225E+02  0.00000000000E+00 0.  1.
         11    1    3    3    0    0 -0.11512545696E+01  0.70433069841E+01 -0.33152892640E+01  0.78692250903E+01  0.51100000000E-03 0. -1.
        -11    1    3    3    0    0 -0.15207981189E+02  0.31480669347E+02 -0.10285036597E+02  0.36443068099E+02  0.51100000000E-03 0.  1.
        -12    1    3    3    0    0  0.16816428873E+01  0.89468794965E+00  0.29063884447E+01  0.34749795855E+01  0.00000000000E+00 0.  1.
</event>
<event>
 7    1  0.2740409E-010  0.4778727E+02  0.7816164E-02  0.1312668E+00
        -11   -1    0    0    0    0  0.00000000000E+00  0.00000000000E+00  0.45593999997E+02  0.45594000000E+02  0.51100000000E-03 0.  1.
         11   -1    0    0    0    0 -0.00000000000E+00 -0.00000000000E+00 -0.45593999997E+02  0.45594000000E+02  0.51100000000E-03 0. -1.
    9900012    2    1    2    0    0 -0.16000064276E+02  0.40324400857E+02  0.12505587102E+01  0.47787271223E+02  0.20000000815E+02 0.  0.
        -12    1    1    2    0    0  0.16000064276E+02 -0.40324400857E+02 -0.12505587102E+01  0.43400728777E+02  0.00000000000E+00 0.  1.
         11    1    3    3    0    0 -0.16785199713E+02  0.31636695796E+02  0.65507586412E+01  0.36407909708E+02  0.51100000000E-03 0. -1.
        -11    1    3    3    0    0  0.55445452661E+00  0.37332444517E+01 -0.51913925382E+01  0.64183401830E+01  0.51100000000E-03 0.  1.
         12    1    3    3    0    0  0.23068091021E+00  0.49544606086E+01 -0.10880739272E+00  0.49610213317E+01  0.00000000000E+00 0. -1.
</event>
<event>
 7    1  0.2740409E-010  0.4778727E+02  0.7816164E-02  0.1312668E+00
        -11   -1    0    0    0    0  0.00000000000E+00  0.00000000000E+00  0.45593999997E+02  0.45594000000E+02  0.51100000000E-03 0.  1.
         11   -1    0    0    0    0 -0.00000000000E+00 -0.00000000000E+00 -0.45593999997E+02  0.45594000000E+02  0.51100000000E-03 0. -1.
    9900012    2    1    2    0    0 -0.43201509320E+02 -0.93869028096E+00  0.40461678264E+01  0.47787273957E+02  0.20000013279E+02 0.  0.
        -12    1    1    2    0    0  0.43201509320E+02  0.93869028096E+00 -0.40461678264E+01  0.43400726043E+02  0.00000000000E+00 0.  1.
         11    1    3    3    0    0 -0.27024146967E+02 -0.10029688427E+01  0.76083279712E+01  0.28092652430E+02  0.51100000000E-03 0. -1.
        -11    1    3    3    0    0  0.12522152985E+01 -0.10635726701E+01 -0.12746855834E+01  0.20794358792E+01  0.51100000000E-03 0.  1.
         12    1    3    3    0    0 -0.17429577652E+02  0.11278512319E+01 -0.22874745614E+01  0.17615185648E+02  0.00000000000E+00 0. -1.
</event>
<event>
 7    1  0.2740409E-010  0.4778728E+02  0.7816164E-02  0.1312668E+00
        -11   -1    0    0    0    0  0.00000000000E+00  0.00000000000E+00  0.45593999997E+02  0.45594000000E+02  0.51100000000E-03 0.  1.
         11   -1    0    0    0    0 -0.00000000000E+00 -0.00000000000E+00 -0.45593999997E+02  0.45594000000E+02  0.51100000000E-03 0. -1.
    9900012    2    1    2    0    0  0.13679391145E+02  0.65923133701E+01 -0.40657568741E+02  0.47787283029E+02  0.20000054640E+02 0.  0.
        -12    1    1    2    0    0 -0.13679391145E+02 -0.65923133701E+01  0.40657568741E+02  0.43400716971E+02  0.00000000000E+00 0.  1.
         11    1    3    3    0    0 -0.46887994033E+01  0.28212234512E+01 -0.10978574203E+02  0.12266753173E+02  0.51100000000E-03 0. -1.
        -11    1    3    3    0    0  0.13919745312E+02  0.34689129958E+01 -0.17985899750E+02  0.23006200403E+02  0.51100000000E-03 0.  1.
         12    1    3    3    0    0  0.44484452365E+01  0.30217692313E+00 -0.11693094789E+02  0.12514329453E+02  0.00000000000E+00 0. -1.
</event>
<event>
 7    1  0.2740409E-010  0.4778726E+02  0.7816164E-02  0.1312668E+00
        -11   -1    0    0    0    0  0.00000000000E+00  0.00000000000E+00  0.45593999997E+02  0.45594000000E+02  0.51100000000E-03 0.  1.
         11   -1    0    0    0    0 -0.00000000000E+00 -0.00000000000E+00 -0.45593999997E+02  0.45594000000E+02  0.51100000000E-03 0. -1.
    9900012    2    1    2    0    0 -0.29484300311E+02  0.92245323724E+01 -0.30482913365E+02  0.47787263030E+02  0.19999963461E+02 0.  0.
        -12    1    1    2    0    0  0.29484300311E+02 -0.92245323724E+01  0.30482913365E+02  0.43400736970E+02  0.00000000000E+00 0.  1.
         11    1    3    3    0    0 -0.20436384131E+02  0.29320652110E+01 -0.17704209099E+02  0.27197092176E+02  0.51100000000E-03 0. -1.
        -11    1    3    3    0    0 -0.15569050688E+01  0.41915073541E+01  0.11669787996E+01  0.46210958736E+01  0.51100000000E-03 0.  1.
         12    1    3    3    0    0 -0.74910111105E+01  0.21009598073E+01 -0.13945683066E+02  0.15969074981E+02  0.00000000000E+00 0. -1.
</event>
<event>
 7    1  0.2740409E-010  0.4778727E+02  0.7816164E-02  0.1312668E+00
        -11   -1    0    0    0    0  0.00000000000E+00  0.00000000000E+00  0.45593999997E+02  0.45594000000E+02  0.51100000000E-03 0. -1.
         11   -1    0    0    0    0 -0.00000000000E+00 -0.00000000000E+00 -0.45593999997E+02  0.45594000000E+02  0.51100000000E-03 0.  1.
    9900012    2    1    2    0    0  0.42279068830E+02 -0.57947301245E+01 -0.79072624829E+01  0.47787270072E+02  0.19999995566E+02 0.  0.
        -12    1    1    2    0    0 -0.42279068830E+02  0.57947301245E+01  0.79072624829E+01  0.43400729928E+02  0.00000000000E+00 0.  1.
         11    1    3    3    0    0  0.15164784645E+02 -0.38838622578E+01  0.20649107948E+01  0.15789836485E+02  0.51100000000E-03 0. -1.
        -11    1    3    3    0    0  0.36649385127E+01  0.44030281264E+01 -0.40069943464E+01  0.69910253137E+01  0.51100000000E-03 0.  1.
        -12    1    3    3    0    0  0.23449345672E+02 -0.63138959930E+01 -0.59651789313E+01  0.25006408273E+02  0.00000000000E+00 0.  1.
</event>
<event>
 7    1  0.2740409E-010  0.4778727E+02  0.7816164E-02  0.1312668E+00
        -11   -1    0    0    0    0  0.00000000000E+00  0.00000000000E+00  0.45593999997E+02  0.45594000000E+02  0.51100000000E-03 0.  1.
         11   -1    0    0    0    0 -0.00000000000E+00 -0.00000000000E+00 -0.45593999997E+02  0.45594000000E+02  0.51100000000E-03 0. -1.
    9900012    2    1    2    0    0 -0.22046216161E+02 -0.15525920544E+02 -0.34007844694E+02  0.47787270093E+02  0.19999995661E+02 0.  0.
        -12    1    1    2    0    0  0.22046216161E+02  0.15525920544E+02  0.34007844694E+02  0.43400729907E+02  0.00000000000E+00 0.  1.
         11    1    3    3    0    0 -0.90884939071E+01 -0.10820525151E+02 -0.24421423116E+02  0.28215073867E+02  0.51100000000E-03 0. -1.
        -11    1    3    3    0    0 -0.14610852264E+02 -0.39825888270E+01 -0.92240515389E+01  0.17731924450E+02  0.51100000000E-03 0.  1.
         12    1    3    3    0    0  0.16531300100E+01 -0.72280656664E+00 -0.36237003839E+00  0.18402717755E+01  0.00000000000E+00 0. -1.
</event>
<event>
 7    1  0.2740409E-010  0.4778727E+02  0.7816164E-02  0.1312668E+00
        -11   -1    0    0    0    0  0.00000000000E+00  0.00000000000E+00  0.45593999997E+02  0.45594000000E+02  0.51100000000E-03 0.  1.
         11   -1    0    0    0    0 -0.00000000000E+00 -0.00000000000E+00 -0.45593999997E+02  0.45594000000E+02  0.51100000000E-03 0. -1.
    9900012    2    1    2    0    0 -0.42620763686E+02 -0.77925293911E+01 -0.25239791210E+01  0.47787268646E+02  0.19999989063E+02 0.  0.
        -12    1    1    2    0    0  0.42620763686E+02  0.77925293911E+01  0.25239791210E+01  0.43400731354E+02  0.00000000000E+00 0.  1.
         11    1    3    3    0    0 -0.79465703916E+01 -0.88693005119E+01 -0.84352884236E-01  0.11908802972E+02  0.51100000000E-03 0.  1.
        -11    1    3    3    0    0 -0.27137626732E+02  0.35654009524E+01  0.60548311136E+00  0.27377536023E+02  0.51100000000E-03 0. -1.
         12    1    3    3    0    0 -0.75365665621E+01 -0.24886298316E+01 -0.30451093481E+01  0.85009296507E+01  0.00000000000E+00 0. -1.
</event>
<event>
 7    1  0.2740409E-010  0.4778727E+02  0.7816164E-02  0.1312668E+00
        -11   -1    0    0    0    0  0.00000000000E+00  0.00000000000E+00  0.45593999997E+02  0.45594000000E+02  0.51100000000E-03 0.  1.
         11   -1    0    0    0    0 -0.00000000000E+00 -0.00000000000E+00 -0.45593999997E+02  0.45594000000E+02  0.51100000000E-03 0. -1.
    9900012    2    1    2    0    0  0.13643183201E+02  0.14215560964E+01 -0.41176036037E+02  0.47787271742E+02  0.20000003179E+02 0.  0.
        -12    1    1    2    0    0 -0.13643183201E+02 -0.14215560964E+01  0.41176036037E+02  0.43400728258E+02  0.00000000000E+00 0.  1.
         11    1    3    3    0    0 -0.25844453195E+01 -0.27112916799E+01 -0.27575715323E+01  0.46513074721E+01  0.51100000000E-03 0.  1.
        -11    1    3    3    0    0  0.90456435746E+01  0.72209448167E+01 -0.26025924414E+02  0.28483582177E+02  0.51100000000E-03 0. -1.
         12    1    3    3    0    0  0.71819849463E+01 -0.30880970405E+01 -0.12392540091E+02  0.14652382093E+02  0.00000000000E+00 0. -1.
</event>
<event>
 7    1  0.2740409E-010  0.4778727E+02  0.7816164E-02  0.1312668E+00
        -11   -1    0    0    0    0  0.00000000000E+00  0.00000000000E+00  0.45593999997E+02  0.45594000000E+02  0.51100000000E-03 0.  1.
         11   -1    0    0    0    0 -0.00000000000E+00 -0.00000000000E+00 -0.45593999997E+02  0.45594000000E+02  0.51100000000E-03 0. -1.
    9900012    2    1    2    0    0 -0.58842359180E+01  0.40368368617E+02 -0.14811947789E+02  0.47787271729E+02  0.20000003122E+02 0.  0.
        -12    1    1    2    0    0  0.58842359180E+01 -0.40368368617E+02  0.14811947789E+02  0.43400728271E+02  0.00000000000E+00 0.  1.
         11    1    3    3    0    0 -0.84233275501E+01  0.11238911582E+02 -0.13654653049E+01  0.14111345660E+02  0.51100000000E-03 0. -1.
        -11    1    3    3    0    0  0.44990750771E+01  0.59127746843E+01 -0.46858794819E+01  0.87840792230E+01  0.51100000000E-03 0.  1.
        -12    1    3    3    0    0 -0.19599834450E+01  0.23216682350E+02 -0.87606030024E+01  0.24891846846E+02  0.00000000000E+00 0.  1.
</event>
<event>
 7    1  0.2740409E-010  0.4778727E+02  0.7816164E-02  0.1312668E+00
        -11   -1    0    0    0    0  0.00000000000E+00  0.00000000000E+00  0.45593999997E+02  0.45594000000E+02  0.51100000000E-03 0.  1.
         11   -1    0    0    0    0 -0.00000000000E+00 -0.00000000000E+00 -0.45593999997E+02  0.45594000000E+02  0.51100000000E-03 0. -1.
    9900012    2    1    2    0    0 -0.41256097521E+01  0.28460730142E+02 -0.32505221528E+02  0.47787271405E+02  0.20000001642E+02 0.  0.
        -12    1    1    2    0    0  0.41256097521E+01 -0.28460730142E+02  0.32505221528E+02  0.43400728595E+02  0.00000000000E+00 0.  1.
         11    1    3    3    0    0 -0.40356705305E+01  0.62568258074E+01 -0.13189862808E+02  0.15146187209E+02  0.51100000000E-03 0. -1.
        -11    1    3    3    0    0  0.59953692433E+01  0.58524061009E+01 -0.34558893231E+01  0.90630172023E+01  0.51100000000E-03 0.  1.
        -12    1    3    3    0    0 -0.60853084649E+01  0.16351498234E+02 -0.15859469397E+02  0.23578066993E+02  0.00000000000E+00 0.  1.
</event>
<event>
 7    1  0.2740409E-010  0.4778727E+02  0.7816164E-02  0.1312668E+00
        -11   -1    0    0    0    0  0.00000000000E+00  0.00000000000E+00  0.45593999997E+02  0.45594000000E+02  0.51100000000E-03 0.  1.
         11   -1    0    0    0    0 -0.00000000000E+00 -0.00000000000E+00 -0.45593999997E+02  0.45594000000E+02  0.51100000000E-03 0. -1.
    9900012    2    1    2    0    0  0.20564257815E+02 -0.22944751907E+02 -0.30565875039E+02  0.47787273549E+02  0.20000011419E+02 0.  0.
        -12    1    1    2    0    0 -0.20564257815E+02  0.22944751907E+02  0.30565875039E+02  0.43400726451E+02  0.00000000000E+00 0.  1.
         11    1    3    3    0    0  0.12344951844E+02 -0.17606268597E+02 -0.12031997118E+02  0.24640362921E+02  0.51100000000E-03 0.  1.
        -11    1    3    3    0    0  0.51134525447E+01  0.43241601492E+00 -0.22682308652E+01  0.56106374019E+01  0.51100000000E-03 0. -1.
         12    1    3    3    0    0  0.31058534267E+01 -0.57708993245E+01 -0.16265647056E+02  0.17536273227E+02  0.00000000000E+00 0. -1.
</event>
<event>
 7    1  0.2740409E-010  0.4778727E+02  0.7816164E-02  0.1312668E+00
        -11   -1    0    0    0    0  0.00000000000E+00  0.00000000000E+00  0.45593999997E+02  0.45594000000E+02  0.51100000000E-03 0.  1.
         11   -1    0    0    0    0 -0.00000000000E+00 -0.00000000000E+00 -0.45593999997E+02  0.45594000000E+02  0.51100000000E-03 0. -1.
    9900012    2    1    2    0    0  0.36015026290E+01 -0.26592760993E+02 -0.34109785316E+02  0.47787271749E+02  0.20000003212E+02 0.  0.
        -12    1    1    2    0    0 -0.36015026290E+01  0.26592760993E+02  0.34109785316E+02  0.43400728251E+02  0.00000000000E+00 0.  1.
         11    1    3    3    0    0  0.33552820158E+01 -0.14978341707E+02 -0.98645776943E+01  0.18246055219E+02  0.51100000000E-03 0. -1.
        -11    1    3    3    0    0  0.76166664959E+00 -0.83003277473E+01 -0.24780560604E+02  0.26144822832E+02  0.51100000000E-03 0.  1.
         12    1    3    3    0    0 -0.51544603633E+00 -0.33140915381E+01  0.53535298166E+00  0.33963936984E+01  0.00000000000E+00 0. -1.
</event>
<event>
 7    1  0.2740409E-010  0.4778724E+02  0.7816164E-02  0.1312668E+00
        -11   -1    0    0    0    0  0.00000000000E+00  0.00000000000E+00  0.45593999997E+02  0.45594000000E+02  0.51100000000E-03 0. -1.
         11   -1    0    0    0    0 -0.00000000000E+00 -0.00000000000E+00 -0.45593999997E+02  0.45594000000E+02  0.51100000000E-03 0.  1.
    9900012    2    1    2    0    0 -0.36535290704E+02  0.90444365186E+01  0.21610109801E+02  0.47787237975E+02  0.19999849222E+02 0.  0.
        -12    1    1    2    0    0  0.36535290704E+02 -0.90444365186E+01 -0.21610109801E+02  0.43400762025E+02  0.00000000000E+00 0.  1.
         11    1    3    3    0    0 -0.29835584476E+02  0.11416395784E+02  0.11936790087E+02  0.34102538785E+02  0.51100000000E-03 0. -1.
        -11    1    3    3    0    0 -0.78004553738E+01 -0.30397495354E+01  0.86721420060E+01  0.12053764081E+02  0.51100000000E-03 0.  1.
         12    1    3    3    0    0  0.11007491463E+01  0.66779027022E+00  0.10011777081E+01  0.16309351095E+01  0.00000000000E+00 0. -1.
</event>
<event>
 7    1  0.2740409E-010  0.4778733E+02  0.7816164E-02  0.1312667E+00
        -11   -1    0    0    0    0  0.00000000000E+00  0.00000000000E+00  0.45593999997E+02  0.45594000000E+02  0.51100000000E-03 0.  1.
         11   -1    0    0    0    0 -0.00000000000E+00 -0.00000000000E+00 -0.45593999997E+02  0.45594000000E+02  0.51100000000E-03 0. -1.
    9900012    2    1    2    0    0  0.11654844536E+02 -0.10994827122E+02 -0.40334805956E+02  0.47787329543E+02  0.20000266717E+02 0.  0.
        -12    1    1    2    0    0 -0.11654844536E+02  0.10994827122E+02  0.40334805956E+02  0.43400670457E+02  0.00000000000E+00 0.  1.
         11    1    3    3    0    0  0.13110218107E+02 -0.37078523298E+01 -0.17768109053E+02  0.22390437408E+02  0.51100000000E-03 0. -1.
        -11    1    3    3    0    0 -0.17982483076E+01 -0.68896922826E+01 -0.23373721784E+02  0.24434247011E+02  0.51100000000E-03 0.  1.
         12    1    3    3    0    0  0.34287473650E+00 -0.39728250983E+00  0.80702488057E+00  0.96264512434E+00  0.00000000000E+00 0. -1.
</event>
<event>
 7    1  0.2740409E-010  0.4778726E+02  0.7816164E-02  0.1312668E+00
        -11   -1    0    0    0    0  0.00000000000E+00  0.00000000000E+00  0.45593999997E+02  0.45594000000E+02  0.51100000000E-03 0. -1.
         11   -1    0    0    0    0 -0.00000000000E+00 -0.00000000000E+00 -0.45593999997E+02  0.45594000000E+02  0.51100000000E-03 0.  1.
    9900012    2    1    2    0    0 -0.10081526882E+02 -0.35202948796E+02  0.23296763154E+02  0.47787263121E+02  0.19999963873E+02 0.  0.
        -12    1    1    2    0    0  0.10081526882E+02  0.35202948796E+02 -0.23296763154E+02  0.43400736879E+02  0.00000000000E+00 0.  1.
         11    1    3    3    0    0 -0.40226393641E+01 -0.27892567306E+02  0.14250570226E+02  0.31579355447E+02  0.51100000000E-03 0.  1.
        -11    1    3    3    0    0 -0.55751112235E+00 -0.53539375408E+01 -0.68565249975E-01  0.53833230719E+01  0.51100000000E-03 0. -1.
         12    1    3    3    0    0 -0.55013763958E+01 -0.19564439491E+01  0.91147581776E+01  0.10824584602E+02  0.00000000000E+00 0. -1.
</event>
<event>
 7    1  0.2740409E-010  0.4778727E+02  0.7816164E-02  0.1312668E+00
        -11   -1    0    0    0    0  0.00000000000E+00  0.00000000000E+00  0.45593999997E+02  0.45594000000E+02  0.51100000000E-03 0.  1.
         11   -1    0    0    0    0 -0.00000000000E+00 -0.00000000000E+00 -0.45593999997E+02  0.45594000000E+02  0.51100000000E-03 0. -1.
    9900012    2    1    2    0    0 -0.96470288591E+01  0.62809552417E+00 -0.42310325311E+02  0.47787270769E+02  0.19999998746E+02 0.  0.
        -12    1    1    2    0    0  0.96470288591E+01 -0.62809552417E+00  0.42310325311E+02  0.43400729231E+02  0.00000000000E+00 0.  1.
         11    1    3    3    0    0 -0.21020544836E+01  0.73671602106E+01 -0.88637460195E+01  0.11715787484E+02  0.51100000000E-03 0. -1.
        -11    1    3    3    0    0  0.11191732885E+00 -0.38261654863E+01 -0.19704114529E+02  0.20072473626E+02  0.51100000000E-03 0.  1.
         12    1    3    3    0    0 -0.76568917043E+01 -0.29128992002E+01 -0.13742464763E+02  0.15999009659E+02  0.00000000000E+00 0. -1.
</event>
<event>
 7    1  0.2740409E-010  0.4778727E+02  0.7816164E-02  0.1312668E+00
        -11   -1    0    0    0    0  0.00000000000E+00  0.00000000000E+00  0.45593999997E+02  0.45594000000E+02  0.51100000000E-03 0. -1.
         11   -1    0    0    0    0 -0.00000000000E+00 -0.00000000000E+00 -0.45593999997E+02  0.45594000000E+02  0.51100000000E-03 0.  1.
    9900012    2    1    2    0    0  0.23707232836E+02  0.26708856723E+02  0.24662274792E+02  0.47787265972E+02  0.19999976873E+02 0.  0.
        -12    1    1    2    0    0 -0.23707232836E+02 -0.26708856723E+02 -0.24662274792E+02  0.43400734028E+02  0.00000000000E+00 0.  1.
         11    1    3    3    0    0  0.51692146699E+01  0.17879508797E+02  0.16540552617E+02  0.24899548114E+02  0.51100000000E-03 0. -1.
        -11    1    3    3    0    0  0.10050029790E+02  0.32406438961E+01  0.12805364080E+01  0.10636947184E+02  0.51100000000E-03 0.  1.
        -12    1    3    3    0    0  0.84879883769E+01  0.55887040307E+01  0.68411857668E+01  0.12250770675E+02  0.00000000000E+00 0.  1.
</event>
<event>
 7    1  0.2740409E-010  0.4778727E+02  0.7816164E-02  0.1312668E+00
        -11   -1    0    0    0    0  0.00000000000E+00  0.00000000000E+00  0.45593999997E+02  0.45594000000E+02  0.51100000000E-03 0.  1.
         11   -1    0    0    0    0 -0.00000000000E+00 -0.00000000000E+00 -0.45593999997E+02  0.45594000000E+02  0.51100000000E-03 0. -1.
    9900012    2    1    2    0    0  0.91155330722E+01 -0.38312586780E+02 -0.18239412216E+02  0.47787269512E+02  0.19999993011E+02 0.  0.
        -12    1    1    2    0    0 -0.91155330722E+01  0.38312586780E+02  0.18239412216E+02  0.43400730488E+02  0.00000000000E+00 0.  1.
         11    1    3    3    0    0  0.30665559752E+01 -0.88458443765E+01  0.36012649132E+01  0.10031043690E+02  0.51100000000E-03 0. -1.
        -11    1    3    3    0    0 -0.27499111380E-01  0.68816434822E-01  0.32399539115E+00  0.33236302056E+00  0.51100000000E-03 0.  1.
         12    1    3    3    0    0  0.60764762084E+01 -0.29535558838E+02 -0.22164672521E+02  0.37423862801E+02  0.00000000000E+00 0. -1.
</event>
<event>
 7    1  0.2740409E-010  0.4778727E+02  0.7816164E-02  0.1312668E+00
        -11   -1    0    0    0    0  0.00000000000E+00  0.00000000000E+00  0.45593999997E+02  0.45594000000E+02  0.51100000000E-03 0. -1.
         11   -1    0    0    0    0 -0.00000000000E+00 -0.00000000000E+00 -0.45593999997E+02  0.45594000000E+02  0.51100000000E-03 0.  1.
    9900012    2    1    2    0    0 -0.12125577207E+02  0.67325868862E+01  0.41125002171E+02  0.47787272444E+02  0.20000006381E+02 0.  0.
        -12    1    1    2    0    0  0.12125577207E+02 -0.67325868862E+01 -0.41125002171E+02  0.43400727556E+02  0.00000000000E+00 0.  1.
         11    1    3    3    0    0 -0.16562854984E+02  0.28914432178E+01  0.29051995547E+02  0.33566457285E+02  0.51100000000E-03 0. -1.
        -11    1    3    3    0    0  0.49576274703E+01  0.22087810295E+01  0.10797659135E+02  0.12084958702E+02  0.51100000000E-03 0.  1.
         12    1    3    3    0    0 -0.52034969391E+00  0.16323626389E+01  0.12753474889E+01  0.21358564573E+01  0.00000000000E+00 0. -1.
</event>
<event>
 7    1  0.2740409E-010  0.4778727E+02  0.7816164E-02  0.1312668E+00
        -11   -1    0    0    0    0  0.00000000000E+00  0.00000000000E+00  0.45593999997E+02  0.45594000000E+02  0.51100000000E-03 0.  1.
         11   -1    0    0    0    0 -0.00000000000E+00 -0.00000000000E+00 -0.45593999997E+02  0.45594000000E+02  0.51100000000E-03 0. -1.
    9900012    2    1    2    0    0 -0.36506789967E+02  0.20887204903E+02  0.10705243608E+02  0.47787270939E+02  0.19999999517E+02 0.  0.
        -12    1    1    2    0    0  0.36506789967E+02 -0.20887204903E+02 -0.10705243608E+02  0.43400729061E+02  0.00000000000E+00 0.  1.
         11    1    3    3    0    0 -0.11999943653E+02  0.17892504795E+01 -0.34958239046E+01  0.12626196973E+02  0.51100000000E-03 0. -1.
        -11    1    3    3    0    0 -0.12864340259E+02  0.14649315848E+02  0.10582400878E+02  0.22182896874E+02  0.51100000000E-03 0.  1.
         12    1    3    3    0    0 -0.11642506055E+02  0.44486385749E+01  0.36186666345E+01  0.12978177092E+02  0.00000000000E+00 0. -1.
</event>
<event>
 7    1  0.2740409E-010  0.4778728E+02  0.7816164E-02  0.1312668E+00
        -11   -1    0    0    0    0  0.00000000000E+00  0.00000000000E+00  0.45593999997E+02  0.45594000000E+02  0.51100000000E-03 0.  1.
         11   -1    0    0    0    0 -0.00000000000E+00 -0.00000000000E+00 -0.45593999997E+02  0.45594000000E+02  0.51100000000E-03 0. -1.
    9900012    2    1    2    0    0  0.14259397160E+02  0.37271731492E+02 -0.17061962139E+02  0.47787275031E+02  0.20000018178E+02 0.  0.
        -12    1    1    2    0    0 -0.14259397160E+02 -0.37271731492E+02  0.17061962139E+02  0.43400724969E+02  0.00000000000E+00 0.  1.
         11    1    3    3    0    0  0.15874664157E+01  0.11509329607E+02 -0.10070473810E+02  0.15375277579E+02  0.51100000000E-03 0. -1.
        -11    1    3    3    0    0  0.40704063822E+01  0.11304779890E+02 -0.96111582999E+01  0.15386377761E+02  0.51100000000E-03 0.  1.
        -12    1    3    3    0    0  0.86015243619E+01  0.14457621995E+02  0.26196699713E+01  0.17025619691E+02  0.00000000000E+00 0.  1.
</event>
<event>
 7    1  0.2740409E-010  0.4778725E+02  0.7816164E-02  0.1312668E+00
        -11   -1    0    0    0    0  0.00000000000E+00  0.00000000000E+00  0.45593999997E+02  0.45594000000E+02  0.51100000000E-03 0.  1.
         11   -1    0    0    0    0 -0.00000000000E+00 -0.00000000000E+00 -0.45593999997E+02  0.45594000000E+02  0.51100000000E-03 0. -1.
    9900012    2    1    2    0    0 -0.28955302894E+02  0.29580157906E+02 -0.13047210107E+02  0.47787251170E+02  0.19999909383E+02 0.  0.
        -12    1    1    2    0    0  0.28955302894E+02 -0.29580157906E+02  0.13047210107E+02  0.43400748830E+02  0.00000000000E+00 0.  1.
         11    1    3    3    0    0 -0.20510795674E+02  0.23640544859E+02 -0.14723583264E+02  0.34588321798E+02  0.51100000000E-03 0. -1.
        -11    1    3    3    0    0 -0.67152728444E+00  0.34393815035E+01  0.33679130520E+01  0.48603634233E+01  0.51100000000E-03 0.  1.
         12    1    3    3    0    0 -0.77729799359E+01  0.25002315432E+01 -0.16915398949E+01  0.83385659480E+01  0.00000000000E+00 0. -1.
</event>
<event>
 7    1  0.2740409E-010  0.4778728E+02  0.7816164E-02  0.1312668E+00
        -11   -1    0    0    0    0  0.00000000000E+00  0.00000000000E+00  0.45593999997E+02  0.45594000000E+02  0.51100000000E-03 0.  1.
         11   -1    0    0    0    0 -0.00000000000E+00 -0.00000000000E+00 -0.45593999997E+02  0.45594000000E+02  0.51100000000E-03 0. -1.
    9900012    2    1    2    0    0  0.34691251519E+01  0.11284870244E+01 -0.43247128960E+02  0.47787280241E+02  0.20000041933E+02 0.  0.
        -12    1    1    2    0    0 -0.34691251519E+01 -0.11284870244E+01  0.43247128960E+02  0.43400719759E+02  0.00000000000E+00 0.  1.
         11    1    3    3    0    0  0.48118035003E+01 -0.53552966018E+00 -0.30356526114E+02  0.30740184172E+02  0.51100000000E-03 0. -1.
        -11    1    3    3    0    0 -0.53967132037E+01  0.34564578150E+01 -0.55793741070E+01  0.84971189068E+01  0.51100000000E-03 0.  1.
        -12    1    3    3    0    0  0.40540348553E+01 -0.17924411304E+01 -0.73112287391E+01  0.85499771631E+01  0.00000000000E+00 0.  1.
</event>
<event>
 7    1  0.2740409E-010  0.4778726E+02  0.7816164E-02  0.1312668E+00
        -11   -1    0    0    0    0  0.00000000000E+00  0.00000000000E+00  0.45593999997E+02  0.45594000000E+02  0.51100000000E-03 0.  1.
         11   -1    0    0    0    0 -0.00000000000E+00 -0.00000000000E+00 -0.45593999997E+02  0.45594000000E+02  0.51100000000E-03 0. -1.
    9900012    2    1    2    0    0 -0.71832326682E+01  0.37034550028E+02 -0.21458506427E+02  0.47787260082E+02  0.19999950016E+02 0.  0.
        -12    1    1    2    0    0  0.71832326682E+01 -0.37034550028E+02  0.21458506427E+02  0.43400739918E+02  0.00000000000E+00 0.  1.
         11    1    3    3    0    0 -0.64443622172E+01  0.15836642714E+02 -0.19687769624E+02  0.26075607948E+02  0.51100000000E-03 0. -1.
        -11    1    3    3    0    0  0.35608164443E+00  0.19870924837E+02 -0.12465937604E+01  0.19913172632E+02  0.51100000000E-03 0.  1.
         12    1    3    3    0    0 -0.10949520954E+01  0.13269824779E+01 -0.52414304267E+00  0.17984795014E+01  0.00000000000E+00 0. -1.
</event>
<event>
 7    1  0.2740409E-010  0.4778727E+02  0.7816164E-02  0.1312668E+00
        -11   -1    0    0    0    0  0.00000000000E+00  0.00000000000E+00  0.45593999997E+02  0.45594000000E+02  0.51100000000E-03 0. -1.
         11   -1    0    0    0    0 -0.00000000000E+00 -0.00000000000E+00 -0.45593999997E+02  0.45594000000E+02  0.51100000000E-03 0.  1.
    9900012    2    1    2    0    0  0.28046323363E+02 -0.25336962514E+02  0.21332255709E+02  0.47787273540E+02  0.20000011379E+02 0.  0.
        -12    1    1    2    0    0 -0.28046323363E+02  0.25336962514E+02 -0.21332255709E+02  0.43400726460E+02  0.00000000000E+00 0.  1.
         11    1    3    3    0    0  0.17814455978E+02 -0.13432164971E+02  0.78206920763E+01  0.23641935675E+02  0.51100000000E-03 0. -1.
        -11    1    3    3    0    0 -0.22938397168E+01 -0.38889256871E+01  0.59299539646E+01  0.74531736817E+01  0.51100000000E-03 0.  1.
         12    1    3    3    0    0  0.12525707101E+02 -0.80158718550E+01  0.75816096684E+01  0.16692164184E+02  0.00000000000E+00 0. -1.
</event>
<event>
 7    1  0.2740409E-010  0.4778727E+02  0.7816164E-02  0.1312668E+00
        -11   -1    0    0    0    0  0.00000000000E+00  0.00000000000E+00  0.45593999997E+02  0.45594000000E+02  0.51100000000E-03 0.  1.
         11   -1    0    0    0    0 -0.00000000000E+00 -0.00000000000E+00 -0.45593999997E+02  0.45594000000E+02  0.51100000000E-03 0. -1.
    9900012    2    1    2    0    0 -0.13018248480E+02 -0.31335063314E+02 -0.27060345393E+02  0.47787270984E+02  0.19999999723E+02 0.  0.
        -12    1    1    2    0    0  0.13018248480E+02  0.31335063314E+02  0.27060345393E+02  0.43400729016E+02  0.00000000000E+00 0.  1.
         11    1    3    3    0    0 -0.95265502278E+01 -0.34270193070E+01 -0.76847891072E+01  0.12710452567E+02  0.51100000000E-03 0. -1.
        -11    1    3    3    0    0 -0.25896013095E+01 -0.15923997409E+02 -0.15694611306E+02  0.22507788713E+02  0.51100000000E-03 0.  1.
         12    1    3    3    0    0 -0.90209694269E+00 -0.11984046598E+02 -0.36809449791E+01  0.12569029704E+02  0.00000000000E+00 0. -1.
</event>
<event>
 7    1  0.2740409E-010  0.4778727E+02  0.7816164E-02  0.1312668E+00
        -11   -1    0    0    0    0  0.00000000000E+00  0.00000000000E+00  0.45593999997E+02  0.45594000000E+02  0.51100000000E-03 0.  1.
         11   -1    0    0    0    0 -0.00000000000E+00 -0.00000000000E+00 -0.45593999997E+02  0.45594000000E+02  0.51100000000E-03 0. -1.
    9900012    2    1    2    0    0  0.19763745260E+02 -0.14252695135E+02 -0.35914876803E+02  0.47787270500E+02  0.19999997517E+02 0.  0.
        -12    1    1    2    0    0 -0.19763745260E+02  0.14252695135E+02  0.35914876803E+02  0.43400729500E+02  0.00000000000E+00 0.  1.
         11    1    3    3    0    0  0.41670689512E+01 -0.61400274752E+01 -0.20409132415E+02  0.21716286221E+02  0.51100000000E-03 0. -1.
        -11    1    3    3    0    0  0.14315292434E+02 -0.21158084839E+01 -0.12978996089E+02  0.19438584896E+02  0.51100000000E-03 0.  1.
         12    1    3    3    0    0  0.12813838753E+01 -0.59968591760E+01 -0.25267482998E+01  0.66323993836E+01  0.00000000000E+00 0. -1.
</event>
<event>
 7    1  0.2740409E-010  0.4778727E+02  0.7816164E-02  0.1312668E+00
        -11   -1    0    0    0    0  0.00000000000E+00  0.00000000000E+00  0.45593999997E+02  0.45594000000E+02  0.51100000000E-03 0. -1.
         11   -1    0    0    0    0 -0.00000000000E+00 -0.00000000000E+00 -0.45593999997E+02  0.45594000000E+02  0.51100000000E-03 0.  1.
    9900012    2    1    2    0    0 -0.67290715759E+01  0.13427063802E+02  0.40719240355E+02  0.47787274411E+02  0.20000015348E+02 0.  0.
        -12    1    1    2    0    0  0.67290715759E+01 -0.13427063802E+02 -0.40719240355E+02  0.43400725589E+02  0.00000000000E+00 0.  1.
         11    1    3    3    0    0 -0.13732373345E+01  0.36205620623E+01  0.19109362704E+01  0.43180931109E+01  0.51100000000E-03 0. -1.
        -11    1    3    3    0    0 -0.35747279292E+01  0.61371073053E+01  0.34851689572E+01  0.79113316683E+01  0.51100000000E-03 0.  1.
         12    1    3    3    0    0 -0.17811063122E+01  0.36693944345E+01  0.35323135127E+02  0.35557849631E+02  0.00000000000E+00 0. -1.
</event>
<event>
 7    1  0.2740409E-010  0.4778728E+02  0.7816164E-02  0.1312668E+00
        -11   -1    0    0    0    0  0.00000000000E+00  0.00000000000E+00  0.45593999997E+02  0.45594000000E+02  0.51100000000E-03 0. -1.
         11   -1    0    0    0    0 -0.00000000000E+00 -0.00000000000E+00 -0.45593999997E+02  0.45594000000E+02  0.51100000000E-03 0.  1.
    9900012    2    1    2    0    0  0.14303773993E+02  0.22056101840E+02  0.34533364250E+02  0.47787276212E+02  0.20000023563E+02 0.  0.
        -12    1    1    2    0    0 -0.14303773993E+02 -0.22056101840E+02 -0.34533364250E+02  0.43400723788E+02  0.00000000000E+00 0.  1.
         11    1    3    3    0    0  0.11006088535E+02  0.19607820851E+02  0.29256453630E+02  0.36899060999E+02  0.51100000000E-03 0. -1.
        -11    1    3    3    0    0  0.27379304854E+01 -0.29469816964E+01  0.15687761933E+01  0.43176409609E+01  0.51100000000E-03 0.  1.
        -12    1    3    3    0    0  0.55975497328E+00  0.53952626855E+01  0.37081344270E+01  0.65705742522E+01  0.00000000000E+00 0.  1.
</event>
<event>
 7    1  0.2740409E-010  0.4778727E+02  0.7816164E-02  0.1312668E+00
        -11   -1    0    0    0    0  0.00000000000E+00  0.00000000000E+00  0.45593999997E+02  0.45594000000E+02  0.51100000000E-03 0.  1.
         11   -1    0    0    0    0 -0.00000000000E+00 -0.00000000000E+00 -0.45593999997E+02  0.45594000000E+02  0.51100000000E-03 0. -1.
    9900012    2    1    2    0    0  0.35098891654E+02 -0.14920844819E+02 -0.20713757266E+02  0.47787267915E+02  0.19999985733E+02 0.  0.
        -12    1    1    2    0    0 -0.35098891654E+02  0.14920844819E+02  0.20713757266E+02  0.43400732085E+02  0.00000000000E+00 0.  1.
         11    1    3    3    0    0  0.13408970171E+02 -0.15032333166E+02 -0.70279872308E+01  0.21334575839E+02  0.51100000000E-03 0. -1.
        -11    1    3    3    0    0  0.17811871879E+02 -0.34736004947E+00 -0.79377474840E+01  0.19503622079E+02  0.51100000000E-03 0.  1.
         12    1    3    3    0    0  0.38780496046E+01  0.45884839630E+00 -0.57480225507E+01  0.69490699975E+01  0.00000000000E+00 0. -1.
</event>
<event>
 7    1  0.2740409E-010  0.4778725E+02  0.7816164E-02  0.1312668E+00
        -11   -1    0    0    0    0  0.00000000000E+00  0.00000000000E+00  0.45593999997E+02  0.45594000000E+02  0.51100000000E-03 0. -1.
         11   -1    0    0    0    0 -0.00000000000E+00 -0.00000000000E+00 -0.45593999997E+02  0.45594000000E+02  0.51100000000E-03 0.  1.
    9900012    2    1    2    0    0 -0.38695570505E+02 -0.19605356958E+02 -0.13811354997E+01  0.47787254230E+02  0.19999923334E+02 0.  0.
        -12    1    1    2    0    0  0.38695570505E+02  0.19605356958E+02  0.13811354997E+01  0.43400745770E+02  0.00000000000E+00 0.  1.
         11    1    3    3    0    0  0.15430493226E+01  0.37528594139E+00  0.34971870706E+00  0.16260824656E+01  0.51100000000E-03 0.  1.
        -11    1    3    3    0    0 -0.26110735495E+02 -0.77611305596E+01  0.11347857559E+01  0.27263407612E+02  0.51100000000E-03 0. -1.
        -12    1    3    3    0    0 -0.14127884332E+02 -0.12219512340E+02 -0.28656399627E+01  0.18897764152E+02  0.00000000000E+00 0.  1.
</event>
<event>
 7    1  0.2740409E-010  0.4778727E+02  0.7816164E-02  0.1312668E+00
        -11   -1    0    0    0    0  0.00000000000E+00  0.00000000000E+00  0.45593999997E+02  0.45594000000E+02  0.51100000000E-03 0. -1.
         11   -1    0    0    0    0 -0.00000000000E+00 -0.00000000000E+00 -0.45593999997E+02  0.45594000000E+02  0.51100000000E-03 0.  1.
    9900012    2    1    2    0    0  0.20406008231E+02 -0.16882258678E+02  0.34383241587E+02  0.47787272678E+02  0.20000007450E+02 0.  0.
        -12    1    1    2    0    0 -0.20406008231E+02  0.16882258678E+02 -0.34383241587E+02  0.43400727322E+02  0.00000000000E+00 0.  1.
         11    1    3    3    0    0 -0.40651611643E+00 -0.54868435869E+01  0.16255231127E+02  0.17161096910E+02  0.51100000000E-03 0. -1.
        -11    1    3    3    0    0  0.70149306663E+01 -0.36390662536E+01  0.22738250833E+01  0.82232801376E+01  0.51100000000E-03 0.  1.
         12    1    3    3    0    0  0.13797593681E+02 -0.77563488379E+01  0.15854185377E+02  0.22402895631E+02  0.00000000000E+00 0. -1.
</event>
<event>
 7    1  0.2740409E-010  0.4778727E+02  0.7816164E-02  0.1312668E+00
        -11   -1    0    0    0    0  0.00000000000E+00  0.00000000000E+00  0.45593999997E+02  0.45594000000E+02  0.51100000000E-03 0.  1.
         11   -1    0    0    0    0 -0.00000000000E+00 -0.00000000000E+00 -0.45593999997E+02  0.45594000000E+02  0.51100000000E-03 0. -1.
    9900012    2    1    2    0    0  0.21604427002E+02 -0.10112134650E+02 -0.36257643460E+02  0.47787271406E+02  0.20000001648E+02 0.  0.
        -12    1    1    2    0    0 -0.21604427002E+02  0.10112134650E+02  0.36257643460E+02  0.43400728594E+02  0.00000000000E+00 0.  1.
         11    1    3    3    0    0  0.76982295714E+00 -0.33257363367E+00 -0.14265730353E+02  0.14290356727E+02  0.51100000000E-03 0. -1.
        -11    1    3    3    0    0  0.16627442611E+02 -0.36790449404E+01 -0.11116694592E+02  0.20336865992E+02  0.51100000000E-03 0.  1.
         12    1    3    3    0    0  0.42071614341E+01 -0.61005160758E+01 -0.10875218514E+02  0.13160048687E+02  0.00000000000E+00 0. -1.
</event>
<event>
 7    1  0.2740409E-010  0.4778729E+02  0.7816164E-02  0.1312668E+00
        -11   -1    0    0    0    0  0.00000000000E+00  0.00000000000E+00  0.45593999997E+02  0.45594000000E+02  0.51100000000E-03 0.  1.
         11   -1    0    0    0    0 -0.00000000000E+00 -0.00000000000E+00 -0.45593999997E+02  0.45594000000E+02  0.51100000000E-03 0. -1.
    9900012    2    1    2    0    0 -0.21873369841E+02 -0.30517456224E+02 -0.21768381129E+02  0.47787287338E+02  0.20000074290E+02 0.  0.
        -12    1    1    2    0    0  0.21873369841E+02  0.30517456224E+02  0.21768381129E+02  0.43400712662E+02  0.00000000000E+00 0.  1.
         11    1    3    3    0    0 -0.92629233804E+01 -0.18783837300E+02 -0.18118861778E+02  0.27693454924E+02  0.51100000000E-03 0. -1.
        -11    1    3    3    0    0 -0.13659119117E+02 -0.10810527432E+02 -0.14390023904E+01  0.17478837677E+02  0.51100000000E-03 0.  1.
        -12    1    3    3    0    0  0.10486726560E+01 -0.92309149195E+00 -0.22105169605E+01  0.26149947370E+01  0.00000000000E+00 0.  1.
</event>
<event>
 7    1  0.2740409E-010  0.4778727E+02  0.7816164E-02  0.1312668E+00
        -11   -1    0    0    0    0  0.00000000000E+00  0.00000000000E+00  0.45593999997E+02  0.45594000000E+02  0.51100000000E-03 0.  1.
         11   -1    0    0    0    0 -0.00000000000E+00 -0.00000000000E+00 -0.45593999997E+02  0.45594000000E+02  0.51100000000E-03 0. -1.
    9900012    2    1    2    0    0  0.20470888628E+02  0.37763416017E+02 -0.62040542547E+01  0.47787272360E+02  0.20000005997E+02 0.  0.
        -12    1    1    2    0    0 -0.20470888628E+02 -0.37763416017E+02  0.62040542547E+01  0.43400727640E+02  0.00000000000E+00 0.  1.
         11    1    3    3    0    0  0.73937247433E+01  0.17920598385E+02 -0.25851907034E+01  0.19557561793E+02  0.51100000000E-03 0. -1.
        -11    1    3    3    0    0  0.80221604329E+00 -0.17318738814E+01 -0.28067502215E+01  0.33942281580E+01  0.51100000000E-03 0.  1.
        -12    1    3    3    0    0  0.12274947841E+02  0.21574691514E+02 -0.81211332974E+00  0.24835482409E+02  0.00000000000E+00 0.  1.
</event>
<event>
 7    1  0.2740409E-010  0.4778727E+02  0.7816164E-02  0.1312668E+00
        -11   -1    0    0    0    0  0.00000000000E+00  0.00000000000E+00  0.45593999997E+02  0.45594000000E+02  0.51100000000E-03 0. -1.
         11   -1    0    0    0    0 -0.00000000000E+00 -0.00000000000E+00 -0.45593999997E+02  0.45594000000E+02  0.51100000000E-03 0.  1.
    9900012    2    1    2    0    0  0.36316448258E+01 -0.27456294848E+02  0.33415360284E+02  0.47787271045E+02  0.20000000001E+02 0.  0.
        -12    1    1    2    0    0 -0.36316448258E+01  0.27456294848E+02 -0.33415360284E+02  0.43400728955E+02  0.00000000000E+00 0.  1.
         11    1    3    3    0    0 -0.33964921153E+01 -0.19075713574E+02  0.19469747200E+02  0.27467982513E+02  0.51100000000E-03 0. -1.
        -11    1    3    3    0    0  0.99463732570E+00  0.18087335980E+01  0.53210194123E-01  0.20648613087E+01  0.51100000000E-03 0.  1.
        -12    1    3    3    0    0  0.60334996154E+01 -0.10189314872E+02  0.13892402890E+02  0.18254427223E+02  0.00000000000E+00 0.  1.
</event>
<event>
 7    1  0.2740409E-010  0.4778727E+02  0.7816164E-02  0.1312668E+00
        -11   -1    0    0    0    0  0.00000000000E+00  0.00000000000E+00  0.45593999997E+02  0.45594000000E+02  0.51100000000E-03 0.  1.
         11   -1    0    0    0    0 -0.00000000000E+00 -0.00000000000E+00 -0.45593999997E+02  0.45594000000E+02  0.51100000000E-03 0. -1.
    9900012    2    1    2    0    0 -0.35911169853E+02 -0.23623062300E+02 -0.59968595082E+01  0.47787268248E+02  0.19999987251E+02 0.  0.
        -12    1    1    2    0    0  0.35911169853E+02  0.23623062300E+02  0.59968595082E+01  0.43400731752E+02  0.00000000000E+00 0.  1.
         11    1    3    3    0    0 -0.25760093283E+02 -0.18618018059E+02 -0.18818646079E+01  0.31839510314E+02  0.51100000000E-03 0.  1.
        -11    1    3    3    0    0 -0.15418210427E+01 -0.28153734557E+00  0.32930112938E+01  0.36469712156E+01  0.51100000000E-03 0. -1.
         12    1    3    3    0    0 -0.86092555269E+01 -0.47235068957E+01 -0.74080061942E+01  0.12300786718E+02  0.00000000000E+00 0. -1.
</event>
<event>
 7    1  0.2740409E-010  0.4778727E+02  0.7816164E-02  0.1312668E+00
        -11   -1    0    0    0    0  0.00000000000E+00  0.00000000000E+00  0.45593999997E+02  0.45594000000E+02  0.51100000000E-03 0. -1.
         11   -1    0    0    0    0 -0.00000000000E+00 -0.00000000000E+00 -0.45593999997E+02  0.45594000000E+02  0.51100000000E-03 0.  1.
    9900012    2    1    2    0    0  0.27994209872E+02  0.34446080060E+01  0.32986086328E+02  0.47787274178E+02  0.20000014286E+02 0.  0.
        -12    1    1    2    0    0 -0.27994209872E+02 -0.34446080060E+01 -0.32986086328E+02  0.43400725822E+02  0.00000000000E+00 0.  1.
         11    1    3    3    0    0  0.44069018885E+01  0.62837289788E+01  0.76694614566E+01  0.10850192322E+02  0.51100000000E-03 0. -1.
        -11    1    3    3    0    0  0.13211900008E+02 -0.44810835172E+01  0.65092191941E+01  0.15394945472E+02  0.51100000000E-03 0.  1.
        -12    1    3    3    0    0  0.10375407975E+02  0.16419625445E+01  0.18807405678E+02  0.21542136384E+02  0.00000000000E+00 0.  1.
</event>
<event>
 7    1  0.2740409E-010  0.4778726E+02  0.7816164E-02  0.1312668E+00
        -11   -1    0    0    0    0  0.00000000000E+00  0.00000000000E+00  0.45593999997E+02  0.45594000000E+02  0.51100000000E-03 0.  1.
         11   -1    0    0    0    0 -0.00000000000E+00 -0.00000000000E+00 -0.45593999997E+02  0.45594000000E+02  0.51100000000E-03 0. -1.
    9900012    2    1    2    0    0 -0.24778237022E+02 -0.27813672659E+02 -0.22272471772E+02  0.47787257892E+02  0.19999940034E+02 0.  0.
        -12    1    1    2    0    0  0.24778237022E+02  0.27813672659E+02  0.22272471772E+02  0.43400742108E+02  0.00000000000E+00 0.  1.
         11    1    3    3    0    0  0.13703803175E+01 -0.39813870865E+01 -0.81727675313E+01  0.91936670991E+01  0.51100000000E-03 0.  1.
        -11    1    3    3    0    0 -0.11256641015E+02 -0.14420508016E+02 -0.66217518209E+01  0.19455349286E+02  0.51100000000E-03 0. -1.
         12    1    3    3    0    0 -0.14891976325E+02 -0.94117775558E+01 -0.74779524195E+01  0.19138241507E+02  0.00000000000E+00 0. -1.
</event>
<event>
 7    1  0.2740409E-010  0.4778727E+02  0.7816164E-02  0.1312668E+00
        -11   -1    0    0    0    0  0.00000000000E+00  0.00000000000E+00  0.45593999997E+02  0.45594000000E+02  0.51100000000E-03 0. -1.
         11   -1    0    0    0    0 -0.00000000000E+00 -0.00000000000E+00 -0.45593999997E+02  0.45594000000E+02  0.51100000000E-03 0.  1.
    9900012    2    1    2    0    0  0.37007732671E+02  0.22036832322E+02 -0.53318888497E+01  0.47787270802E+02  0.19999998895E+02 0.  0.
        -12    1    1    2    0    0 -0.37007732671E+02 -0.22036832322E+02  0.53318888497E+01  0.43400729198E+02  0.00000000000E+00 0.  1.
         11    1    3    3    0    0  0.91790142914E+01 -0.28040165229E+01 -0.61311810167E+00  0.96173138709E+01  0.51100000000E-03 0. -1.
        -11    1    3    3    0    0  0.13600894188E+02  0.12809057022E+02 -0.56348055157E+01  0.19514284460E+02  0.51100000000E-03 0.  1.
         12    1    3    3    0    0  0.14227824191E+02  0.12031791822E+02  0.91603476769E+00  0.18655672471E+02  0.00000000000E+00 0. -1.
</event>
<event>
 7    1  0.2740409E-010  0.4778727E+02  0.7816164E-02  0.1312668E+00
        -11   -1    0    0    0    0  0.00000000000E+00  0.00000000000E+00  0.45593999997E+02  0.45594000000E+02  0.51100000000E-03 0. -1.
         11   -1    0    0    0    0 -0.00000000000E+00 -0.00000000000E+00 -0.45593999997E+02  0.45594000000E+02  0.51100000000E-03 0.  1.
    9900012    2    1    2    0    0 -0.18841452602E+02 -0.36057624114E+02 -0.15115258189E+02  0.47787267022E+02  0.19999981658E+02 0.  0.
        -12    1    1    2    0    0  0.18841452602E+02  0.36057624114E+02  0.15115258189E+02  0.43400732978E+02  0.00000000000E+00 0.  1.
         11    1    3    3    0    0  0.22038499340E+01 -0.56780618455E+01 -0.64743673416E+01  0.88890254577E+01  0.51100000000E-03 0.  1.
        -11    1    3    3    0    0 -0.14950268999E+02 -0.22940067709E+02 -0.10071015251E+02  0.29175033815E+02  0.51100000000E-03 0. -1.
         12    1    3    3    0    0 -0.60950335374E+01 -0.74394945594E+01  0.14301244034E+01  0.97232077490E+01  0.00000000000E+00 0. -1.
</event>
<event>
 7    1  0.2740409E-010  0.4778728E+02  0.7816164E-02  0.1312668E+00
        -11   -1    0    0    0    0  0.00000000000E+00  0.00000000000E+00  0.45593999997E+02  0.45594000000E+02  0.51100000000E-03 0. -1.
         11   -1    0    0    0    0 -0.00000000000E+00 -0.00000000000E+00 -0.45593999997E+02  0.45594000000E+02  0.51100000000E-03 0.  1.
    9900012    2    1    2    0    0 -0.39918205564E+02  0.17033948269E+02  0.63781528523E-01  0.47787278840E+02  0.20000035544E+02 0.  0.
        -12    1    1    2    0    0  0.39918205564E+02 -0.17033948269E+02 -0.63781528523E-01  0.43400721160E+02  0.00000000000E+00 0.  1.
         11    1    3    3    0    0 -0.42197246905E+01  0.80235645818E+00  0.16692744039E+01  0.46082892320E+01  0.51100000000E-03 0. -1.
        -11    1    3    3    0    0 -0.11729703177E+02 -0.23742249353E+01 -0.43006070510E+01  0.12716843238E+02  0.51100000000E-03 0.  1.
        -12    1    3    3    0    0 -0.23968777697E+02  0.18605816746E+02  0.26951141756E+01  0.30462146370E+02  0.00000000000E+00 0.  1.
</event>
<event>
 7    1  0.2740409E-010  0.4778727E+02  0.7816164E-02  0.1312668E+00
        -11   -1    0    0    0    0  0.00000000000E+00  0.00000000000E+00  0.45593999997E+02  0.45594000000E+02  0.51100000000E-03 0.  1.
         11   -1    0    0    0    0 -0.00000000000E+00 -0.00000000000E+00 -0.45593999997E+02  0.45594000000E+02  0.51100000000E-03 0. -1.
    9900012    2    1    2    0    0 -0.31896006146E+02 -0.78917402635E+01 -0.28354686690E+02  0.47787273857E+02  0.20000012825E+02 0.  0.
        -12    1    1    2    0    0  0.31896006146E+02  0.78917402635E+01  0.28354686690E+02  0.43400726143E+02  0.00000000000E+00 0.  1.
         11    1    3    3    0    0 -0.19274024217E+01  0.25794754297E+01 -0.57813287146E+01  0.66175777710E+01  0.51100000000E-03 0.  1.
        -11    1    3    3    0    0 -0.20538766750E+02 -0.55371133203E+01 -0.71713808515E+01  0.22448368919E+02  0.51100000000E-03 0. -1.
        -12    1    3    3    0    0 -0.94298369734E+01 -0.49341023730E+01 -0.15401977124E+02  0.18721327167E+02  0.00000000000E+00 0.  1.
</event>
<event>
 7    1  0.2740409E-010  0.4778729E+02  0.7816164E-02  0.1312668E+00
        -11   -1    0    0    0    0  0.00000000000E+00  0.00000000000E+00  0.45593999997E+02  0.45594000000E+02  0.51100000000E-03 0.  1.
         11   -1    0    0    0    0 -0.00000000000E+00 -0.00000000000E+00 -0.45593999997E+02  0.45594000000E+02  0.51100000000E-03 0. -1.
    9900012    2    1    2    0    0 -0.10619358969E+02 -0.29786105515E+02 -0.29726061483E+02  0.47787290352E+02  0.20000088029E+02 0.  0.
        -12    1    1    2    0    0  0.10619358969E+02  0.29786105515E+02  0.29726061483E+02  0.43400709648E+02  0.00000000000E+00 0.  1.
         11    1    3    3    0    0  0.26570799951E+01 -0.86983132441E+01 -0.21415081257E+01  0.93438099673E+01  0.51100000000E-03 0. -1.
        -11    1    3    3    0    0  0.14119928433E+01 -0.40085261482E+01 -0.43374027020E+01  0.60724845106E+01  0.51100000000E-03 0.  1.
         12    1    3    3    0    0 -0.14688431808E+02 -0.17079266123E+02 -0.23247150655E+02  0.32370995874E+02  0.00000000000E+00 0. -1.
</event>
<event>
 7    1  0.2740409E-010  0.4778727E+02  0.7816164E-02  0.1312668E+00
        -11   -1    0    0    0    0  0.00000000000E+00  0.00000000000E+00  0.45593999997E+02  0.45594000000E+02  0.51100000000E-03 0. -1.
         11   -1    0    0    0    0 -0.00000000000E+00 -0.00000000000E+00 -0.45593999997E+02  0.45594000000E+02  0.51100000000E-03 0.  1.
    9900012    2    1    2    0    0 -0.22869172384E+02  0.20427559652E+02  0.30713821732E+02  0.47787273230E+02  0.20000009963E+02 0.  0.
        -12    1    1    2    0    0  0.22869172384E+02 -0.20427559652E+02 -0.30713821732E+02  0.43400726770E+02  0.00000000000E+00 0.  1.
         11    1    3    3    0    0 -0.13544474972E+02  0.17771418192E+02  0.28093571452E+02  0.35896028527E+02  0.51100000000E-03 0. -1.
        -11    1    3    3    0    0 -0.94800194207E+01  0.28768065044E+01  0.38526399395E+01  0.10629657504E+02  0.51100000000E-03 0.  1.
         12    1    3    3    0    0  0.15532200896E+00 -0.22066504507E+00 -0.12323896594E+01  0.12615871992E+01  0.00000000000E+00 0. -1.
</event>
<event>
 7    1  0.2740409E-010  0.4778727E+02  0.7816164E-02  0.1312668E+00
        -11   -1    0    0    0    0  0.00000000000E+00  0.00000000000E+00  0.45593999997E+02  0.45594000000E+02  0.51100000000E-03 0. -1.
         11   -1    0    0    0    0 -0.00000000000E+00 -0.00000000000E+00 -0.45593999997E+02  0.45594000000E+02  0.51100000000E-03 0.  1.
    9900012    2    1    2    0    0 -0.87400885014E+01 -0.92750654920E+01  0.41487432142E+02  0.47787274054E+02  0.20000013723E+02 0.  0.
        -12    1    1    2    0    0  0.87400885014E+01  0.92750654920E+01 -0.41487432142E+02  0.43400725946E+02  0.00000000000E+00 0.  1.
         11    1    3    3    0    0 -0.69467610546E+01  0.16912177538E+01  0.72788210910E+01  0.10202888972E+02  0.51100000000E-03 0. -1.
        -11    1    3    3    0    0  0.30703815467E+01 -0.79068626219E+01  0.12343606465E+02  0.14976993697E+02  0.51100000000E-03 0.  1.
         12    1    3    3    0    0 -0.48637089935E+01 -0.30594206239E+01  0.21865004586E+02  0.22607391385E+02  0.00000000000E+00 0. -1.
</event>
<event>
 7    1  0.2740409E-010  0.4778726E+02  0.7816164E-02  0.1312668E+00
        -11   -1    0    0    0    0  0.00000000000E+00  0.00000000000E+00  0.45593999997E+02  0.45594000000E+02  0.51100000000E-03 0. -1.
         11   -1    0    0    0    0 -0.00000000000E+00 -0.00000000000E+00 -0.45593999997E+02  0.45594000000E+02  0.51100000000E-03 0.  1.
    9900012    2    1    2    0    0  0.23891826202E+02  0.25858816963E+02  0.25379639985E+02  0.47787263834E+02  0.19999967126E+02 0.  0.
        -12    1    1    2    0    0 -0.23891826202E+02 -0.25858816963E+02 -0.25379639985E+02  0.43400736166E+02  0.00000000000E+00 0.  1.
         11    1    3    3    0    0  0.16340280121E+02  0.77570852055E+01  0.74024217677E+01  0.19544128878E+02  0.51100000000E-03 0. -1.
        -11    1    3    3    0    0  0.15540755358E+01  0.84727398953E+00  0.63440394034E+01  0.65863389070E+01  0.51100000000E-03 0.  1.
         12    1    3    3    0    0  0.59974705443E+01  0.17254457768E+02  0.11633178814E+02  0.21656796049E+02  0.00000000000E+00 0. -1.
</event>
<event>
 7    1  0.2740409E-010  0.4778727E+02  0.7816164E-02  0.1312668E+00
        -11   -1    0    0    0    0  0.00000000000E+00  0.00000000000E+00  0.45593999997E+02  0.45594000000E+02  0.51100000000E-03 0. -1.
         11   -1    0    0    0    0 -0.00000000000E+00 -0.00000000000E+00 -0.45593999997E+02  0.45594000000E+02  0.51100000000E-03 0.  1.
    9900012    2    1    2    0    0  0.21427784313E+02  0.33445733287E+02  0.17488744793E+02  0.47787271779E+02  0.20000003351E+02 0.  0.
        -12    1    1    2    0    0 -0.21427784313E+02 -0.33445733287E+02 -0.17488744793E+02  0.43400728221E+02  0.00000000000E+00 0.  1.
         11    1    3    3    0    0  0.60358704981E+01  0.14443857122E+02  0.16570180039E+02  0.22795341805E+02  0.51100000000E-03 0. -1.
        -11    1    3    3    0    0  0.47853655008E+01  0.38413754299E+01 -0.15403977616E+01  0.63268249300E+01  0.51100000000E-03 0.  1.
         12    1    3    3    0    0  0.10606548314E+02  0.15160500734E+02  0.24589625157E+01  0.18665105044E+02  0.00000000000E+00 0. -1.
</event>
<event>
 7    1  0.2740409E-010  0.4778727E+02  0.7816164E-02  0.1312668E+00
        -11   -1    0    0    0    0  0.00000000000E+00  0.00000000000E+00  0.45593999997E+02  0.45594000000E+02  0.51100000000E-03 0. -1.
         11   -1    0    0    0    0 -0.00000000000E+00 -0.00000000000E+00 -0.45593999997E+02  0.45594000000E+02  0.51100000000E-03 0.  1.
    9900012    2    1    2    0    0  0.56753204876E+01 -0.29205652109E+02  0.31598165937E+02  0.47787268804E+02  0.19999989787E+02 0.  0.
        -12    1    1    2    0    0 -0.56753204876E+01  0.29205652109E+02 -0.31598165937E+02  0.43400731196E+02  0.00000000000E+00 0.  1.
         11    1    3    3    0    0  0.10250516257E+02 -0.10649867841E+02  0.95070874019E+01  0.17574910517E+02  0.51100000000E-03 0. -1.
        -11    1    3    3    0    0 -0.35159863228E+01 -0.12576507960E+02  0.92347564917E+01  0.15994106415E+02  0.51100000000E-03 0.  1.
        -12    1    3    3    0    0 -0.10592094462E+01 -0.59792763072E+01  0.12856322043E+02  0.14218251872E+02  0.00000000000E+00 0.  1.
</event>
<event>
 7    1  0.2740409E-010  0.4778727E+02  0.7816164E-02  0.1312668E+00
        -11   -1    0    0    0    0  0.00000000000E+00  0.00000000000E+00  0.45593999997E+02  0.45594000000E+02  0.51100000000E-03 0. -1.
         11   -1    0    0    0    0 -0.00000000000E+00 -0.00000000000E+00 -0.45593999997E+02  0.45594000000E+02  0.51100000000E-03 0.  1.
    9900012    2    1    2    0    0 -0.40872951266E+02 -0.46264163636E+01 -0.13842735492E+02  0.47787271901E+02  0.20000003906E+02 0.  0.
        -12    1    1    2    0    0  0.40872951266E+02  0.46264163636E+01  0.13842735492E+02  0.43400728099E+02  0.00000000000E+00 0.  1.
         11    1    3    3    0    0 -0.34428454039E+02 -0.42231286978E+01 -0.13065375124E+02  0.37065580947E+02  0.51100000000E-03 0. -1.
        -11    1    3    3    0    0 -0.66224444598E+01  0.81015255877E+00  0.25754253270E+01  0.71516385302E+01  0.51100000000E-03 0.  1.
        -12    1    3    3    0    0  0.17794723235E+00 -0.12134402246E+01 -0.33527856950E+01  0.35700524243E+01  0.00000000000E+00 0.  1.
</event>
<event>
 7    1  0.2740409E-010  0.4778727E+02  0.7816164E-02  0.1312668E+00
        -11   -1    0    0    0    0  0.00000000000E+00  0.00000000000E+00  0.45593999997E+02  0.45594000000E+02  0.51100000000E-03 0.  1.
         11   -1    0    0    0    0 -0.00000000000E+00 -0.00000000000E+00 -0.45593999997E+02  0.45594000000E+02  0.51100000000E-03 0. -1.
    9900012    2    1    2    0    0  0.22232873247E+02 -0.29877826907E+02 -0.22285379436E+02  0.47787270396E+02  0.19999997045E+02 0.  0.
        -12    1    1    2    0    0 -0.22232873247E+02  0.29877826907E+02  0.22285379436E+02  0.43400729604E+02  0.00000000000E+00 0.  1.
         11    1    3    3    0    0  0.17047622896E+02 -0.12197624496E+02 -0.17634578551E+02  0.27393098596E+02  0.51100000000E-03 0.  1.
        -11    1    3    3    0    0  0.51614619555E+01 -0.11799511568E+02  0.28295684539E-01  0.12879051350E+02  0.51100000000E-03 0. -1.
        -12    1    3    3    0    0  0.23788395639E-01 -0.58806908432E+01 -0.46790965692E+01  0.75151204505E+01  0.00000000000E+00 0.  1.
</event>
<event>
 7    1  0.2740409E-010  0.4778727E+02  0.7816164E-02  0.1312668E+00
        -11   -1    0    0    0    0  0.00000000000E+00  0.00000000000E+00  0.45593999997E+02  0.45594000000E+02  0.51100000000E-03 0.  1.
         11   -1    0    0    0    0 -0.00000000000E+00 -0.00000000000E+00 -0.45593999997E+02  0.45594000000E+02  0.51100000000E-03 0. -1.
    9900012    2    1    2    0    0 -0.13071416685E+02 -0.24859282965E+02 -0.33087422137E+02  0.47787269737E+02  0.19999994041E+02 0.  0.
        -12    1    1    2    0    0  0.13071416685E+02  0.24859282965E+02  0.33087422137E+02  0.43400730263E+02  0.00000000000E+00 0.  1.
         11    1    3    3    0    0 -0.41555074400E+01 -0.62232751586E+01 -0.43140398538E+01  0.86376117015E+01  0.51100000000E-03 0. -1.
        -11    1    3    3    0    0 -0.76518622882E+01 -0.17920689232E+02 -0.13262870530E+02  0.23571292582E+02  0.51100000000E-03 0.  1.
        -12    1    3    3    0    0 -0.12640469564E+01 -0.71531857389E+00 -0.15510511753E+02  0.15578365454E+02  0.00000000000E+00 0.  1.
</event>
<event>
 7    1  0.2740409E-010  0.4778726E+02  0.7816164E-02  0.1312668E+00
        -11   -1    0    0    0    0  0.00000000000E+00  0.00000000000E+00  0.45593999997E+02  0.45594000000E+02  0.51100000000E-03 0. -1.
         11   -1    0    0    0    0 -0.00000000000E+00 -0.00000000000E+00 -0.45593999997E+02  0.45594000000E+02  0.51100000000E-03 0.  1.
    9900012    2    1    2    0    0  0.25125411695E+02  0.35284396469E+02  0.27109171293E+01  0.47787262464E+02  0.19999960877E+02 0.  0.
        -12    1    1    2    0    0 -0.25125411695E+02 -0.35284396469E+02 -0.27109171293E+01  0.43400737536E+02  0.00000000000E+00 0.  1.
         11    1    3    3    0    0  0.20146264937E+02  0.31222437538E+02 -0.22700288843E+01  0.37227216228E+02  0.51100000000E-03 0. -1.
        -11    1    3    3    0    0  0.55320871101E+01  0.45234932315E+01  0.59871298159E+01  0.93226446088E+01  0.51100000000E-03 0.  1.
         12    1    3    3    0    0 -0.55294035160E+00 -0.46153430034E+00 -0.10061838022E+01  0.12374016271E+01  0.00000000000E+00 0. -1.
</event>
<event>
 7    1  0.2740409E-010  0.4778727E+02  0.7816164E-02  0.1312668E+00
        -11   -1    0    0    0    0  0.00000000000E+00  0.00000000000E+00  0.45593999997E+02  0.45594000000E+02  0.51100000000E-03 0.  1.
         11   -1    0    0    0    0 -0.00000000000E+00 -0.00000000000E+00 -0.45593999997E+02  0.45594000000E+02  0.51100000000E-03 0. -1.
    9900012    2    1    2    0    0 -0.19782096955E+02  0.37582775970E+02  0.89345811088E+01  0.47787272481E+02  0.20000006550E+02 0.  0.
        -12    1    1    2    0    0  0.19782096955E+02 -0.37582775970E+02 -0.89345811088E+01  0.43400727519E+02  0.00000000000E+00 0.  1.
         11    1    3    3    0    0 -0.18510253022E+02  0.26660902686E+02  0.17893978098E+01  0.32505924748E+02  0.51100000000E-03 0. -1.
        -11    1    3    3    0    0  0.71828336783E+00  0.15874262888E+01  0.52753870096E+01  0.55556783187E+01  0.51100000000E-03 0.  1.
         12    1    3    3    0    0 -0.19901273018E+01  0.93344469954E+01  0.18697962894E+01  0.97256694140E+01  0.00000000000E+00 0. -1.
</event>
<event>
 7    1  0.2740409E-010  0.4778727E+02  0.7816164E-02  0.1312668E+00
        -11   -1    0    0    0    0  0.00000000000E+00  0.00000000000E+00  0.45593999997E+02  0.45594000000E+02  0.51100000000E-03 0. -1.
         11   -1    0    0    0    0 -0.00000000000E+00 -0.00000000000E+00 -0.45593999997E+02  0.45594000000E+02  0.51100000000E-03 0.  1.
    9900012    2    1    2    0    0 -0.16649511549E+02  0.36962146780E+02 -0.15498930225E+02  0.47787269965E+02  0.19999995080E+02 0.  0.
        -12    1    1    2    0    0  0.16649511549E+02 -0.36962146780E+02  0.15498930225E+02  0.43400730035E+02  0.00000000000E+00 0.  1.
         11    1    3    3    0    0 -0.15636773940E+02  0.36345736724E+02 -0.17632179876E+02  0.43317606636E+02  0.51100000000E-03 0. -1.
        -11    1    3    3    0    0  0.13011520308E+01  0.15593091707E-01  0.15214263997E+01  0.20019935821E+01  0.51100000000E-03 0.  1.
         12    1    3    3    0    0 -0.23138896394E+01  0.60081696507E+00  0.61182325198E+00  0.24676697471E+01  0.00000000000E+00 0. -1.
</event>
<event>
 7    1  0.2740409E-010  0.4778727E+02  0.7816164E-02  0.1312668E+00
        -11   -1    0    0    0    0  0.00000000000E+00  0.00000000000E+00  0.45593999997E+02  0.45594000000E+02  0.51100000000E-03 0.  1.
         11   -1    0    0    0    0 -0.00000000000E+00 -0.00000000000E+00 -0.45593999997E+02  0.45594000000E+02  0.51100000000E-03 0. -1.
    9900012    2    1    2    0    0 -0.38708399145E+01  0.89732370839E-01 -0.43227671684E+02  0.47787273591E+02  0.20000011613E+02 0.  0.
        -12    1    1    2    0    0  0.38708399145E+01 -0.89732370839E-01  0.43227671684E+02  0.43400726409E+02  0.00000000000E+00 0.  1.
         11    1    3    3    0    0 -0.86847314882E+01  0.20653406428E+01 -0.40431829600E+02  0.41405591870E+02  0.51100000000E-03 0. -1.
        -11    1    3    3    0    0  0.28787289364E+01 -0.22939864330E+01 -0.23603829061E+01  0.43727407616E+01  0.51100000000E-03 0.  1.
         12    1    3    3    0    0  0.19351626374E+01  0.31837816101E+00 -0.43545917811E+00  0.20089409604E+01  0.00000000000E+00 0. -1.
</event>
<event>
 7    1  0.2740409E-010  0.4778733E+02  0.7816164E-02  0.1312668E+00
        -11   -1    0    0    0    0  0.00000000000E+00  0.00000000000E+00  0.45593999997E+02  0.45594000000E+02  0.51100000000E-03 0.  1.
         11   -1    0    0    0    0 -0.00000000000E+00 -0.00000000000E+00 -0.45593999997E+02  0.45594000000E+02  0.51100000000E-03 0. -1.
    9900012    2    1    2    0    0  0.33696323855E+02 -0.27171330744E+02 -0.31456067553E+01  0.47787328374E+02  0.20000261385E+02 0.  0.
        -12    1    1    2    0    0 -0.33696323855E+02  0.27171330744E+02  0.31456067553E+01  0.43400671626E+02  0.00000000000E+00 0.  1.
         11    1    3    3    0    0  0.12717070253E+02 -0.20431767680E+02 -0.54273236379E+01  0.24670566440E+02  0.51100000000E-03 0. -1.
        -11    1    3    3    0    0  0.11607754590E+02 -0.63226274835E+01  0.34571681817E+01  0.13662635068E+02  0.51100000000E-03 0.  1.
         12    1    3    3    0    0  0.93714990127E+01 -0.41693558018E+00 -0.11754512992E+01  0.94541268650E+01  0.00000000000E+00 0. -1.
</event>
<event>
 7    1  0.2740409E-010  0.4778728E+02  0.7816164E-02  0.1312668E+00
        -11   -1    0    0    0    0  0.00000000000E+00  0.00000000000E+00  0.45593999997E+02  0.45594000000E+02  0.51100000000E-03 0.  1.
         11   -1    0    0    0    0 -0.00000000000E+00 -0.00000000000E+00 -0.45593999997E+02  0.45594000000E+02  0.51100000000E-03 0. -1.
    9900012    2    1    2    0    0  0.15073991303E+02  0.70659951422E+01 -0.40080777114E+02  0.47787283472E+02  0.20000056660E+02 0.  0.
        -12    1    1    2    0    0 -0.15073991303E+02 -0.70659951422E+01  0.40080777114E+02  0.43400716528E+02  0.00000000000E+00 0.  1.
         11    1    3    3    0    0  0.13697939661E+01  0.34238508374E+00 -0.54943379934E+01  0.56728575958E+01  0.51100000000E-03 0. -1.
        -11    1    3    3    0    0  0.74214162120E+01 -0.49442867721E+01 -0.64258853572E+01  0.10991605577E+02  0.51100000000E-03 0.  1.
        -12    1    3    3    0    0  0.62827811249E+01  0.11667896831E+02 -0.28160553763E+02  0.31122820299E+02  0.00000000000E+00 0.  1.
</event>
<event>
 7    1  0.2740409E-010  0.4778727E+02  0.7816164E-02  0.1312668E+00
        -11   -1    0    0    0    0  0.00000000000E+00  0.00000000000E+00  0.45593999997E+02  0.45594000000E+02  0.51100000000E-03 0.  1.
         11   -1    0    0    0    0 -0.00000000000E+00 -0.00000000000E+00 -0.45593999997E+02  0.45594000000E+02  0.51100000000E-03 0. -1.
    9900012    2    1    2    0    0 -0.35328955476E+02 -0.11106734557E+02 -0.22630255107E+02  0.47787273119E+02  0.20000009459E+02 0.  0.
        -12    1    1    2    0    0  0.35328955476E+02  0.11106734557E+02  0.22630255107E+02  0.43400726881E+02  0.00000000000E+00 0.  1.
         11    1    3    3    0    0 -0.59466171871E+01 -0.21939483380E+01 -0.37860545658E+01  0.73830803000E+01  0.51100000000E-03 0. -1.
        -11    1    3    3    0    0 -0.25630162632E+02  0.40070358985E+00 -0.12416967428E+02  0.28482395971E+02  0.51100000000E-03 0.  1.
        -12    1    3    3    0    0 -0.37521756572E+01 -0.93134898085E+01 -0.64272331139E+01  0.11921796848E+02  0.00000000000E+00 0.  1.
</event>
<event>
 7    1  0.2740409E-010  0.4778727E+02  0.7816164E-02  0.1312668E+00
        -11   -1    0    0    0    0  0.00000000000E+00  0.00000000000E+00  0.45593999997E+02  0.45594000000E+02  0.51100000000E-03 0.  1.
         11   -1    0    0    0    0 -0.00000000000E+00 -0.00000000000E+00 -0.45593999997E+02  0.45594000000E+02  0.51100000000E-03 0. -1.
    9900012    2    1    2    0    0 -0.41840437961E+02 -0.77753634081E+01  0.85173385010E+01  0.47787267517E+02  0.19999983918E+02 0.  0.
        -12    1    1    2    0    0  0.41840437961E+02  0.77753634081E+01 -0.85173385010E+01  0.43400732483E+02  0.00000000000E+00 0.  1.
         11    1    3    3    0    0 -0.20043359454E+01 -0.42344870981E+01 -0.18091494651E+01  0.50220778184E+01  0.51100000000E-03 0. -1.
        -11    1    3    3    0    0 -0.18861234831E+02 -0.41792223949E+00  0.10433724823E+02  0.21558836988E+02  0.51100000000E-03 0.  1.
        -12    1    3    3    0    0 -0.20974867185E+02 -0.31229540705E+01 -0.10723685682E+00  0.21206352710E+02  0.00000000000E+00 0.  1.
</event>
<event>
 7    1  0.2740409E-010  0.4778727E+02  0.7816164E-02  0.1312668E+00
        -11   -1    0    0    0    0  0.00000000000E+00  0.00000000000E+00  0.45593999997E+02  0.45594000000E+02  0.51100000000E-03 0. -1.
         11   -1    0    0    0    0 -0.00000000000E+00 -0.00000000000E+00 -0.45593999997E+02  0.45594000000E+02  0.51100000000E-03 0.  1.
    9900012    2    1    2    0    0  0.28642681371E+02  0.32226794522E+02 -0.49652757728E+01  0.47787269076E+02  0.19999991023E+02 0.  0.
        -12    1    1    2    0    0 -0.28642681371E+02 -0.32226794522E+02  0.49652757728E+01  0.43400730924E+02  0.00000000000E+00 0.  1.
         11    1    3    3    0    0  0.22143536069E+02  0.15825693106E+02 -0.54121057800E+01  0.27750308848E+02  0.51100000000E-03 0. -1.
        -11    1    3    3    0    0 -0.14822035370E+01  0.17799106597E+01  0.23149715687E+01  0.32747676111E+01  0.51100000000E-03 0.  1.
         12    1    3    3    0    0  0.79813488387E+01  0.14621190756E+02 -0.18681415615E+01  0.16762192617E+02  0.00000000000E+00 0. -1.
</event>
<event>
 7    1  0.2740409E-010  0.4778724E+02  0.7816164E-02  0.1312668E+00
        -11   -1    0    0    0    0  0.00000000000E+00  0.00000000000E+00  0.45593999997E+02  0.45594000000E+02  0.51100000000E-03 0. -1.
         11   -1    0    0    0    0 -0.00000000000E+00 -0.00000000000E+00 -0.45593999997E+02  0.45594000000E+02  0.51100000000E-03 0.  1.
    9900012    2    1    2    0    0  0.15165668266E+02  0.37022573251E+02  0.16821330211E+02  0.47787244544E+02  0.19999879173E+02 0.  0.
        -12    1    1    2    0    0 -0.15165668266E+02 -0.37022573251E+02 -0.16821330211E+02  0.43400755456E+02  0.00000000000E+00 0.  1.
         11    1    3    3    0    0  0.54853278428E+01  0.21823018449E+01 -0.87324429172E+00  0.59677314567E+01  0.51100000000E-03 0. -1.
        -11    1    3    3    0    0  0.14143781021E+01  0.23248892684E+02  0.81378213106E+01  0.24672568014E+02  0.51100000000E-03 0.  1.
         12    1    3    3    0    0  0.82659623214E+01  0.11591378722E+02  0.95567531926E+01  0.17146945074E+02  0.00000000000E+00 0. -1.
</event>
<event>
 7    1  0.2740409E-010  0.4778727E+02  0.7816164E-02  0.1312668E+00
        -11   -1    0    0    0    0  0.00000000000E+00  0.00000000000E+00  0.45593999997E+02  0.45594000000E+02  0.51100000000E-03 0.  1.
         11   -1    0    0    0    0 -0.00000000000E+00 -0.00000000000E+00 -0.45593999997E+02  0.45594000000E+02  0.51100000000E-03 0. -1.
    9900012    2    1    2    0    0 -0.25876266714E+02 -0.27053643531E+02 -0.21957743074E+02  0.47787270879E+02  0.19999999246E+02 0.  0.
        -12    1    1    2    0    0  0.25876266714E+02  0.27053643531E+02  0.21957743074E+02  0.43400729121E+02  0.00000000000E+00 0.  1.
         11    1    3    3    0    0 -0.16349095840E+02 -0.88952079395E+01 -0.52896908495E+01  0.19349379541E+02  0.51100000000E-03 0. -1.
        -11    1    3    3    0    0 -0.16022636774E+01 -0.45990605415E+01  0.81340307382E+00  0.49376342086E+01  0.51100000000E-03 0.  1.
         12    1    3    3    0    0 -0.79249071960E+01 -0.13559375050E+02 -0.17481455298E+02  0.23500257129E+02  0.00000000000E+00 0. -1.
</event>
<event>
 7    1  0.2740409E-010  0.4778727E+02  0.7816164E-02  0.1312668E+00
        -11   -1    0    0    0    0  0.00000000000E+00  0.00000000000E+00  0.45593999997E+02  0.45594000000E+02  0.51100000000E-03 0.  1.
         11   -1    0    0    0    0 -0.00000000000E+00 -0.00000000000E+00 -0.45593999997E+02  0.45594000000E+02  0.51100000000E-03 0. -1.
    9900012    2    1    2    0    0  0.65250822515E+01 -0.14106790188E+02 -0.40522157592E+02  0.47787268627E+02  0.19999988977E+02 0.  0.
        -12    1    1    2    0    0 -0.65250822515E+01  0.14106790188E+02  0.40522157592E+02  0.43400731373E+02  0.00000000000E+00 0.  1.
         11    1    3    3    0    0  0.50055362987E+01 -0.70131678875E+01 -0.11960349509E+02  0.14740755682E+02  0.51100000000E-03 0. -1.
        -11    1    3    3    0    0  0.77715723654E+00 -0.40691141955E+01 -0.29503533964E+02  0.29792955213E+02  0.51100000000E-03 0.  1.
        -12    1    3    3    0    0  0.74238871622E+00 -0.30245081047E+01  0.94172587981E+00  0.32535577318E+01  0.00000000000E+00 0.  1.
</event>
<event>
 7    1  0.2740409E-010  0.4778727E+02  0.7816164E-02  0.1312668E+00
        -11   -1    0    0    0    0  0.00000000000E+00  0.00000000000E+00  0.45593999997E+02  0.45594000000E+02  0.51100000000E-03 0.  1.
         11   -1    0    0    0    0 -0.00000000000E+00 -0.00000000000E+00 -0.45593999997E+02  0.45594000000E+02  0.51100000000E-03 0. -1.
    9900012    2    1    2    0    0  0.21417793498E+02 -0.31758084185E+01 -0.37614031173E+02  0.47787274447E+02  0.20000015513E+02 0.  0.
        -12    1    1    2    0    0 -0.21417793498E+02  0.31758084185E+01  0.37614031173E+02  0.43400725553E+02  0.00000000000E+00 0.  1.
         11    1    3    3    0    0  0.27838312179E+01  0.11677629583E+00 -0.14395892699E+02  0.14663051518E+02  0.51100000000E-03 0. -1.
        -11    1    3    3    0    0  0.11905977121E+02  0.40918766993E+01 -0.79870966719E+01  0.14909374891E+02  0.51100000000E-03 0.  1.
        -12    1    3    3    0    0  0.67279851590E+01 -0.73844614136E+01 -0.15231041802E+02  0.18214848038E+02  0.00000000000E+00 0.  1.
</event>
<event>
 7    1  0.2740409E-010  0.4778727E+02  0.7816164E-02  0.1312668E+00
        -11   -1    0    0    0    0  0.00000000000E+00  0.00000000000E+00  0.45593999997E+02  0.45594000000E+02  0.51100000000E-03 0.  1.
         11   -1    0    0    0    0 -0.00000000000E+00 -0.00000000000E+00 -0.45593999997E+02  0.45594000000E+02  0.51100000000E-03 0. -1.
    9900012    2    1    2    0    0  0.13132100608E+02 -0.13351965376E+02 -0.39152222634E+02  0.47787267484E+02  0.19999983766E+02 0.  0.
        -12    1    1    2    0    0 -0.13132100608E+02  0.13351965376E+02  0.39152222634E+02  0.43400732516E+02  0.00000000000E+00 0.  1.
         11    1    3    3    0    0  0.68488717260E+01 -0.15580817711E+02 -0.18734373636E+02  0.25310979441E+02  0.51100000000E-03 0. -1.
        -11    1    3    3    0    0  0.45026917703E+01  0.27671636677E+01 -0.19834935289E+02  0.20526959983E+02  0.51100000000E-03 0.  1.
        -12    1    3    3    0    0  0.17805371114E+01 -0.53831133225E+00 -0.58291370891E+00  0.19493280605E+01  0.00000000000E+00 0.  1.
</event>
<event>
 7    1  0.2740409E-010  0.4778727E+02  0.7816164E-02  0.1312668E+00
        -11   -1    0    0    0    0  0.00000000000E+00  0.00000000000E+00  0.45593999997E+02  0.45594000000E+02  0.51100000000E-03 0.  1.
         11   -1    0    0    0    0 -0.00000000000E+00 -0.00000000000E+00 -0.45593999997E+02  0.45594000000E+02  0.51100000000E-03 0. -1.
    9900012    2    1    2    0    0  0.14673010317E+02 -0.39297670772E+02 -0.11136386196E+02  0.47787271235E+02  0.20000000867E+02 0.  0.
        -12    1    1    2    0    0 -0.14673010317E+02  0.39297670772E+02  0.11136386196E+02  0.43400728765E+02  0.00000000000E+00 0.  1.
         11    1    3    3    0    0  0.10664878370E+02 -0.19695639056E+02 -0.12378190892E+02  0.25590573235E+02  0.51100000000E-03 0. -1.
        -11    1    3    3    0    0 -0.50663394214E+00 -0.92583326641E+01  0.46964374821E+01  0.10393744607E+02  0.51100000000E-03 0.  1.
         12    1    3    3    0    0  0.45147658891E+01 -0.10343699051E+02 -0.34546327864E+01  0.11802953392E+02  0.00000000000E+00 0. -1.
</event>
<event>
 7    1  0.2740409E-010  0.4778727E+02  0.7816164E-02  0.1312668E+00
        -11   -1    0    0    0    0  0.00000000000E+00  0.00000000000E+00  0.45593999997E+02  0.45594000000E+02  0.51100000000E-03 0. -1.
         11   -1    0    0    0    0 -0.00000000000E+00 -0.00000000000E+00 -0.45593999997E+02  0.45594000000E+02  0.51100000000E-03 0.  1.
    9900012    2    1    2    0    0  0.15555605733E+02  0.38765842757E+02  0.11783712868E+02  0.47787270474E+02  0.19999997401E+02 0.  0.
        -12    1    1    2    0    0 -0.15555605733E+02 -0.38765842757E+02 -0.11783712868E+02  0.43400729526E+02  0.00000000000E+00 0.  1.
         11    1    3    3    0    0 -0.93236465396E+00  0.18906018599E+02  0.73694699453E+01  0.20312949826E+02  0.51100000000E-03 0. -1.
        -11    1    3    3    0    0  0.85802722154E+01  0.10070342041E+02 -0.19488045570E+01  0.13372759610E+02  0.51100000000E-03 0.  1.
         12    1    3    3    0    0  0.79076981716E+01  0.97894821178E+01  0.63630474793E+01  0.14101561039E+02  0.00000000000E+00 0. -1.
</event>
<event>
 7    1  0.2740409E-010  0.4778727E+02  0.7816164E-02  0.1312668E+00
        -11   -1    0    0    0    0  0.00000000000E+00  0.00000000000E+00  0.45593999997E+02  0.45594000000E+02  0.51100000000E-03 0.  1.
         11   -1    0    0    0    0 -0.00000000000E+00 -0.00000000000E+00 -0.45593999997E+02  0.45594000000E+02  0.51100000000E-03 0. -1.
    9900012    2    1    2    0    0  0.65704138170E+01  0.70847359698E+01 -0.42311455594E+02  0.47787273094E+02  0.20000009343E+02 0.  0.
        -12    1    1    2    0    0 -0.65704138170E+01 -0.70847359698E+01  0.42311455594E+02  0.43400726906E+02  0.00000000000E+00 0.  1.
         11    1    3    3    0    0 -0.37606315962E+01  0.64814670818E+01 -0.23927541163E+02  0.25073471875E+02  0.51100000000E-03 0. -1.
        -11    1    3    3    0    0  0.77698272125E+01 -0.11414550469E+01 -0.58237606706E+01  0.97769792444E+01  0.51100000000E-03 0.  1.
         12    1    3    3    0    0  0.25612182007E+01  0.17447239349E+01 -0.12560153761E+02  0.12936821974E+02  0.00000000000E+00 0. -1.
</event>
<event>
 7    1  0.2740409E-010  0.4778727E+02  0.7816164E-02  0.1312668E+00
        -11   -1    0    0    0    0  0.00000000000E+00  0.00000000000E+00  0.45593999997E+02  0.45594000000E+02  0.51100000000E-03 0. -1.
         11   -1    0    0    0    0 -0.00000000000E+00 -0.00000000000E+00 -0.45593999997E+02  0.45594000000E+02  0.51100000000E-03 0.  1.
    9900012    2    1    2    0    0 -0.36793785175E+02 -0.16368788976E+02  0.16183425815E+02  0.47787272458E+02  0.20000006446E+02 0.  0.
        -12    1    1    2    0    0  0.36793785175E+02  0.16368788976E+02 -0.16183425815E+02  0.43400727542E+02  0.00000000000E+00 0.  1.
         11    1    3    3    0    0 -0.29451803987E+02 -0.10473795918E+02  0.65548211562E+01  0.31938610484E+02  0.51100000000E-03 0. -1.
        -11    1    3    3    0    0  0.62805061567E+00 -0.43924921822E+01  0.40245923148E+01  0.59904739970E+01  0.51100000000E-03 0.  1.
         12    1    3    3    0    0 -0.79700318036E+01 -0.15025008756E+01  0.56040123444E+01  0.98581879769E+01  0.00000000000E+00 0. -1.
</event>
<event>
 7    1  0.2740409E-010  0.4778730E+02  0.7816164E-02  0.1312668E+00
        -11   -1    0    0    0    0  0.00000000000E+00  0.00000000000E+00  0.45593999997E+02  0.45594000000E+02  0.51100000000E-03 0.  1.
         11   -1    0    0    0    0 -0.00000000000E+00 -0.00000000000E+00 -0.45593999997E+02  0.45594000000E+02  0.51100000000E-03 0. -1.
    9900012    2    1    2    0    0  0.37928235396E+02 -0.27621097024E+01 -0.20915083967E+02  0.47787296923E+02  0.20000117990E+02 0.  0.
        -12    1    1    2    0    0 -0.37928235396E+02  0.27621097024E+01  0.20915083967E+02  0.43400703077E+02  0.00000000000E+00 0.  1.
         11    1    3    3    0    0  0.13904475180E+01 -0.11098542692E+01 -0.48587779749E+01  0.51742482033E+01  0.51100000000E-03 0.  1.
        -11    1    3    3    0    0  0.11448304221E+01 -0.38033192246E+01 -0.22251509484E+01  0.45527102723E+01  0.51100000000E-03 0. -1.
         12    1    3    3    0    0  0.35392957456E+02  0.21510637915E+01 -0.13831155044E+02  0.38060338447E+02  0.00000000000E+00 0. -1.
</event>
<event>
 7    1  0.2740409E-010  0.4778729E+02  0.7816164E-02  0.1312668E+00
        -11   -1    0    0    0    0  0.00000000000E+00  0.00000000000E+00  0.45593999997E+02  0.45594000000E+02  0.51100000000E-03 0.  1.
         11   -1    0    0    0    0 -0.00000000000E+00 -0.00000000000E+00 -0.45593999997E+02  0.45594000000E+02  0.51100000000E-03 0. -1.
    9900012    2    1    2    0    0  0.12269830499E+02 -0.31658579447E+02 -0.27033450076E+02  0.47787287840E+02  0.20000076576E+02 0.  0.
        -12    1    1    2    0    0 -0.12269830499E+02  0.31658579447E+02  0.27033450076E+02  0.43400712160E+02  0.00000000000E+00 0.  1.
         11    1    3    3    0    0  0.12635660333E+02 -0.12995675934E+02 -0.13356575296E+02  0.22515452670E+02  0.51100000000E-03 0. -1.
        -11    1    3    3    0    0  0.20437602871E+01 -0.17164415964E+02 -0.82623085370E+01  0.19158806699E+02  0.51100000000E-03 0.  1.
         12    1    3    3    0    0 -0.24095901220E+01 -0.14984875485E+01 -0.54145662425E+01  0.61130284707E+01  0.00000000000E+00 0. -1.
</event>
<event>
 7    1  0.2740409E-010  0.4778727E+02  0.7816164E-02  0.1312668E+00
        -11   -1    0    0    0    0  0.00000000000E+00  0.00000000000E+00  0.45593999997E+02  0.45594000000E+02  0.51100000000E-03 0. -1.
         11   -1    0    0    0    0 -0.00000000000E+00 -0.00000000000E+00 -0.45593999997E+02  0.45594000000E+02  0.51100000000E-03 0.  1.
    9900012    2    1    2    0    0 -0.24414783261E+02  0.22383880602E+02  0.28044671656E+02  0.47787270043E+02  0.19999995434E+02 0.  0.
        -12    1    1    2    0    0  0.24414783261E+02 -0.22383880602E+02 -0.28044671656E+02  0.43400729957E+02  0.00000000000E+00 0.  1.
         11    1    3    3    0    0 -0.14671667124E+02  0.11760945611E+02  0.17565508692E+02  0.25731784892E+02  0.51100000000E-03 0. -1.
        -11    1    3    3    0    0  0.11410169248E+00  0.92299235019E+01  0.33870730767E+01  0.98324346597E+01  0.51100000000E-03 0.  1.
        -12    1    3    3    0    0 -0.98572178289E+01  0.13930114898E+01  0.70920898878E+01  0.12223050491E+02  0.00000000000E+00 0.  1.
</event>
<event>
 7    1  0.2740409E-010  0.4778728E+02  0.7816164E-02  0.1312668E+00
        -11   -1    0    0    0    0  0.00000000000E+00  0.00000000000E+00  0.45593999997E+02  0.45594000000E+02  0.51100000000E-03 0.  1.
         11   -1    0    0    0    0 -0.00000000000E+00 -0.00000000000E+00 -0.45593999997E+02  0.45594000000E+02  0.51100000000E-03 0. -1.
    9900012    2    1    2    0    0  0.47003700645E+01  0.19330411506E+02 -0.38572845691E+02  0.47787277512E+02  0.20000029488E+02 0.  0.
        -12    1    1    2    0    0 -0.47003700645E+01 -0.19330411506E+02  0.38572845691E+02  0.43400722488E+02  0.00000000000E+00 0.  1.
         11    1    3    3    0    0  0.83425087984E+01  0.33545933256E+01 -0.12392972285E+02  0.15311319726E+02  0.51100000000E-03 0. -1.
        -11    1    3    3    0    0 -0.54898765834E+01  0.36021076922E+01 -0.10932009349E+02  0.12752362660E+02  0.51100000000E-03 0.  1.
         12    1    3    3    0    0  0.18477378495E+01  0.12373710488E+02 -0.15247864057E+02  0.19723595126E+02  0.00000000000E+00 0. -1.
</event>
<event>
 7    1  0.2740409E-010  0.4778727E+02  0.7816164E-02  0.1312668E+00
        -11   -1    0    0    0    0  0.00000000000E+00  0.00000000000E+00  0.45593999997E+02  0.45594000000E+02  0.51100000000E-03 0.  1.
         11   -1    0    0    0    0 -0.00000000000E+00 -0.00000000000E+00 -0.45593999997E+02  0.45594000000E+02  0.51100000000E-03 0. -1.
    9900012    2    1    2    0    0  0.18768527591E+00  0.41882429640E+02 -0.11377604953E+02  0.47787273822E+02  0.20000012664E+02 0.  0.
        -12    1    1    2    0    0 -0.18768527591E+00 -0.41882429640E+02  0.11377604953E+02  0.43400726178E+02  0.00000000000E+00 0.  1.
         11    1    3    3    0    0  0.46572779906E+01  0.21636109535E+02 -0.95234725856E+01  0.24093733718E+02  0.51100000000E-03 0. -1.
        -11    1    3    3    0    0 -0.24759400024E+01  0.14144135635E+01  0.30053672593E+01  0.41428344462E+01  0.51100000000E-03 0.  1.
         12    1    3    3    0    0 -0.19936527123E+01  0.18831906541E+02 -0.48594996269E+01  0.19550705658E+02  0.00000000000E+00 0. -1.
</event>
<event>
 7    1  0.2740409E-010  0.4778727E+02  0.7816164E-02  0.1312668E+00
        -11   -1    0    0    0    0  0.00000000000E+00  0.00000000000E+00  0.45593999997E+02  0.45594000000E+02  0.51100000000E-03 0. -1.
         11   -1    0    0    0    0 -0.00000000000E+00 -0.00000000000E+00 -0.45593999997E+02  0.45594000000E+02  0.51100000000E-03 0.  1.
    9900012    2    1    2    0    0  0.15828485389E+02 -0.74780090302E+01  0.39713494078E+02  0.47787272119E+02  0.20000004898E+02 0.  0.
        -12    1    1    2    0    0 -0.15828485389E+02  0.74780090302E+01 -0.39713494078E+02  0.43400727881E+02  0.00000000000E+00 0.  1.
         11    1    3    3    0    0  0.35994224785E+01  0.10440184198E+01  0.19886979374E+02  0.20237039445E+02  0.51100000000E-03 0. -1.
        -11    1    3    3    0    0  0.12487075216E+01 -0.26092909344E+01 -0.11772387582E+01  0.31230691651E+01  0.51100000000E-03 0.  1.
        -12    1    3    3    0    0  0.10980355389E+02 -0.59127365156E+01  0.21003753462E+02  0.24427163508E+02  0.00000000000E+00 0.  1.
</event>
<event>
 7    1  0.2740409E-010  0.4778727E+02  0.7816164E-02  0.1312668E+00
        -11   -1    0    0    0    0  0.00000000000E+00  0.00000000000E+00  0.45593999997E+02  0.45594000000E+02  0.51100000000E-03 0.  1.
         11   -1    0    0    0    0 -0.00000000000E+00 -0.00000000000E+00 -0.45593999997E+02  0.45594000000E+02  0.51100000000E-03 0. -1.
    9900012    2    1    2    0    0 -0.41538886063E+02  0.10193293709E+02  0.73648335217E+01  0.47787273453E+02  0.20000010983E+02 0.  0.
        -12    1    1    2    0    0  0.41538886063E+02 -0.10193293709E+02 -0.73648335217E+01  0.43400726547E+02  0.00000000000E+00 0.  1.
         11    1    3    3    0    0 -0.28462744122E+02  0.42494238594E+01  0.35491915218E+01  0.28996244012E+02  0.51100000000E-03 0. -1.
        -11    1    3    3    0    0  0.19048602075E+01  0.22894148443E+01  0.69075473764E+00  0.30572953910E+01  0.51100000000E-03 0.  1.
        -12    1    3    3    0    0 -0.14981002148E+02  0.36544550051E+01  0.31248872623E+01  0.15733734050E+02  0.00000000000E+00 0.  1.
</event>
<event>
 7    1  0.2740409E-010  0.4778727E+02  0.7816164E-02  0.1312668E+00
        -11   -1    0    0    0    0  0.00000000000E+00  0.00000000000E+00  0.45593999997E+02  0.45594000000E+02  0.51100000000E-03 0.  1.
         11   -1    0    0    0    0 -0.00000000000E+00 -0.00000000000E+00 -0.45593999997E+02  0.45594000000E+02  0.51100000000E-03 0. -1.
    9900012    2    1    2    0    0 -0.22541980363E+02  0.23506316517E+02 -0.28686855776E+02  0.47787268564E+02  0.19999988689E+02 0.  0.
        -12    1    1    2    0    0  0.22541980363E+02 -0.23506316517E+02  0.28686855776E+02  0.43400731436E+02  0.00000000000E+00 0.  1.
         11    1    3    3    0    0 -0.16707158399E+02  0.86648738787E+01 -0.10143672364E+02  0.21379973583E+02  0.51100000000E-03 0. -1.
        -11    1    3    3    0    0 -0.54713960901E+01  0.14379145191E+02 -0.11173740921E+02  0.19014428154E+02  0.51100000000E-03 0.  1.
         12    1    3    3    0    0 -0.36342587380E+00  0.46229744766E+00 -0.73694424907E+01  0.73928668269E+01  0.00000000000E+00 0. -1.
</event>
<event>
 7    1  0.2740409E-010  0.4778727E+02  0.7816164E-02  0.1312668E+00
        -11   -1    0    0    0    0  0.00000000000E+00  0.00000000000E+00  0.45593999997E+02  0.45594000000E+02  0.51100000000E-03 0. -1.
         11   -1    0    0    0    0 -0.00000000000E+00 -0.00000000000E+00 -0.45593999997E+02  0.45594000000E+02  0.51100000000E-03 0.  1.
    9900012    2    1    2    0    0  0.86837158642E+01  0.34882985473E+02  0.24318596428E+02  0.47787265801E+02  0.19999976094E+02 0.  0.
        -12    1    1    2    0    0 -0.86837158642E+01 -0.34882985473E+02 -0.24318596428E+02  0.43400734199E+02  0.00000000000E+00 0.  1.
         11    1    3    3    0    0  0.26898567872E+01  0.21370662000E+02  0.22125833924E+02  0.30878682791E+02  0.51100000000E-03 0. -1.
        -11    1    3    3    0    0  0.62119796097E+01  0.92608947452E+01  0.45483805632E+01  0.12043281453E+02  0.51100000000E-03 0.  1.
         12    1    3    3    0    0 -0.21812053266E+00  0.42514287284E+01 -0.23556180587E+01  0.48653015567E+01  0.00000000000E+00 0. -1.
</event>
<event>
 7    1  0.2740409E-010  0.4778727E+02  0.7816164E-02  0.1312668E+00
        -11   -1    0    0    0    0  0.00000000000E+00  0.00000000000E+00  0.45593999997E+02  0.45594000000E+02  0.51100000000E-03 0. -1.
         11   -1    0    0    0    0 -0.00000000000E+00 -0.00000000000E+00 -0.45593999997E+02  0.45594000000E+02  0.51100000000E-03 0.  1.
    9900012    2    1    2    0    0  0.23610957233E+02 -0.29897451122E+02  0.20791547405E+02  0.47787270414E+02  0.19999997126E+02 0.  0.
        -12    1    1    2    0    0 -0.23610957233E+02  0.29897451122E+02 -0.20791547405E+02  0.43400729586E+02  0.00000000000E+00 0.  1.
         11    1    3    3    0    0  0.38112302617E+01 -0.16344623645E+02  0.75317860632E+01  0.18395651654E+02  0.51100000000E-03 0. -1.
        -11    1    3    3    0    0  0.14273514570E+02 -0.38597515323E+01  0.53908075864E+01  0.15738224384E+02  0.51100000000E-03 0.  1.
        -12    1    3    3    0    0  0.55262124015E+01 -0.96930759453E+01  0.78689537552E+01  0.13653394376E+02  0.00000000000E+00 0.  1.
</event>
<event>
 7    1  0.2740409E-010  0.4778728E+02  0.7816164E-02  0.1312668E+00
        -11   -1    0    0    0    0  0.00000000000E+00  0.00000000000E+00  0.45593999997E+02  0.45594000000E+02  0.51100000000E-03 0.  1.
         11   -1    0    0    0    0 -0.00000000000E+00 -0.00000000000E+00 -0.45593999997E+02  0.45594000000E+02  0.51100000000E-03 0. -1.
    9900012    2    1    2    0    0  0.42045788809E+02  0.96651708568E+00  0.10716346855E+02  0.47787278787E+02  0.20000035302E+02 0.  0.
        -12    1    1    2    0    0 -0.42045788809E+02 -0.96651708568E+00 -0.10716346855E+02  0.43400721213E+02  0.00000000000E+00 0.  1.
         11    1    3    3    0    0  0.27176897968E+02 -0.15034864585E+01  0.26285240722E+01  0.27345079882E+02  0.51100000000E-03 0. -1.
        -11    1    3    3    0    0  0.12864172948E+01 -0.31133062865E+01  0.39372635416E+01  0.51816589956E+01  0.51100000000E-03 0.  1.
        -12    1    3    3    0    0  0.13582473547E+02  0.55833098306E+01  0.41505592416E+01  0.15260539909E+02  0.00000000000E+00 0.  1.
</event>
<event>
 7    1  0.2740409E-010  0.4778727E+02  0.7816164E-02  0.1312668E+00
        -11   -1    0    0    0    0  0.00000000000E+00  0.00000000000E+00  0.45593999997E+02  0.45594000000E+02  0.51100000000E-03 0.  1.
         11   -1    0    0    0    0 -0.00000000000E+00 -0.00000000000E+00 -0.45593999997E+02  0.45594000000E+02  0.51100000000E-03 0. -1.
    9900012    2    1    2    0    0  0.25991714773E+02 -0.72578064970E+01 -0.33990854905E+02  0.47787271790E+02  0.20000003398E+02 0.  0.
        -12    1    1    2    0    0 -0.25991714773E+02  0.72578064970E+01  0.33990854905E+02  0.43400728210E+02  0.00000000000E+00 0.  1.
         11    1    3    3    0    0  0.18660291423E+02 -0.69851175117E+01 -0.27344996098E+02  0.33834112290E+02  0.51100000000E-03 0. -1.
        -11    1    3    3    0    0  0.88003096628E+01 -0.47914323802E+00 -0.19471477330E+01  0.90258746368E+01  0.51100000000E-03 0.  1.
        -12    1    3    3    0    0 -0.14688863123E+01  0.20645425279E+00 -0.46987110746E+01  0.49272848628E+01  0.00000000000E+00 0.  1.
</event>
<event>
 7    1  0.2740409E-010  0.4778727E+02  0.7816164E-02  0.1312668E+00
        -11   -1    0    0    0    0  0.00000000000E+00  0.00000000000E+00  0.45593999997E+02  0.45594000000E+02  0.51100000000E-03 0.  1.
         11   -1    0    0    0    0 -0.00000000000E+00 -0.00000000000E+00 -0.45593999997E+02  0.45594000000E+02  0.51100000000E-03 0. -1.
    9900012    2    1    2    0    0 -0.87672116713E+01 -0.38430487823E+02 -0.18161964353E+02  0.47787270237E+02  0.19999996318E+02 0.  0.
        -12    1    1    2    0    0  0.87672116713E+01  0.38430487823E+02  0.18161964353E+02  0.43400729763E+02  0.00000000000E+00 0.  1.
         11    1    3    3    0    0  0.18691333917E+01 -0.55253391562E+00 -0.29209918800E+01  0.35115733210E+01  0.51100000000E-03 0. -1.
        -11    1    3    3    0    0 -0.10356647608E+02 -0.38494311286E+02 -0.12991709624E+02  0.41926801336E+02  0.51100000000E-03 0.  1.
        -12    1    3    3    0    0 -0.27969745502E+00  0.61635737807E+00 -0.22492628484E+01  0.23488955799E+01  0.00000000000E+00 0.  1.
</event>
<event>
 7    1  0.2740409E-010  0.4778727E+02  0.7816164E-02  0.1312668E+00
        -11   -1    0    0    0    0  0.00000000000E+00  0.00000000000E+00  0.45593999997E+02  0.45594000000E+02  0.51100000000E-03 0. -1.
         11   -1    0    0    0    0 -0.00000000000E+00 -0.00000000000E+00 -0.45593999997E+02  0.45594000000E+02  0.51100000000E-03 0.  1.
    9900012    2    1    2    0    0  0.58419026073E+01  0.61454547986E+01  0.42564408383E+02  0.47787270723E+02  0.19999998534E+02 0.  0.
        -12    1    1    2    0    0 -0.58419026073E+01 -0.61454547986E+01 -0.42564408383E+02  0.43400729277E+02  0.00000000000E+00 0.  1.
         11    1    3    3    0    0  0.16558233731E+00 -0.12818010889E+01  0.39850843978E+01  0.41894306846E+01  0.51100000000E-03 0. -1.
        -11    1    3    3    0    0 -0.36286283628E+01  0.79609638396E+01  0.28752334221E+02  0.30053961677E+02  0.51100000000E-03 0.  1.
        -12    1    3    3    0    0  0.93049486328E+01 -0.53370795208E+00  0.98269897646E+01  0.13543878361E+02  0.00000000000E+00 0.  1.
</event>
<event>
 7    1  0.2740409E-010  0.4778727E+02  0.7816164E-02  0.1312668E+00
        -11   -1    0    0    0    0  0.00000000000E+00  0.00000000000E+00  0.45593999997E+02  0.45594000000E+02  0.51100000000E-03 0.  1.
         11   -1    0    0    0    0 -0.00000000000E+00 -0.00000000000E+00 -0.45593999997E+02  0.45594000000E+02  0.51100000000E-03 0. -1.
    9900012    2    1    2    0    0  0.21060036591E+02 -0.20691648396E+02 -0.31811220021E+02  0.47787272198E+02  0.20000005260E+02 0.  0.
        -12    1    1    2    0    0 -0.21060036591E+02  0.20691648396E+02  0.31811220021E+02  0.43400727802E+02  0.00000000000E+00 0.  1.
         11    1    3    3    0    0  0.79320577691E+01 -0.26860904782E+01 -0.13651700755E+01  0.84850640602E+01  0.51100000000E-03 0. -1.
        -11    1    3    3    0    0  0.14084292351E+02 -0.18836683060E+02 -0.28176086331E+02  0.36702585208E+02  0.51100000000E-03 0.  1.
        -12    1    3    3    0    0 -0.95631352951E+00  0.83112514249E+00 -0.22699636136E+01  0.25996229297E+01  0.00000000000E+00 0.  1.
</event>
<event>
 7    1  0.2740409E-010  0.4778727E+02  0.7816164E-02  0.1312668E+00
        -11   -1    0    0    0    0  0.00000000000E+00  0.00000000000E+00  0.45593999997E+02  0.45594000000E+02  0.51100000000E-03 0.  1.
         11   -1    0    0    0    0 -0.00000000000E+00 -0.00000000000E+00 -0.45593999997E+02  0.45594000000E+02  0.51100000000E-03 0. -1.
    9900012    2    1    2    0    0 -0.22882551078E+02  0.34253281661E+02 -0.13664732083E+02  0.47787270152E+02  0.19999995933E+02 0.  0.
        -12    1    1    2    0    0  0.22882551078E+02 -0.34253281661E+02  0.13664732083E+02  0.43400729848E+02  0.00000000000E+00 0.  1.
         11    1    3    3    0    0 -0.13856385244E+02  0.25298332238E+02 -0.36844081933E+01  0.29078856409E+02  0.51100000000E-03 0. -1.
        -11    1    3    3    0    0 -0.38974660855E+01 -0.97942711793E+00 -0.51424775888E+01  0.65264535070E+01  0.51100000000E-03 0.  1.
         12    1    3    3    0    0 -0.51286997481E+01  0.99343765405E+01 -0.48378463014E+01  0.12181960236E+02  0.00000000000E+00 0. -1.
</event>
<event>
 7    1  0.2740409E-010  0.4778726E+02  0.7816164E-02  0.1312668E+00
        -11   -1    0    0    0    0  0.00000000000E+00  0.00000000000E+00  0.45593999997E+02  0.45594000000E+02  0.51100000000E-03 0.  1.
         11   -1    0    0    0    0 -0.00000000000E+00 -0.00000000000E+00 -0.45593999997E+02  0.45594000000E+02  0.51100000000E-03 0. -1.
    9900012    2    1    2    0    0 -0.88330417916E+01 -0.41982044126E+02  0.65657737796E+01  0.47787262199E+02  0.19999959672E+02 0.  0.
        -12    1    1    2    0    0  0.88330417916E+01  0.41982044126E+02 -0.65657737796E+01  0.43400737801E+02  0.00000000000E+00 0.  1.
         11    1    3    3    0    0  0.19802322550E+01 -0.13580166895E+02 -0.11752324982E+01  0.13774012646E+02  0.51100000000E-03 0. -1.
        -11    1    3    3    0    0 -0.13233252123E+02 -0.27427437290E+02  0.65696606191E+01  0.31153550664E+02  0.51100000000E-03 0.  1.
        -12    1    3    3    0    0  0.24199780761E+01 -0.97443994053E+00  0.11713456587E+01  0.28596988895E+01  0.00000000000E+00 0.  1.
</event>
<event>
 7    1  0.2740409E-010  0.4778727E+02  0.7816164E-02  0.1312668E+00
        -11   -1    0    0    0    0  0.00000000000E+00  0.00000000000E+00  0.45593999997E+02  0.45594000000E+02  0.51100000000E-03 0.  1.
         11   -1    0    0    0    0 -0.00000000000E+00 -0.00000000000E+00 -0.45593999997E+02  0.45594000000E+02  0.51100000000E-03 0. -1.
    9900012    2    1    2    0    0  0.33785511397E+02  0.99250954868E+01  0.25370356523E+02  0.47787270849E+02  0.19999999108E+02 0.  0.
        -12    1    1    2    0    0 -0.33785511397E+02 -0.99250954868E+01 -0.25370356523E+02  0.43400729151E+02  0.00000000000E+00 0.  1.
         11    1    3    3    0    0  0.25548013515E+02  0.38111848350E+01  0.11025348463E+02  0.28085306361E+02  0.51100000000E-03 0. -1.
        -11    1    3    3    0    0  0.83161302827E+01  0.98631723616E+00  0.87121365170E+01  0.12084377002E+02  0.51100000000E-03 0.  1.
         12    1    3    3    0    0 -0.78632400659E-01  0.51275934157E+01  0.56328715426E+01  0.76175874860E+01  0.00000000000E+00 0. -1.
</event>
<event>
 7    1  0.2740409E-010  0.4778727E+02  0.7816164E-02  0.1312668E+00
        -11   -1    0    0    0    0  0.00000000000E+00  0.00000000000E+00  0.45593999997E+02  0.45594000000E+02  0.51100000000E-03 0. -1.
         11   -1    0    0    0    0 -0.00000000000E+00 -0.00000000000E+00 -0.45593999997E+02  0.45594000000E+02  0.51100000000E-03 0.  1.
    9900012    2    1    2    0    0  0.41762817921E+02 -0.46935749301E+01 -0.10837931627E+02  0.47787269957E+02  0.19999995042E+02 0.  0.
        -12    1    1    2    0    0 -0.41762817921E+02  0.46935749301E+01  0.10837931627E+02  0.43400730043E+02  0.00000000000E+00 0.  1.
         11    1    3    3    0    0  0.28423432677E+01  0.82672095493E+00  0.36916910427E+01  0.47319093192E+01  0.51100000000E-03 0. -1.
        -11    1    3    3    0    0  0.84777693192E+00  0.15545594956E+01 -0.28184087318E+00  0.17929906555E+01  0.51100000000E-03 0.  1.
         12    1    3    3    0    0  0.38072697721E+02 -0.70748553806E+01 -0.14247781796E+02  0.41262369982E+02  0.00000000000E+00 0. -1.
</event>
<event>
 7    1  0.2740409E-010  0.4778727E+02  0.7816164E-02  0.1312668E+00
        -11   -1    0    0    0    0  0.00000000000E+00  0.00000000000E+00  0.45593999997E+02  0.45594000000E+02  0.51100000000E-03 0. -1.
         11   -1    0    0    0    0 -0.00000000000E+00 -0.00000000000E+00 -0.45593999997E+02  0.45594000000E+02  0.51100000000E-03 0.  1.
    9900012    2    1    2    0    0  0.40168821498E+02 -0.14478061294E+02  0.77765496867E+01  0.47787271845E+02  0.20000003649E+02 0.  0.
        -12    1    1    2    0    0 -0.40168821498E+02  0.14478061294E+02 -0.77765496867E+01  0.43400728155E+02  0.00000000000E+00 0.  1.
         11    1    3    3    0    0  0.18558632129E+02 -0.17899929691E+01 -0.15103724519E+01  0.18705831351E+02  0.51100000000E-03 0. -1.
        -11    1    3    3    0    0  0.21584629054E+02 -0.14003566533E+02  0.73839018732E+01  0.26767855614E+02  0.51100000000E-03 0.  1.
        -12    1    3    3    0    0  0.25560315292E-01  0.13154982083E+01  0.19030202654E+01  0.23135848799E+01  0.00000000000E+00 0.  1.
</event>
<event>
 7    1  0.2740409E-010  0.4778728E+02  0.7816164E-02  0.1312668E+00
        -11   -1    0    0    0    0  0.00000000000E+00  0.00000000000E+00  0.45593999997E+02  0.45594000000E+02  0.51100000000E-03 0.  1.
         11   -1    0    0    0    0 -0.00000000000E+00 -0.00000000000E+00 -0.45593999997E+02  0.45594000000E+02  0.51100000000E-03 0. -1.
    9900012    2    1    2    0    0  0.18626509444E+02  0.28952133396E+02 -0.26428202648E+02  0.47787276764E+02  0.20000026078E+02 0.  0.
        -12    1    1    2    0    0 -0.18626509444E+02 -0.28952133396E+02  0.26428202648E+02  0.43400723236E+02  0.00000000000E+00 0.  1.
         11    1    3    3    0    0  0.93040620843E+01  0.47704135599E+01 -0.10379403281E+02  0.14732767206E+02  0.51100000000E-03 0. -1.
        -11    1    3    3    0    0 -0.30403361767E+01  0.61505888534E+01 -0.23372578031E+01  0.72481833317E+01  0.51100000000E-03 0.  1.
        -12    1    3    3    0    0  0.12362783536E+02  0.18031130982E+02 -0.13711541564E+02  0.25806326227E+02  0.00000000000E+00 0.  1.
</event>
<event>
 7    1  0.2740409E-010  0.4778727E+02  0.7816164E-02  0.1312668E+00
        -11   -1    0    0    0    0  0.00000000000E+00  0.00000000000E+00  0.45593999997E+02  0.45594000000E+02  0.51100000000E-03 0. -1.
         11   -1    0    0    0    0 -0.00000000000E+00 -0.00000000000E+00 -0.45593999997E+02  0.45594000000E+02  0.51100000000E-03 0.  1.
    9900012    2    1    2    0    0 -0.16639973113E+02  0.39657815795E+02 -0.58302780896E+01  0.47787271879E+02  0.20000003805E+02 0.  0.
        -12    1    1    2    0    0  0.16639973113E+02 -0.39657815795E+02  0.58302780896E+01  0.43400728121E+02  0.00000000000E+00 0.  1.
         11    1    3    3    0    0 -0.48869567457E+01  0.28313080509E+02 -0.62198322985E+01  0.29397264979E+02  0.51100000000E-03 0. -1.
        -11    1    3    3    0    0 -0.12284439028E+02  0.12232888030E+02  0.19863024251E+00  0.17337544406E+02  0.51100000000E-03 0.  1.
        -12    1    3    3    0    0  0.53142266066E+00 -0.88815274406E+00  0.19092396641E+00  0.10524624943E+01  0.00000000000E+00 0.  1.
</event>
<event>
 7    1  0.2740409E-010  0.4778726E+02  0.7816164E-02  0.1312668E+00
        -11   -1    0    0    0    0  0.00000000000E+00  0.00000000000E+00  0.45593999997E+02  0.45594000000E+02  0.51100000000E-03 0.  1.
         11   -1    0    0    0    0 -0.00000000000E+00 -0.00000000000E+00 -0.45593999997E+02  0.45594000000E+02  0.51100000000E-03 0. -1.
    9900012    2    1    2    0    0 -0.21509346090E+02 -0.31489423619E+02 -0.20721685457E+02  0.47787262480E+02  0.19999960952E+02 0.  0.
        -12    1    1    2    0    0  0.21509346090E+02  0.31489423619E+02  0.20721685457E+02  0.43400737520E+02  0.00000000000E+00 0.  1.
         11    1    3    3    0    0 -0.11981726053E+02 -0.21959592366E+02 -0.19673631165E+02  0.31825103606E+02  0.51100000000E-03 0. -1.
        -11    1    3    3    0    0 -0.20026265402E+01 -0.18059631152E+00 -0.31902658494E+01  0.37710641122E+01  0.51100000000E-03 0.  1.
         12    1    3    3    0    0 -0.75249934975E+01 -0.93492349415E+01  0.21422115572E+01  0.12191094762E+02  0.00000000000E+00 0. -1.
</event>
<event>
 7    1  0.2740409E-010  0.4778727E+02  0.7816164E-02  0.1312668E+00
        -11   -1    0    0    0    0  0.00000000000E+00  0.00000000000E+00  0.45593999997E+02  0.45594000000E+02  0.51100000000E-03 0. -1.
         11   -1    0    0    0    0 -0.00000000000E+00 -0.00000000000E+00 -0.45593999997E+02  0.45594000000E+02  0.51100000000E-03 0.  1.
    9900012    2    1    2    0    0  0.32338602921E+02  0.27415199389E+02  0.92868045753E+01  0.47787272637E+02  0.20000007263E+02 0.  0.
        -12    1    1    2    0    0 -0.32338602921E+02 -0.27415199389E+02 -0.92868045753E+01  0.43400727363E+02  0.00000000000E+00 0.  1.
         11    1    3    3    0    0  0.18608296496E+02  0.24063439253E+02  0.10306926746E+02  0.32117760606E+02  0.51100000000E-03 0. -1.
        -11    1    3    3    0    0  0.12146047036E+02  0.51665037984E+01 -0.12010823116E+01  0.13253747360E+02  0.51100000000E-03 0.  1.
         12    1    3    3    0    0  0.15842593887E+01 -0.18147436628E+01  0.18096014052E+00  0.24157646708E+01  0.00000000000E+00 0. -1.
</event>
<event>
 7    1  0.2740409E-010  0.4778726E+02  0.7816164E-02  0.1312668E+00
        -11   -1    0    0    0    0  0.00000000000E+00  0.00000000000E+00  0.45593999997E+02  0.45594000000E+02  0.51100000000E-03 0.  1.
         11   -1    0    0    0    0 -0.00000000000E+00 -0.00000000000E+00 -0.45593999997E+02  0.45594000000E+02  0.51100000000E-03 0. -1.
    9900012    2    1    2    0    0 -0.10532870990E+02  0.31161121682E+02 -0.28313723628E+02  0.47787264736E+02  0.19999971238E+02 0.  0.
        -12    1    1    2    0    0  0.10532870990E+02 -0.31161121682E+02  0.28313723628E+02  0.43400735264E+02  0.00000000000E+00 0.  1.
         11    1    3    3    0    0  0.23285218724E+01  0.89721738535E+01 -0.11980699390E+02  0.15147906651E+02  0.51100000000E-03 0. -1.
        -11    1    3    3    0    0 -0.12930341192E+02  0.21298036944E+02 -0.11006898887E+02  0.27238794473E+02  0.51100000000E-03 0.  1.
        -12    1    3    3    0    0  0.68948329176E-01  0.89091088492E+00 -0.53261253507E+01  0.54005636121E+01  0.00000000000E+00 0.  1.
</event>
<event>
 7    1  0.2740409E-010  0.4778727E+02  0.7816164E-02  0.1312668E+00
        -11   -1    0    0    0    0  0.00000000000E+00  0.00000000000E+00  0.45593999997E+02  0.45594000000E+02  0.51100000000E-03 0.  1.
         11   -1    0    0    0    0 -0.00000000000E+00 -0.00000000000E+00 -0.45593999997E+02  0.45594000000E+02  0.51100000000E-03 0. -1.
    9900012    2    1    2    0    0  0.50465872677E+01 -0.71092799632E+01 -0.42516037135E+02  0.47787270532E+02  0.19999997665E+02 0.  0.
        -12    1    1    2    0    0 -0.50465872677E+01  0.71092799632E+01  0.42516037135E+02  0.43400729468E+02  0.00000000000E+00 0.  1.
         11    1    3    3    0    0  0.67743216991E+01 -0.22495979422E+01 -0.14524204754E+02  0.16183468398E+02  0.51100000000E-03 0. -1.
        -11    1    3    3    0    0  0.10171969884E+01 -0.43864225022E+01 -0.28429775157E+02  0.28784153762E+02  0.51100000000E-03 0.  1.
        -12    1    3    3    0    0 -0.27449314198E+01 -0.47325951890E+00  0.43794277524E+00  0.28196483728E+01  0.00000000000E+00 0.  1.
</event>
<event>
 7    1  0.2740409E-010  0.4778727E+02  0.7816164E-02  0.1312668E+00
        -11   -1    0    0    0    0  0.00000000000E+00  0.00000000000E+00  0.45593999997E+02  0.45594000000E+02  0.51100000000E-03 0.  1.
         11   -1    0    0    0    0 -0.00000000000E+00 -0.00000000000E+00 -0.45593999997E+02  0.45594000000E+02  0.51100000000E-03 0. -1.
    9900012    2    1    2    0    0 -0.21678944020E+02 -0.13708401728E+02 -0.35010373958E+02  0.47787272167E+02  0.20000005119E+02 0.  0.
        -12    1    1    2    0    0  0.21678944020E+02  0.13708401728E+02  0.35010373958E+02  0.43400727833E+02  0.00000000000E+00 0.  1.
         11    1    3    3    0    0 -0.14561585249E+02 -0.29223032517E+01 -0.13540091155E+02  0.20097604086E+02  0.51100000000E-03 0. -1.
        -11    1    3    3    0    0 -0.31786917687E+01 -0.95147286976E+01 -0.21303818921E+02  0.23547544340E+02  0.51100000000E-03 0.  1.
        -12    1    3    3    0    0 -0.39386670016E+01 -0.12713697789E+01 -0.16646388245E+00  0.41421237414E+01  0.00000000000E+00 0.  1.
</event>
<event>
 7    1  0.2740409E-010  0.4778729E+02  0.7816164E-02  0.1312668E+00
        -11   -1    0    0    0    0  0.00000000000E+00  0.00000000000E+00  0.45593999997E+02  0.45594000000E+02  0.51100000000E-03 0. -1.
         11   -1    0    0    0    0 -0.00000000000E+00 -0.00000000000E+00 -0.45593999997E+02  0.45594000000E+02  0.51100000000E-03 0.  1.
    9900012    2    1    2    0    0 -0.33865399340E+02 -0.19177455762E+02  0.19208884938E+02  0.47787293295E+02  0.20000101449E+02 0.  0.
        -12    1    1    2    0    0  0.33865399340E+02  0.19177455762E+02 -0.19208884938E+02  0.43400706705E+02  0.00000000000E+00 0.  1.
         11    1    3    3    0    0 -0.19702588742E+02 -0.10128523133E+02  0.12578224411E+02  0.25475296144E+02  0.51100000000E-03 0. -1.
        -11    1    3    3    0    0 -0.14859650087E+02 -0.49172365009E+01  0.84000135041E+01  0.17763688881E+02  0.51100000000E-03 0.  1.
        -12    1    3    3    0    0  0.69683948987E+00 -0.41316961273E+01 -0.17693529774E+01  0.45483082703E+01  0.00000000000E+00 0.  1.
</event>
<event>
 7    1  0.2740409E-010  0.4778726E+02  0.7816164E-02  0.1312668E+00
        -11   -1    0    0    0    0  0.00000000000E+00  0.00000000000E+00  0.45593999997E+02  0.45594000000E+02  0.51100000000E-03 0.  1.
         11   -1    0    0    0    0 -0.00000000000E+00 -0.00000000000E+00 -0.45593999997E+02  0.45594000000E+02  0.51100000000E-03 0. -1.
    9900012    2    1    2    0    0 -0.19188870809E+02 -0.20335078802E+02 -0.33194813948E+02  0.47787264225E+02  0.19999968906E+02 0.  0.
        -12    1    1    2    0    0  0.19188870809E+02  0.20335078802E+02  0.33194813948E+02  0.43400735775E+02  0.00000000000E+00 0.  1.
         11    1    3    3    0    0 -0.32212288794E+01 -0.38685142754E+01 -0.36009137796E+01  0.61893697984E+01  0.51100000000E-03 0. -1.
        -11    1    3    3    0    0 -0.20100514770E+01 -0.12831321239E+02 -0.68958947971E+01  0.14704981367E+02  0.51100000000E-03 0.  1.
        -12    1    3    3    0    0 -0.13957590452E+02 -0.36352432879E+01 -0.22698005371E+02  0.26892913059E+02  0.00000000000E+00 0.  1.
</event>
<event>
 7    1  0.2740409E-010  0.4778727E+02  0.7816164E-02  0.1312668E+00
        -11   -1    0    0    0    0  0.00000000000E+00  0.00000000000E+00  0.45593999997E+02  0.45594000000E+02  0.51100000000E-03 0.  1.
         11   -1    0    0    0    0 -0.00000000000E+00 -0.00000000000E+00 -0.45593999997E+02  0.45594000000E+02  0.51100000000E-03 0. -1.
    9900012    2    1    2    0    0 -0.61647147988E+01 -0.32062846479E+02 -0.28593598629E+02  0.47787265957E+02  0.19999976805E+02 0.  0.
        -12    1    1    2    0    0  0.61647147988E+01  0.32062846479E+02  0.28593598629E+02  0.43400734043E+02  0.00000000000E+00 0.  1.
         11    1    3    3    0    0 -0.43761809217E+01 -0.12101103247E+02 -0.18889316051E+01  0.13005987934E+02  0.51100000000E-03 0. -1.
        -11    1    3    3    0    0  0.34825891154E+01 -0.33408749359E+01 -0.51690985181E+01  0.70717361401E+01  0.51100000000E-03 0.  1.
         12    1    3    3    0    0 -0.52711229925E+01 -0.16620868296E+02 -0.21535568506E+02  0.27709541883E+02  0.00000000000E+00 0. -1.
</event>
<event>
 7    1  0.2740409E-010  0.4778727E+02  0.7816164E-02  0.1312668E+00
        -11   -1    0    0    0    0  0.00000000000E+00  0.00000000000E+00  0.45593999997E+02  0.45594000000E+02  0.51100000000E-03 0.  1.
         11   -1    0    0    0    0 -0.00000000000E+00 -0.00000000000E+00 -0.45593999997E+02  0.45594000000E+02  0.51100000000E-03 0. -1.
    9900012    2    1    2    0    0 -0.32161714672E+02 -0.26534303131E+02 -0.12049001217E+02  0.47787267707E+02  0.19999984782E+02 0.  0.
        -12    1    1    2    0    0  0.32161714672E+02  0.26534303131E+02  0.12049001217E+02  0.43400732293E+02  0.00000000000E+00 0.  1.
         11    1    3    3    0    0  0.41296151886E+00  0.93305019078E+00  0.33180809649E+00  0.10729476914E+01  0.51100000000E-03 0.  1.
        -11    1    3    3    0    0 -0.29434834769E+02 -0.27369775544E+02 -0.74654449387E+01  0.40880887706E+02  0.51100000000E-03 0. -1.
        -12    1    3    3    0    0 -0.31398414217E+01 -0.97577777678E-01 -0.49153643744E+01  0.58334323094E+01  0.00000000000E+00 0.  1.
</event>
<event>
 7    1  0.2740409E-010  0.4778727E+02  0.7816164E-02  0.1312668E+00
        -11   -1    0    0    0    0  0.00000000000E+00  0.00000000000E+00  0.45593999997E+02  0.45594000000E+02  0.51100000000E-03 0.  1.
         11   -1    0    0    0    0 -0.00000000000E+00 -0.00000000000E+00 -0.45593999997E+02  0.45594000000E+02  0.51100000000E-03 0. -1.
    9900012    2    1    2    0    0  0.19091636356E+02 -0.16069928412E+02 -0.35509010412E+02  0.47787274218E+02  0.20000014471E+02 0.  0.
        -12    1    1    2    0    0 -0.19091636356E+02  0.16069928412E+02  0.35509010412E+02  0.43400725782E+02  0.00000000000E+00 0.  1.
         11    1    3    3    0    0  0.40497295499E+01 -0.66565666510E+01 -0.14593160336E+01  0.79271553885E+01  0.51100000000E-03 0.  1.
        -11    1    3    3    0    0  0.13891029239E+02 -0.10659145035E+02 -0.33903382502E+02  0.38157796209E+02  0.51100000000E-03 0. -1.
         12    1    3    3    0    0  0.11508775668E+01  0.12457832740E+01 -0.14631187684E+00  0.17023226207E+01  0.00000000000E+00 0. -1.
</event>
<event>
 7    1  0.2740409E-010  0.4778727E+02  0.7816164E-02  0.1312668E+00
        -11   -1    0    0    0    0  0.00000000000E+00  0.00000000000E+00  0.45593999997E+02  0.45594000000E+02  0.51100000000E-03 0. -1.
         11   -1    0    0    0    0 -0.00000000000E+00 -0.00000000000E+00 -0.45593999997E+02  0.45594000000E+02  0.51100000000E-03 0.  1.
    9900012    2    1    2    0    0 -0.41212275148E+02 -0.12266536242E+02  0.58910005866E+01  0.47787269336E+02  0.19999992212E+02 0.  0.
        -12    1    1    2    0    0  0.41212275148E+02  0.12266536242E+02 -0.58910005866E+01  0.43400730664E+02  0.00000000000E+00 0.  1.
         11    1    3    3    0    0 -0.52256504198E+01 -0.63386714339E+00  0.36554662041E+01  0.64087161972E+01  0.51100000000E-03 0. -1.
        -11    1    3    3    0    0 -0.13282559032E+02 -0.11777774429E+01 -0.65854204557E+01  0.14872165175E+02  0.51100000000E-03 0.  1.
        -12    1    3    3    0    0 -0.22704065696E+02 -0.10454891656E+02  0.88209548382E+01  0.26506387964E+02  0.00000000000E+00 0.  1.
</event>
<event>
 7    1  0.2740409E-010  0.4778727E+02  0.7816164E-02  0.1312668E+00
        -11   -1    0    0    0    0  0.00000000000E+00  0.00000000000E+00  0.45593999997E+02  0.45594000000E+02  0.51100000000E-03 0. -1.
         11   -1    0    0    0    0 -0.00000000000E+00 -0.00000000000E+00 -0.45593999997E+02  0.45594000000E+02  0.51100000000E-03 0.  1.
    9900012    2    1    2    0    0 -0.27948386736E+02 -0.32436387110E+02 -0.70987132218E+01  0.47787271212E+02  0.20000000763E+02 0.  0.
        -12    1    1    2    0    0  0.27948386736E+02  0.32436387110E+02  0.70987132218E+01  0.43400728788E+02  0.00000000000E+00 0.  1.
         11    1    3    3    0    0 -0.21083050922E+02 -0.15612674206E+02  0.32051815000E+01  0.26429601222E+02  0.51100000000E-03 0. -1.
        -11    1    3    3    0    0 -0.34210181547E+01 -0.78229829024E+01 -0.73826107436E+01  0.11287398653E+02  0.51100000000E-03 0.  1.
         12    1    3    3    0    0 -0.34443176594E+01 -0.90007300024E+01 -0.29212839783E+01  0.10070271337E+02  0.00000000000E+00 0. -1.
</event>
<event>
 7    1  0.2740409E-010  0.4778727E+02  0.7816164E-02  0.1312668E+00
        -11   -1    0    0    0    0  0.00000000000E+00  0.00000000000E+00  0.45593999997E+02  0.45594000000E+02  0.51100000000E-03 0. -1.
         11   -1    0    0    0    0 -0.00000000000E+00 -0.00000000000E+00 -0.45593999997E+02  0.45594000000E+02  0.51100000000E-03 0.  1.
    9900012    2    1    2    0    0  0.27609978892E+02  0.96451755149E+01  0.32066847805E+02  0.47787273355E+02  0.20000010536E+02 0.  0.
        -12    1    1    2    0    0 -0.27609978892E+02 -0.96451755149E+01 -0.32066847805E+02  0.43400726645E+02  0.00000000000E+00 0.  1.
         11    1    3    3    0    0  0.17661588135E+02  0.46658089828E+01  0.99036114814E+01  0.20779388575E+02  0.51100000000E-03 0. -1.
        -11    1    3    3    0    0  0.45747002511E+01 -0.31271725155E+01  0.10016695971E+02  0.11447326708E+02  0.51100000000E-03 0.  1.
        -12    1    3    3    0    0  0.53736905066E+01  0.81065390476E+01  0.12146540353E+02  0.15560558073E+02  0.00000000000E+00 0.  1.
</event>
<event>
 7    1  0.2740409E-010  0.4778727E+02  0.7816164E-02  0.1312668E+00
        -11   -1    0    0    0    0  0.00000000000E+00  0.00000000000E+00  0.45593999997E+02  0.45594000000E+02  0.51100000000E-03 0.  1.
         11   -1    0    0    0    0 -0.00000000000E+00 -0.00000000000E+00 -0.45593999997E+02  0.45594000000E+02  0.51100000000E-03 0. -1.
    9900012    2    1    2    0    0  0.14233123352E+02 -0.40952377846E+02 -0.19860659755E+01  0.47787268328E+02  0.19999987615E+02 0.  0.
        -12    1    1    2    0    0 -0.14233123352E+02  0.40952377846E+02  0.19860659755E+01  0.43400731672E+02  0.00000000000E+00 0.  1.
         11    1    3    3    0    0  0.80641964586E+01 -0.87489869818E+01 -0.29284198202E+01  0.12253639485E+02  0.51100000000E-03 0. -1.
        -11    1    3    3    0    0 -0.42460461684E+01 -0.11069583022E+02  0.16013728154E+01  0.11963652097E+02  0.51100000000E-03 0.  1.
        -12    1    3    3    0    0  0.10414973062E+02 -0.21133807842E+02 -0.65901897061E+00  0.23569976746E+02  0.00000000000E+00 0.  1.
</event>
<event>
 7    1  0.2740409E-010  0.4778726E+02  0.7816164E-02  0.1312668E+00
        -11   -1    0    0    0    0  0.00000000000E+00  0.00000000000E+00  0.45593999997E+02  0.45594000000E+02  0.51100000000E-03 0.  1.
         11   -1    0    0    0    0 -0.00000000000E+00 -0.00000000000E+00 -0.45593999997E+02  0.45594000000E+02  0.51100000000E-03 0. -1.
    9900012    2    1    2    0    0  0.28041887735E+02  0.27867922042E+02 -0.17906868851E+02  0.47787256933E+02  0.19999935661E+02 0.  0.
        -12    1    1    2    0    0 -0.28041887735E+02 -0.27867922042E+02  0.17906868851E+02  0.43400743067E+02  0.00000000000E+00 0.  1.
         11    1    3    3    0    0  0.23844965257E+02  0.23790932283E+02 -0.88718938562E+01  0.34832475190E+02  0.51100000000E-03 0. -1.
        -11    1    3    3    0    0 -0.17517350985E+01  0.43796724707E+00 -0.38903894449E+01  0.42890000535E+01  0.51100000000E-03 0.  1.
         12    1    3    3    0    0  0.59486575765E+01  0.36390225115E+01 -0.51445855503E+01  0.86657816893E+01  0.00000000000E+00 0. -1.
</event>
<event>
 7    1  0.2740409E-010  0.4778727E+02  0.7816164E-02  0.1312668E+00
        -11   -1    0    0    0    0  0.00000000000E+00  0.00000000000E+00  0.45593999997E+02  0.45594000000E+02  0.51100000000E-03 0.  1.
         11   -1    0    0    0    0 -0.00000000000E+00 -0.00000000000E+00 -0.45593999997E+02  0.45594000000E+02  0.51100000000E-03 0. -1.
    9900012    2    1    2    0    0 -0.42227094854E+02  0.98696954029E+01 -0.17563652643E+01  0.47787271365E+02  0.20000001460E+02 0.  0.
        -12    1    1    2    0    0  0.42227094854E+02 -0.98696954029E+01  0.17563652643E+01  0.43400728635E+02  0.00000000000E+00 0.  1.
         11    1    3    3    0    0 -0.10173007410E+02  0.18774201741E+01 -0.21663940276E+01  0.10569202884E+02  0.51100000000E-03 0.  1.
        -11    1    3    3    0    0 -0.15470775291E+02  0.18688001625E+01 -0.81400655189E+01  0.17581182243E+02  0.51100000000E-03 0. -1.
        -12    1    3    3    0    0 -0.16583312153E+02  0.61234750663E+01  0.85500942823E+01  0.19636886237E+02  0.00000000000E+00 0.  1.
</event>
<event>
 7    1  0.2740409E-010  0.4778727E+02  0.7816164E-02  0.1312668E+00
        -11   -1    0    0    0    0  0.00000000000E+00  0.00000000000E+00  0.45593999997E+02  0.45594000000E+02  0.51100000000E-03 0. -1.
         11   -1    0    0    0    0 -0.00000000000E+00 -0.00000000000E+00 -0.45593999997E+02  0.45594000000E+02  0.51100000000E-03 0.  1.
    9900012    2    1    2    0    0  0.41777803093E+02  0.55621002590E+01  0.10358661891E+02  0.47787266519E+02  0.19999979367E+02 0.  0.
        -12    1    1    2    0    0 -0.41777803093E+02 -0.55621002590E+01 -0.10358661891E+02  0.43400733481E+02  0.00000000000E+00 0.  1.
         11    1    3    3    0    0  0.22951700353E+02  0.89487887043E+01  0.13750407467E+01  0.24672902255E+02  0.51100000000E-03 0. -1.
        -11    1    3    3    0    0  0.34780551890E+01  0.27228912226E+01  0.23982686585E+00  0.44236321834E+01  0.51100000000E-03 0.  1.
         12    1    3    3    0    0  0.15348047551E+02 -0.61095796680E+01  0.87437942779E+01  0.18690732081E+02  0.00000000000E+00 0. -1.
</event>
<event>
 7    1  0.2740409E-010  0.4778727E+02  0.7816164E-02  0.1312668E+00
        -11   -1    0    0    0    0  0.00000000000E+00  0.00000000000E+00  0.45593999997E+02  0.45594000000E+02  0.51100000000E-03 0. -1.
         11   -1    0    0    0    0 -0.00000000000E+00 -0.00000000000E+00 -0.45593999997E+02  0.45594000000E+02  0.51100000000E-03 0.  1.
    9900012    2    1    2    0    0 -0.54539335064E+01 -0.12680760802E+02  0.41147004909E+02  0.47787273068E+02  0.20000009228E+02 0.  0.
        -12    1    1    2    0    0  0.54539335064E+01  0.12680760802E+02 -0.41147004909E+02  0.43400726932E+02  0.00000000000E+00 0.  1.
         11    1    3    3    0    0 -0.98033081393E+01 -0.10925270183E+02  0.27875883940E+02  0.31504464521E+02  0.51100000000E-03 0. -1.
        -11    1    3    3    0    0  0.50427073229E+01 -0.23685561814E+01  0.37475986082E+01  0.67144211305E+01  0.51100000000E-03 0.  1.
        -12    1    3    3    0    0 -0.69333269001E+00  0.61306556231E+00  0.95235223610E+01  0.95683874170E+01  0.00000000000E+00 0.  1.
</event>
<event>
 7    1  0.2740409E-010  0.4778727E+02  0.7816164E-02  0.1312668E+00
        -11   -1    0    0    0    0  0.00000000000E+00  0.00000000000E+00  0.45593999997E+02  0.45594000000E+02  0.51100000000E-03 0.  1.
         11   -1    0    0    0    0 -0.00000000000E+00 -0.00000000000E+00 -0.45593999997E+02  0.45594000000E+02  0.51100000000E-03 0. -1.
    9900012    2    1    2    0    0  0.18448194427E+01  0.33412692339E+01 -0.43232580091E+02  0.47787269359E+02  0.19999992314E+02 0.  0.
        -12    1    1    2    0    0 -0.18448194427E+01 -0.33412692339E+01  0.43232580091E+02  0.43400730641E+02  0.00000000000E+00 0.  1.
         11    1    3    3    0    0  0.16844544854E+01  0.75000433783E+01 -0.74649263147E+01  0.10715090421E+02  0.51100000000E-03 0. -1.
        -11    1    3    3    0    0  0.10222723045E+01 -0.66178343609E+01 -0.20015220349E+02  0.21105682130E+02  0.51100000000E-03 0.  1.
         12    1    3    3    0    0 -0.86190734716E+00  0.24590602164E+01 -0.15752433427E+02  0.15966496808E+02  0.00000000000E+00 0. -1.
</event>
<event>
 7    1  0.2740409E-010  0.4778727E+02  0.7816164E-02  0.1312668E+00
        -11   -1    0    0    0    0  0.00000000000E+00  0.00000000000E+00  0.45593999997E+02  0.45594000000E+02  0.51100000000E-03 0.  1.
         11   -1    0    0    0    0 -0.00000000000E+00 -0.00000000000E+00 -0.45593999997E+02  0.45594000000E+02  0.51100000000E-03 0. -1.
    9900012    2    1    2    0    0 -0.33506853021E+02  0.60067506964E+01 -0.26922731437E+02  0.47787265890E+02  0.19999976498E+02 0.  0.
        -12    1    1    2    0    0  0.33506853021E+02 -0.60067506964E+01  0.26922731437E+02  0.43400734110E+02  0.00000000000E+00 0.  1.
         11    1    3    3    0    0 -0.58551796148E+01  0.40589308573E+01 -0.30840438303E+01  0.77633352777E+01  0.51100000000E-03 0. -1.
        -11    1    3    3    0    0 -0.36814281164E+01  0.12959348159E+00  0.24323483858E+01  0.44142979484E+01  0.51100000000E-03 0.  1.
        -12    1    3    3    0    0 -0.23970245290E+02  0.18182263575E+01 -0.26271035992E+02  0.35609632664E+02  0.00000000000E+00 0.  1.
</event>
<event>
 7    1  0.2740409E-010  0.4778723E+02  0.7816164E-02  0.1312668E+00
        -11   -1    0    0    0    0  0.00000000000E+00  0.00000000000E+00  0.45593999997E+02  0.45594000000E+02  0.51100000000E-03 0.  1.
         11   -1    0    0    0    0 -0.00000000000E+00 -0.00000000000E+00 -0.45593999997E+02  0.45594000000E+02  0.51100000000E-03 0. -1.
    9900012    2    1    2    0    0 -0.91032897888E+01 -0.98295219540E+01 -0.41281197825E+02  0.47787231796E+02  0.19999821051E+02 0.  0.
        -12    1    1    2    0    0  0.91032897888E+01  0.98295219540E+01  0.41281197825E+02  0.43400768204E+02  0.00000000000E+00 0.  1.
         11    1    3    3    0    0 -0.30448738069E+01 -0.38178349798E+01 -0.69118310837E+01  0.84628913276E+01  0.51100000000E-03 0. -1.
        -11    1    3    3    0    0 -0.10050947771E+02  0.98769261509E+00 -0.25021238023E+02  0.26982576605E+02  0.51100000000E-03 0.  1.
        -12    1    3    3    0    0  0.39925317892E+01 -0.69993795893E+01 -0.93481287185E+01  0.12341763863E+02  0.00000000000E+00 0.  1.
</event>
<event>
 7    1  0.2740409E-010  0.4778725E+02  0.7816164E-02  0.1312668E+00
        -11   -1    0    0    0    0  0.00000000000E+00  0.00000000000E+00  0.45593999997E+02  0.45594000000E+02  0.51100000000E-03 0. -1.
         11   -1    0    0    0    0 -0.00000000000E+00 -0.00000000000E+00 -0.45593999997E+02  0.45594000000E+02  0.51100000000E-03 0.  1.
    9900012    2    1    2    0    0  0.31149674134E+01  0.11761179922E+02  0.41660496939E+02  0.47787246777E+02  0.19999889354E+02 0.  0.
        -12    1    1    2    0    0 -0.31149674134E+01 -0.11761179922E+02 -0.41660496939E+02  0.43400753223E+02  0.00000000000E+00 0.  1.
         11    1    3    3    0    0  0.25429901657E+01  0.55755604042E+00  0.42098061190E+01  0.49497611601E+01  0.51100000000E-03 0. -1.
        -11    1    3    3    0    0  0.73005559951E+01  0.11361466281E+02  0.29333346158E+02  0.32292820115E+02  0.51100000000E-03 0.  1.
        -12    1    3    3    0    0 -0.67285787474E+01 -0.15784239918E+00  0.81173446619E+01  0.10544665502E+02  0.00000000000E+00 0.  1.
</event>
<event>
 7    1  0.2740409E-010  0.4778727E+02  0.7816164E-02  0.1312668E+00
        -11   -1    0    0    0    0  0.00000000000E+00  0.00000000000E+00  0.45593999997E+02  0.45594000000E+02  0.51100000000E-03 0.  1.
         11   -1    0    0    0    0 -0.00000000000E+00 -0.00000000000E+00 -0.45593999997E+02  0.45594000000E+02  0.51100000000E-03 0. -1.
    9900012    2    1    2    0    0 -0.37973619896E+02 -0.14736446980E+01 -0.20963196841E+02  0.47787273526E+02  0.20000011312E+02 0.  0.
        -12    1    1    2    0    0  0.37973619896E+02  0.14736446980E+01  0.20963196841E+02  0.43400726474E+02  0.00000000000E+00 0.  1.
         11    1    3    3    0    0 -0.26944731881E+02 -0.27138790859E+01 -0.20033880649E+02  0.33685903431E+02  0.51100000000E-03 0. -1.
        -11    1    3    3    0    0 -0.72305218726E+01  0.49448179403E+01 -0.76540300727E+00  0.87930377594E+01  0.51100000000E-03 0.  1.
         12    1    3    3    0    0 -0.37983661425E+01 -0.37045835524E+01 -0.16391318456E+00  0.53083323352E+01  0.00000000000E+00 0. -1.
</event>
<event>
 7    1  0.2740409E-010  0.4778726E+02  0.7816164E-02  0.1312668E+00
        -11   -1    0    0    0    0  0.00000000000E+00  0.00000000000E+00  0.45593999997E+02  0.45594000000E+02  0.51100000000E-03 0.  1.
         11   -1    0    0    0    0 -0.00000000000E+00 -0.00000000000E+00 -0.45593999997E+02  0.45594000000E+02  0.51100000000E-03 0. -1.
    9900012    2    1    2    0    0  0.38585316305E+01 -0.21419868203E+02 -0.37548965596E+02  0.47787264551E+02  0.19999970392E+02 0.  0.
        -12    1    1    2    0    0 -0.38585316305E+01  0.21419868203E+02  0.37548965596E+02  0.43400735449E+02  0.00000000000E+00 0.  1.
         11    1    3    3    0    0  0.22615104428E+00 -0.51267597369E+01  0.10383088357E+01  0.52357325365E+01  0.51100000000E-03 0.  1.
        -11    1    3    3    0    0  0.51582888107E+01 -0.13999268016E+02 -0.29535396365E+02  0.33089682488E+02  0.51100000000E-03 0. -1.
         12    1    3    3    0    0 -0.15259082245E+01 -0.22938404506E+01 -0.90518780669E+01  0.94618495264E+01  0.00000000000E+00 0. -1.
</event>
<event>
 7    1  0.2740409E-010  0.4778727E+02  0.7816164E-02  0.1312668E+00
        -11   -1    0    0    0    0  0.00000000000E+00  0.00000000000E+00  0.45593999997E+02  0.45594000000E+02  0.51100000000E-03 0. -1.
         11   -1    0    0    0    0 -0.00000000000E+00 -0.00000000000E+00 -0.45593999997E+02  0.45594000000E+02  0.51100000000E-03 0.  1.
    9900012    2    1    2    0    0 -0.20241969352E+02  0.17832628186E+02 -0.33998285015E+02  0.47787270338E+02  0.19999996780E+02 0.  0.
        -12    1    1    2    0    0  0.20241969352E+02 -0.17832628186E+02  0.33998285015E+02  0.43400729662E+02  0.00000000000E+00 0.  1.
         11    1    3    3    0    0 -0.62462537027E+01  0.10319344436E+01 -0.11454679027E+02  0.13087789954E+02  0.51100000000E-03 0. -1.
        -11    1    3    3    0    0 -0.11999098110E+02  0.87708579844E+01 -0.56725877380E+01  0.15908631530E+02  0.51100000000E-03 0.  1.
        -12    1    3    3    0    0 -0.19966175392E+01  0.80298357575E+01 -0.16871018250E+02  0.18790848855E+02  0.00000000000E+00 0.  1.
</event>
<event>
 7    1  0.2740409E-010  0.4778727E+02  0.7816164E-02  0.1312668E+00
        -11   -1    0    0    0    0  0.00000000000E+00  0.00000000000E+00  0.45593999997E+02  0.45594000000E+02  0.51100000000E-03 0. -1.
         11   -1    0    0    0    0 -0.00000000000E+00 -0.00000000000E+00 -0.45593999997E+02  0.45594000000E+02  0.51100000000E-03 0.  1.
    9900012    2    1    2    0    0 -0.61233482162E+01  0.42288818317E+02  0.76015555499E+01  0.47787271955E+02  0.20000004151E+02 0.  0.
        -12    1    1    2    0    0  0.61233482162E+01 -0.42288818317E+02 -0.76015555499E+01  0.43400728045E+02  0.00000000000E+00 0.  1.
         11    1    3    3    0    0 -0.95420660060E+01  0.21087657147E+02  0.90904954653E+00  0.23163908974E+02  0.51100000000E-03 0. -1.
        -11    1    3    3    0    0  0.45245986424E+01  0.17865946920E+02  0.16861168130E+01  0.18506945788E+02  0.51100000000E-03 0.  1.
        -12    1    3    3    0    0 -0.11058808526E+01  0.33352142505E+01  0.50063891903E+01  0.61164171933E+01  0.00000000000E+00 0.  1.
</event>
<event>
 7    1  0.2740409E-010  0.4778729E+02  0.7816164E-02  0.1312668E+00
        -11   -1    0    0    0    0  0.00000000000E+00  0.00000000000E+00  0.45593999997E+02  0.45594000000E+02  0.51100000000E-03 0. -1.
         11   -1    0    0    0    0 -0.00000000000E+00 -0.00000000000E+00 -0.45593999997E+02  0.45594000000E+02  0.51100000000E-03 0.  1.
    9900012    2    1    2    0    0 -0.36560103111E+02 -0.54566189468E+01  0.22742166597E+02  0.47787286050E+02  0.20000068418E+02 0.  0.
        -12    1    1    2    0    0  0.36560103111E+02  0.54566189468E+01 -0.22742166597E+02  0.43400713950E+02  0.00000000000E+00 0.  1.
         11    1    3    3    0    0 -0.22386840980E+02 -0.62948507648E+01  0.84396811036E+01  0.24739119075E+02  0.51100000000E-03 0. -1.
        -11    1    3    3    0    0 -0.13609156517E+02  0.30862314230E+01  0.15134095562E+02  0.20585791563E+02  0.51100000000E-03 0.  1.
        -12    1    3    3    0    0 -0.56410561361E+00 -0.22479996050E+01 -0.83161006875E+00  0.24623754129E+01  0.00000000000E+00 0.  1.
</event>
<event>
 7    1  0.2740409E-010  0.4778727E+02  0.7816164E-02  0.1312668E+00
        -11   -1    0    0    0    0  0.00000000000E+00  0.00000000000E+00  0.45593999997E+02  0.45594000000E+02  0.51100000000E-03 0. -1.
         11   -1    0    0    0    0 -0.00000000000E+00 -0.00000000000E+00 -0.45593999997E+02  0.45594000000E+02  0.51100000000E-03 0.  1.
    9900012    2    1    2    0    0  0.41735811131E+01  0.42311922263E+02  0.87123828456E+01  0.47787272359E+02  0.20000005993E+02 0.  0.
        -12    1    1    2    0    0 -0.41735811131E+01 -0.42311922263E+02 -0.87123828456E+01  0.43400727641E+02  0.00000000000E+00 0.  1.
         11    1    3    3    0    0  0.40830426617E+01  0.17293413370E+01 -0.13168545603E+01  0.46255772646E+01  0.51100000000E-03 0. -1.
        -11    1    3    3    0    0  0.22516703619E+01  0.38087294773E+02  0.11023163257E+02  0.39714256521E+02  0.51100000000E-03 0.  1.
        -12    1    3    3    0    0 -0.21611319104E+01  0.24952861535E+01 -0.99392585113E+00  0.34474385738E+01  0.00000000000E+00 0.  1.
</event>
<event>
 7    1  0.2740409E-010  0.4778727E+02  0.7816164E-02  0.1312668E+00
        -11   -1    0    0    0    0  0.00000000000E+00  0.00000000000E+00  0.45593999997E+02  0.45594000000E+02  0.51100000000E-03 0.  1.
         11   -1    0    0    0    0 -0.00000000000E+00 -0.00000000000E+00 -0.45593999997E+02  0.45594000000E+02  0.51100000000E-03 0. -1.
    9900012    2    1    2    0    0  0.12445757199E+01 -0.29695723618E+02 -0.31626539445E+02  0.47787274577E+02  0.20000016107E+02 0.  0.
        -12    1    1    2    0    0 -0.12445757199E+01  0.29695723618E+02  0.31626539445E+02  0.43400725423E+02  0.00000000000E+00 0.  1.
         11    1    3    3    0    0  0.28407801561E+01 -0.12845497362E+02 -0.45795135679E+01  0.13930139236E+02  0.51100000000E-03 0. -1.
        -11    1    3    3    0    0  0.83427524794E+00 -0.96305962849E+01 -0.23585854237E+02  0.25489937629E+02  0.51100000000E-03 0.  1.
        -12    1    3    3    0    0 -0.24304796842E+01 -0.72196299716E+01 -0.34611716408E+01  0.83671977119E+01  0.00000000000E+00 0.  1.
</event>
<event>
 7    1  0.2740409E-010  0.4778727E+02  0.7816164E-02  0.1312668E+00
        -11   -1    0    0    0    0  0.00000000000E+00  0.00000000000E+00  0.45593999997E+02  0.45594000000E+02  0.51100000000E-03 0. -1.
         11   -1    0    0    0    0 -0.00000000000E+00 -0.00000000000E+00 -0.45593999997E+02  0.45594000000E+02  0.51100000000E-03 0.  1.
    9900012    2    1    2    0    0  0.34280169250E+02  0.63606953204E+01  0.25846369193E+02  0.47787271329E+02  0.20000001296E+02 0.  0.
        -12    1    1    2    0    0 -0.34280169250E+02 -0.63606953204E+01 -0.25846369193E+02  0.43400728671E+02  0.00000000000E+00 0.  1.
         11    1    3    3    0    0  0.60585616799E+01  0.68228389804E+01  0.11053261774E+02  0.14332895642E+02  0.51100000000E-03 0. -1.
        -11    1    3    3    0    0  0.10172947574E+02 -0.48697404505E+01  0.39936961452E+01  0.11964649746E+02  0.51100000000E-03 0.  1.
         12    1    3    3    0    0  0.18048659996E+02  0.44075967904E+01  0.10799411273E+02  0.21489725940E+02  0.00000000000E+00 0. -1.
</event>
<event>
 7    1  0.2740409E-010  0.4778727E+02  0.7816164E-02  0.1312668E+00
        -11   -1    0    0    0    0  0.00000000000E+00  0.00000000000E+00  0.45593999997E+02  0.45594000000E+02  0.51100000000E-03 0.  1.
         11   -1    0    0    0    0 -0.00000000000E+00 -0.00000000000E+00 -0.45593999997E+02  0.45594000000E+02  0.51100000000E-03 0. -1.
    9900012    2    1    2    0    0 -0.12138619410E+02  0.36299847347E+02 -0.20459676060E+02  0.47787270246E+02  0.19999996362E+02 0.  0.
        -12    1    1    2    0    0  0.12138619410E+02 -0.36299847347E+02  0.20459676060E+02  0.43400729754E+02  0.00000000000E+00 0.  1.
         11    1    3    3    0    0 -0.40576813013E+01  0.17558179226E+02 -0.10295657921E+02  0.20754638218E+02  0.51100000000E-03 0. -1.
        -11    1    3    3    0    0  0.33691705591E+01  0.18179389771E+01 -0.43365920688E+01  0.57846558595E+01  0.51100000000E-03 0.  1.
        -12    1    3    3    0    0 -0.11450108668E+02  0.16923729144E+02 -0.58274260709E+01  0.21247976169E+02  0.00000000000E+00 0.  1.
</event>
<event>
 7    1  0.2740409E-010  0.4778727E+02  0.7816164E-02  0.1312668E+00
        -11   -1    0    0    0    0  0.00000000000E+00  0.00000000000E+00  0.45593999997E+02  0.45594000000E+02  0.51100000000E-03 0.  1.
         11   -1    0    0    0    0 -0.00000000000E+00 -0.00000000000E+00 -0.45593999997E+02  0.45594000000E+02  0.51100000000E-03 0. -1.
    9900012    2    1    2    0    0  0.11429429583E+02  0.21644069908E+02 -0.35840284009E+02  0.47787267510E+02  0.19999983886E+02 0.  0.
        -12    1    1    2    0    0 -0.11429429583E+02 -0.21644069908E+02  0.35840284009E+02  0.43400732490E+02  0.00000000000E+00 0.  1.
         11    1    3    3    0    0  0.30568591604E+01  0.22284005487E+02 -0.27787408143E+02  0.35749983776E+02  0.51100000000E-03 0. -1.
        -11    1    3    3    0    0  0.68709204225E+01 -0.14737896223E+01 -0.73857302425E+01  0.10194636569E+02  0.51100000000E-03 0.  1.
         12    1    3    3    0    0  0.15016500006E+01  0.83385404338E+00 -0.66714562418E+00  0.18426471648E+01  0.00000000000E+00 0. -1.
</event>
<event>
 7    1  0.2740409E-010  0.4778724E+02  0.7816164E-02  0.1312668E+00
        -11   -1    0    0    0    0  0.00000000000E+00  0.00000000000E+00  0.45593999997E+02  0.45594000000E+02  0.51100000000E-03 0.  1.
         11   -1    0    0    0    0 -0.00000000000E+00 -0.00000000000E+00 -0.45593999997E+02  0.45594000000E+02  0.51100000000E-03 0. -1.
    9900012    2    1    2    0    0 -0.27775039754E+02  0.12463769427E+02 -0.30932627322E+02  0.47787241773E+02  0.19999866539E+02 0.  0.
        -12    1    1    2    0    0  0.27775039754E+02 -0.12463769427E+02  0.30932627322E+02  0.43400758227E+02  0.00000000000E+00 0.  1.
         11    1    3    3    0    0 -0.92322788953E-01 -0.17186769544E+01  0.99448518940E+00  0.19878065862E+01  0.51100000000E-03 0.  1.
        -11    1    3    3    0    0 -0.78731549311E+01 -0.88887167191E+00 -0.69949377810E+01  0.10569097229E+02  0.51100000000E-03 0. -1.
         12    1    3    3    0    0 -0.19809562034E+02  0.15071318053E+02 -0.24932174731E+02  0.35230337958E+02  0.00000000000E+00 0. -1.
</event>
<event>
 7    1  0.2740409E-010  0.4778727E+02  0.7816164E-02  0.1312668E+00
        -11   -1    0    0    0    0  0.00000000000E+00  0.00000000000E+00  0.45593999997E+02  0.45594000000E+02  0.51100000000E-03 0. -1.
         11   -1    0    0    0    0 -0.00000000000E+00 -0.00000000000E+00 -0.45593999997E+02  0.45594000000E+02  0.51100000000E-03 0.  1.
    9900012    2    1    2    0    0  0.16500459802E+00 -0.41911309556E+02 -0.11271121734E+02  0.47787270970E+02  0.19999999660E+02 0.  0.
        -12    1    1    2    0    0 -0.16500459802E+00  0.41911309556E+02  0.11271121734E+02  0.43400729030E+02  0.00000000000E+00 0.  1.
         11    1    3    3    0    0  0.59825506047E+01 -0.31618206087E+02 -0.91309375253E+01  0.33449602214E+02  0.51100000000E-03 0. -1.
        -11    1    3    3    0    0 -0.44761036439E+01 -0.28859616608E+01 -0.39073085093E+01  0.66054022275E+01  0.51100000000E-03 0.  1.
         12    1    3    3    0    0 -0.13414423628E+01 -0.74071418080E+01  0.17671243010E+01  0.77322665288E+01  0.00000000000E+00 0. -1.
</event>
<event>
 7    1  0.2740409E-010  0.4778727E+02  0.7816164E-02  0.1312668E+00
        -11   -1    0    0    0    0  0.00000000000E+00  0.00000000000E+00  0.45593999997E+02  0.45594000000E+02  0.51100000000E-03 0.  1.
         11   -1    0    0    0    0 -0.00000000000E+00 -0.00000000000E+00 -0.45593999997E+02  0.45594000000E+02  0.51100000000E-03 0. -1.
    9900012    2    1    2    0    0  0.16592327711E+02 -0.39879692524E+01 -0.39905063138E+02  0.47787270724E+02  0.19999998540E+02 0.  0.
        -12    1    1    2    0    0 -0.16592327711E+02  0.39879692524E+01  0.39905063138E+02  0.43400729276E+02  0.00000000000E+00 0.  1.
         11    1    3    3    0    0  0.11663335961E+02  0.51763731320E+01 -0.17931437139E+02  0.22008286682E+02  0.51100000000E-03 0. -1.
        -11    1    3    3    0    0  0.43452573679E+01 -0.79386601262E-01 -0.63067343933E+01  0.76591424321E+01  0.51100000000E-03 0.  1.
         12    1    3    3    0    0  0.58373438217E+00 -0.90849557831E+01 -0.15666891605E+02  0.18119841610E+02  0.00000000000E+00 0. -1.
</event>
<event>
 7    1  0.2740409E-010  0.4778727E+02  0.7816164E-02  0.1312668E+00
        -11   -1    0    0    0    0  0.00000000000E+00  0.00000000000E+00  0.45593999997E+02  0.45594000000E+02  0.51100000000E-03 0. -1.
         11   -1    0    0    0    0 -0.00000000000E+00 -0.00000000000E+00 -0.45593999997E+02  0.45594000000E+02  0.51100000000E-03 0.  1.
    9900012    2    1    2    0    0 -0.32010969714E+02  0.28756920521E+02 -0.56533855537E+01  0.47787269268E+02  0.19999991900E+02 0.  0.
        -12    1    1    2    0    0  0.32010969714E+02 -0.28756920521E+02  0.56533855537E+01  0.43400730732E+02  0.00000000000E+00 0.  1.
         11    1    3    3    0    0 -0.86395294591E+01  0.73432606846E+01  0.22023129132E+01  0.11550546705E+02  0.51100000000E-03 0. -1.
        -11    1    3    3    0    0 -0.65846487462E+01  0.11552728684E+02 -0.10017130545E+02  0.16648304532E+02  0.51100000000E-03 0.  1.
        -12    1    3    3    0    0 -0.16786791508E+02  0.98609311521E+01  0.21614320784E+01  0.19588418031E+02  0.00000000000E+00 0.  1.
</event>
<event>
 7    1  0.2740409E-010  0.4778726E+02  0.7816164E-02  0.1312668E+00
        -11   -1    0    0    0    0  0.00000000000E+00  0.00000000000E+00  0.45593999997E+02  0.45594000000E+02  0.51100000000E-03 0.  1.
         11   -1    0    0    0    0 -0.00000000000E+00 -0.00000000000E+00 -0.45593999997E+02  0.45594000000E+02  0.51100000000E-03 0. -1.
    9900012    2    1    2    0    0  0.62550538124E+01 -0.25543737459E+02 -0.34525580009E+02  0.47787263871E+02  0.19999967293E+02 0.  0.
        -12    1    1    2    0    0 -0.62550538124E+01  0.25543737459E+02  0.34525580009E+02  0.43400736129E+02  0.00000000000E+00 0.  1.
         11    1    3    3    0    0 -0.61162954198E+00 -0.14222727396E+02 -0.25394558214E+02  0.29112602983E+02  0.51100000000E-03 0. -1.
        -11    1    3    3    0    0  0.74106995838E+01 -0.30831670886E+01 -0.42117527108E+01  0.90643945620E+01  0.51100000000E-03 0.  1.
         12    1    3    3    0    0 -0.54401622946E+00 -0.82378429751E+01 -0.49192690841E+01  0.96102663263E+01  0.00000000000E+00 0. -1.
</event>
<event>
 7    1  0.2740409E-010  0.4778727E+02  0.7816164E-02  0.1312668E+00
        -11   -1    0    0    0    0  0.00000000000E+00  0.00000000000E+00  0.45593999997E+02  0.45594000000E+02  0.51100000000E-03 0.  1.
         11   -1    0    0    0    0 -0.00000000000E+00 -0.00000000000E+00 -0.45593999997E+02  0.45594000000E+02  0.51100000000E-03 0. -1.
    9900012    2    1    2    0    0  0.58703897332E+01  0.11386914543E+02 -0.41466852168E+02  0.47787272735E+02  0.20000007707E+02 0.  0.
        -12    1    1    2    0    0 -0.58703897332E+01 -0.11386914543E+02  0.41466852168E+02  0.43400727265E+02  0.00000000000E+00 0.  1.
         11    1    3    3    0    0 -0.28899585249E+00  0.13063514014E+02 -0.21066000430E+02  0.24789418940E+02  0.51100000000E-03 0. -1.
        -11    1    3    3    0    0  0.27863438210E+01  0.26532325333E+01 -0.34053557368E+01  0.51380738337E+01  0.51100000000E-03 0.  1.
         12    1    3    3    0    0  0.33730417646E+01 -0.43298320047E+01 -0.16995496002E+02  0.17859779962E+02  0.00000000000E+00 0. -1.
</event>
<event>
 7    1  0.2740409E-010  0.4778727E+02  0.7816164E-02  0.1312668E+00
        -11   -1    0    0    0    0  0.00000000000E+00  0.00000000000E+00  0.45593999997E+02  0.45594000000E+02  0.51100000000E-03 0.  1.
         11   -1    0    0    0    0 -0.00000000000E+00 -0.00000000000E+00 -0.45593999997E+02  0.45594000000E+02  0.51100000000E-03 0. -1.
    9900012    2    1    2    0    0 -0.23005081526E+02 -0.87670956692E+01 -0.35742517339E+02  0.47787270880E+02  0.19999999249E+02 0.  0.
        -12    1    1    2    0    0  0.23005081526E+02  0.87670956692E+01  0.35742517339E+02  0.43400729120E+02  0.00000000000E+00 0.  1.
         11    1    3    3    0    0 -0.19402002615E+02 -0.86725965642E+01 -0.15388492823E+02  0.26238470768E+02  0.51100000000E-03 0. -1.
        -11    1    3    3    0    0 -0.51531316940E+01 -0.40036288732E-01 -0.18051045929E+02  0.18772230250E+02  0.51100000000E-03 0.  1.
         12    1    3    3    0    0  0.15500527828E+01 -0.54462816316E-01 -0.23029785866E+01  0.27765698619E+01  0.00000000000E+00 0. -1.
</event>
<event>
 7    1  0.2740409E-010  0.4778728E+02  0.7816164E-02  0.1312668E+00
        -11   -1    0    0    0    0  0.00000000000E+00  0.00000000000E+00  0.45593999997E+02  0.45594000000E+02  0.51100000000E-03 0.  1.
         11   -1    0    0    0    0 -0.00000000000E+00 -0.00000000000E+00 -0.45593999997E+02  0.45594000000E+02  0.51100000000E-03 0. -1.
    9900012    2    1    2    0    0  0.61521115020E+01  0.15766675976E+02 -0.39964813017E+02  0.47787276195E+02  0.20000023485E+02 0.  0.
        -12    1    1    2    0    0 -0.61521115020E+01 -0.15766675976E+02  0.39964813017E+02  0.43400723805E+02  0.00000000000E+00 0.  1.
         11    1    3    3    0    0  0.33472260503E+01 -0.24325342094E+00 -0.93608514195E+01  0.99442764452E+01  0.51100000000E-03 0. -1.
        -11    1    3    3    0    0  0.17415884424E+01  0.57065317180E+00  0.13916442392E+01  0.23011843244E+01  0.51100000000E-03 0.  1.
        -12    1    3    3    0    0  0.10632970093E+01  0.15439276226E+02 -0.31995605837E+02  0.35541815426E+02  0.00000000000E+00 0.  1.
</event>
<event>
 7    1  0.2740409E-010  0.4778728E+02  0.7816164E-02  0.1312668E+00
        -11   -1    0    0    0    0  0.00000000000E+00  0.00000000000E+00  0.45593999997E+02  0.45594000000E+02  0.51100000000E-03 0.  1.
         11   -1    0    0    0    0 -0.00000000000E+00 -0.00000000000E+00 -0.45593999997E+02  0.45594000000E+02  0.51100000000E-03 0. -1.
    9900012    2    1    2    0    0  0.34815299032E+02 -0.24652381480E+02 -0.79860999359E+01  0.47787277062E+02  0.20000027438E+02 0.  0.
        -12    1    1    2    0    0 -0.34815299032E+02  0.24652381480E+02  0.79860999359E+01  0.43400722938E+02  0.00000000000E+00 0.  1.
         11    1    3    3    0    0  0.17067122351E+01 -0.67173997013E+01  0.30208035922E+01  0.75605277596E+01  0.51100000000E-03 0. -1.
        -11    1    3    3    0    0  0.69456596579E+01 -0.28171087272E+01 -0.59936811345E+01  0.95970049217E+01  0.51100000000E-03 0.  1.
         12    1    3    3    0    0  0.26162927139E+02 -0.15117873052E+02 -0.50132223935E+01  0.30629744381E+02  0.00000000000E+00 0. -1.
</event>
<event>
 7    1  0.2740409E-010  0.4778727E+02  0.7816164E-02  0.1312668E+00
        -11   -1    0    0    0    0  0.00000000000E+00  0.00000000000E+00  0.45593999997E+02  0.45594000000E+02  0.51100000000E-03 0.  1.
         11   -1    0    0    0    0 -0.00000000000E+00 -0.00000000000E+00 -0.45593999997E+02  0.45594000000E+02  0.51100000000E-03 0. -1.
    9900012    2    1    2    0    0 -0.23989491377E+02  0.23819726529E+02 -0.27216690208E+02  0.47787270809E+02  0.19999998926E+02 0.  0.
        -12    1    1    2    0    0  0.23989491377E+02 -0.23819726529E+02  0.27216690208E+02  0.43400729191E+02  0.00000000000E+00 0.  1.
         11    1    3    3    0    0  0.21728068526E+01 -0.81733234461E-01 -0.44528589866E+01  0.49553731803E+01  0.51100000000E-03 0. -1.
        -11    1    3    3    0    0 -0.15250838971E+02  0.98594739593E+01 -0.85804899263E+01  0.20085370888E+02  0.51100000000E-03 0.  1.
         12    1    3    3    0    0 -0.10911459259E+02  0.14041985804E+02 -0.14183341296E+02  0.22746526741E+02  0.00000000000E+00 0. -1.
</event>
<event>
 7    1  0.2740409E-010  0.4778727E+02  0.7816164E-02  0.1312668E+00
        -11   -1    0    0    0    0  0.00000000000E+00  0.00000000000E+00  0.45593999997E+02  0.45594000000E+02  0.51100000000E-03 0.  1.
         11   -1    0    0    0    0 -0.00000000000E+00 -0.00000000000E+00 -0.45593999997E+02  0.45594000000E+02  0.51100000000E-03 0. -1.
    9900012    2    1    2    0    0  0.13283613101E+02  0.11154632393E+02 -0.39783703479E+02  0.47787271165E+02  0.20000000550E+02 0.  0.
        -12    1    1    2    0    0 -0.13283613101E+02 -0.11154632393E+02  0.39783703479E+02  0.43400728835E+02  0.00000000000E+00 0.  1.
         11    1    3    3    0    0  0.26044473032E+01  0.11374706695E+02 -0.20146045708E+02  0.23281543249E+02  0.51100000000E-03 0. -1.
        -11    1    3    3    0    0 -0.54672720356E+00 -0.18881798024E+01 -0.80482262165E+01  0.82848101424E+01  0.51100000000E-03 0.  1.
         12    1    3    3    0    0  0.11225893002E+02  0.16681055011E+01 -0.11589431555E+02  0.16220917774E+02  0.00000000000E+00 0. -1.
</event>
<event>
 7    1  0.2740409E-010  0.4778727E+02  0.7816164E-02  0.1312668E+00
        -11   -1    0    0    0    0  0.00000000000E+00  0.00000000000E+00  0.45593999997E+02  0.45594000000E+02  0.51100000000E-03 0.  1.
         11   -1    0    0    0    0 -0.00000000000E+00 -0.00000000000E+00 -0.45593999997E+02  0.45594000000E+02  0.51100000000E-03 0. -1.
    9900012    2    1    2    0    0  0.18904364668E+02 -0.26659107179E+01 -0.38976162444E+02  0.47787270486E+02  0.19999997454E+02 0.  0.
        -12    1    1    2    0    0 -0.18904364668E+02  0.26659107179E+01  0.38976162444E+02  0.43400729514E+02  0.00000000000E+00 0.  1.
         11    1    3    3    0    0 -0.33138595346E+01 -0.61319684710E+00 -0.27855660996E+01  0.43723053581E+01  0.51100000000E-03 0. -1.
        -11    1    3    3    0    0  0.19475041171E+02 -0.36359854364E+01 -0.25658418539E+02  0.32416848411E+02  0.51100000000E-03 0.  1.
         12    1    3    3    0    0  0.27431830319E+01  0.15832715657E+01 -0.10532177806E+02  0.10998116717E+02  0.00000000000E+00 0. -1.
</event>
<event>
 7    1  0.2740409E-010  0.4778729E+02  0.7816164E-02  0.1312668E+00
        -11   -1    0    0    0    0  0.00000000000E+00  0.00000000000E+00  0.45593999997E+02  0.45594000000E+02  0.51100000000E-03 0. -1.
         11   -1    0    0    0    0 -0.00000000000E+00 -0.00000000000E+00 -0.45593999997E+02  0.45594000000E+02  0.51100000000E-03 0.  1.
    9900012    2    1    2    0    0  0.26774386669E+02 -0.30117664000E+01  0.34024739762E+02  0.47787292238E+02  0.20000096630E+02 0.  0.
        -12    1    1    2    0    0 -0.26774386669E+02  0.30117664000E+01 -0.34024739762E+02  0.43400707762E+02  0.00000000000E+00 0.  1.
         11    1    3    3    0    0  0.19849501073E+02 -0.12712092205E+01  0.11519501803E+02  0.22985160164E+02  0.51100000000E-03 0. -1.
        -11    1    3    3    0    0  0.79914509439E+01 -0.31826434081E+01  0.17888360446E+02  0.19849079247E+02  0.51100000000E-03 0.  1.
         12    1    3    3    0    0 -0.10665653478E+01  0.14420862286E+01  0.46168775134E+01  0.49530528269E+01  0.00000000000E+00 0. -1.
</event>
<event>
 7    1  0.2740409E-010  0.4778727E+02  0.7816164E-02  0.1312668E+00
        -11   -1    0    0    0    0  0.00000000000E+00  0.00000000000E+00  0.45593999997E+02  0.45594000000E+02  0.51100000000E-03 0.  1.
         11   -1    0    0    0    0 -0.00000000000E+00 -0.00000000000E+00 -0.45593999997E+02  0.45594000000E+02  0.51100000000E-03 0. -1.
    9900012    2    1    2    0    0 -0.29509908935E+02 -0.16106102865E+02 -0.27447799755E+02  0.47787274358E+02  0.20000015107E+02 0.  0.
        -12    1    1    2    0    0  0.29509908935E+02  0.16106102865E+02  0.27447799755E+02  0.43400725642E+02  0.00000000000E+00 0.  1.
         11    1    3    3    0    0 -0.50676870396E+01 -0.12726902400E+02 -0.14261803320E+02  0.19775098757E+02  0.51100000000E-03 0. -1.
        -11    1    3    3    0    0 -0.43152335323E+01 -0.54192544982E+00 -0.17339446677E+01  0.46820388725E+01  0.51100000000E-03 0.  1.
         12    1    3    3    0    0 -0.20126988363E+02 -0.28372750150E+01 -0.11452051767E+02  0.23330136729E+02  0.00000000000E+00 0. -1.
</event>
<event>
 7    1  0.2740409E-010  0.4778726E+02  0.7816164E-02  0.1312668E+00
        -11   -1    0    0    0    0  0.00000000000E+00  0.00000000000E+00  0.45593999997E+02  0.45594000000E+02  0.51100000000E-03 0. -1.
         11   -1    0    0    0    0 -0.00000000000E+00 -0.00000000000E+00 -0.45593999997E+02  0.45594000000E+02  0.51100000000E-03 0.  1.
    9900012    2    1    2    0    0  0.30687189632E+02  0.41194011141E+01  0.30413004674E+02  0.47787263528E+02  0.19999965727E+02 0.  0.
        -12    1    1    2    0    0 -0.30687189632E+02 -0.41194011141E+01 -0.30413004674E+02  0.43400736472E+02  0.00000000000E+00 0.  1.
         11    1    3    3    0    0  0.72797578432E+01 -0.33518100091E+00  0.47551131563E+01  0.87016275460E+01  0.51100000000E-03 0. -1.
        -11    1    3    3    0    0  0.17462383001E+02  0.10320955824E+02  0.13615216808E+02  0.24430126446E+02  0.51100000000E-03 0.  1.
        -12    1    3    3    0    0  0.59450487883E+01 -0.58663737089E+01  0.12042674709E+02  0.14655509535E+02  0.00000000000E+00 0.  1.
</event>
<event>
 7    1  0.2740409E-010  0.4778728E+02  0.7816164E-02  0.1312668E+00
        -11   -1    0    0    0    0  0.00000000000E+00  0.00000000000E+00  0.45593999997E+02  0.45594000000E+02  0.51100000000E-03 0.  1.
         11   -1    0    0    0    0 -0.00000000000E+00 -0.00000000000E+00 -0.45593999997E+02  0.45594000000E+02  0.51100000000E-03 0. -1.
    9900012    2    1    2    0    0 -0.33363745071E+01 -0.28940451782E+02 -0.32170508543E+02  0.47787276917E+02  0.20000026777E+02 0.  0.
        -12    1    1    2    0    0  0.33363745071E+01  0.28940451782E+02  0.32170508543E+02  0.43400723083E+02  0.00000000000E+00 0.  1.
         11    1    3    3    0    0  0.63525235905E+01 -0.91295708630E+01 -0.16333587673E+02  0.19760812398E+02  0.51100000000E-03 0. -1.
        -11    1    3    3    0    0  0.40408921390E-01 -0.63556919204E+01 -0.29449429629E+01  0.70049369721E+01  0.51100000000E-03 0.  1.
         12    1    3    3    0    0 -0.97293070190E+01 -0.13455188999E+02 -0.12891977906E+02  0.21021527547E+02  0.00000000000E+00 0. -1.
</event>
<event>
 7    1  0.2740409E-010  0.4778727E+02  0.7816164E-02  0.1312668E+00
        -11   -1    0    0    0    0  0.00000000000E+00  0.00000000000E+00  0.45593999997E+02  0.45594000000E+02  0.51100000000E-03 0. -1.
         11   -1    0    0    0    0 -0.00000000000E+00 -0.00000000000E+00 -0.45593999997E+02  0.45594000000E+02  0.51100000000E-03 0.  1.
    9900012    2    1    2    0    0 -0.12541131221E+02 -0.33729584913E+02  0.24262280979E+02  0.47787272483E+02  0.20000006557E+02 0.  0.
        -12    1    1    2    0    0  0.12541131221E+02  0.33729584913E+02 -0.24262280979E+02  0.43400727517E+02  0.00000000000E+00 0.  1.
         11    1    3    3    0    0  0.26871097954E+01  0.40290222851E-01  0.76658795301E+00  0.27946090434E+01  0.51100000000E-03 0. -1.
        -11    1    3    3    0    0 -0.11299158602E+02 -0.16173893163E+02  0.82644299316E+01  0.21390806612E+02  0.51100000000E-03 0.  1.
         12    1    3    3    0    0 -0.39290824139E+01 -0.17595981973E+02  0.15231263095E+02  0.23601856827E+02  0.00000000000E+00 0. -1.
</event>
<event>
 7    1  0.2740409E-010  0.4778727E+02  0.7816164E-02  0.1312668E+00
        -11   -1    0    0    0    0  0.00000000000E+00  0.00000000000E+00  0.45593999997E+02  0.45594000000E+02  0.51100000000E-03 0. -1.
         11   -1    0    0    0    0 -0.00000000000E+00 -0.00000000000E+00 -0.45593999997E+02  0.45594000000E+02  0.51100000000E-03 0.  1.
    9900012    2    1    2    0    0 -0.58989777874E+01 -0.18612702198E+02  0.38760709434E+02  0.47787271690E+02  0.20000002942E+02 0.  0.
        -12    1    1    2    0    0  0.58989777874E+01  0.18612702198E+02 -0.38760709434E+02  0.43400728310E+02  0.00000000000E+00 0.  1.
         11    1    3    3    0    0  0.28055945067E+00 -0.52972649212E+01  0.11380250890E+02  0.12555868740E+02  0.51100000000E-03 0. -1.
        -11    1    3    3    0    0 -0.15609764016E+01 -0.78325901462E+01  0.26884135175E+02  0.28045371100E+02  0.51100000000E-03 0.  1.
        -12    1    3    3    0    0 -0.46185608364E+01 -0.54828471308E+01  0.49632336869E+00  0.71860318497E+01  0.00000000000E+00 0.  1.
</event>
<event>
 7    1  0.2740409E-010  0.4778727E+02  0.7816164E-02  0.1312668E+00
        -11   -1    0    0    0    0  0.00000000000E+00  0.00000000000E+00  0.45593999997E+02  0.45594000000E+02  0.51100000000E-03 0.  1.
         11   -1    0    0    0    0 -0.00000000000E+00 -0.00000000000E+00 -0.45593999997E+02  0.45594000000E+02  0.51100000000E-03 0. -1.
    9900012    2    1    2    0    0 -0.10056358065E+02  0.39134977581E+02 -0.15841301128E+02  0.47787266951E+02  0.19999981334E+02 0.  0.
        -12    1    1    2    0    0  0.10056358065E+02 -0.39134977581E+02  0.15841301128E+02  0.43400733049E+02  0.00000000000E+00 0.  1.
         11    1    3    3    0    0 -0.59195269892E+01  0.45101836660E+00 -0.85290274184E+00  0.59976379260E+01  0.51100000000E-03 0. -1.
        -11    1    3    3    0    0 -0.17943875295E+01  0.24259118146E+02 -0.10568841459E+02  0.26522161485E+02  0.51100000000E-03 0.  1.
         12    1    3    3    0    0 -0.23424435466E+01  0.14424841069E+02 -0.44195569277E+01  0.15267467539E+02  0.00000000000E+00 0. -1.
</event>
<event>
 7    1  0.2740409E-010  0.4778727E+02  0.7816164E-02  0.1312668E+00
        -11   -1    0    0    0    0  0.00000000000E+00  0.00000000000E+00  0.45593999997E+02  0.45594000000E+02  0.51100000000E-03 0.  1.
         11   -1    0    0    0    0 -0.00000000000E+00 -0.00000000000E+00 -0.45593999997E+02  0.45594000000E+02  0.51100000000E-03 0. -1.
    9900012    2    1    2    0    0 -0.24215895590E+02 -0.32337438822E+02 -0.15858875252E+02  0.47787268749E+02  0.19999989535E+02 0.  0.
        -12    1    1    2    0    0  0.24215895590E+02  0.32337438822E+02  0.15858875252E+02  0.43400731251E+02  0.00000000000E+00 0.  1.
         11    1    3    3    0    0 -0.13835155647E+02 -0.18811989871E+02 -0.42086858525E+00  0.23355505247E+02  0.51100000000E-03 0. -1.
        -11    1    3    3    0    0 -0.49493973920E+01 -0.12195340461E+02 -0.12327455011E+02  0.18032997832E+02  0.51100000000E-03 0.  1.
         12    1    3    3    0    0 -0.54313425508E+01 -0.13301084903E+01 -0.31105516564E+01  0.63987656706E+01  0.00000000000E+00 0. -1.
</event>
<event>
 7    1  0.2740409E-010  0.4778725E+02  0.7816164E-02  0.1312668E+00
        -11   -1    0    0    0    0  0.00000000000E+00  0.00000000000E+00  0.45593999997E+02  0.45594000000E+02  0.51100000000E-03 0.  1.
         11   -1    0    0    0    0 -0.00000000000E+00 -0.00000000000E+00 -0.45593999997E+02  0.45594000000E+02  0.51100000000E-03 0. -1.
    9900012    2    1    2    0    0 -0.70735862167E+01 -0.24745773455E+02 -0.34946190325E+02  0.47787249499E+02  0.19999901765E+02 0.  0.
        -12    1    1    2    0    0  0.70735862167E+01  0.24745773455E+02  0.34946190325E+02  0.43400750501E+02  0.00000000000E+00 0.  1.
         11    1    3    3    0    0 -0.50860707907E+01 -0.20410769002E+02 -0.27765310387E+02  0.34833605448E+02  0.51100000000E-03 0. -1.
        -11    1    3    3    0    0 -0.57189637049E+00 -0.11467951247E+01 -0.89507238245E+01  0.90419943464E+01  0.51100000000E-03 0.  1.
         12    1    3    3    0    0 -0.14156190555E+01 -0.31882093276E+01  0.17698438868E+01  0.39116497044E+01  0.00000000000E+00 0. -1.
</event>
<event>
 7    1  0.2740409E-010  0.4778727E+02  0.7816164E-02  0.1312668E+00
        -11   -1    0    0    0    0  0.00000000000E+00  0.00000000000E+00  0.45593999997E+02  0.45594000000E+02  0.51100000000E-03 0. -1.
         11   -1    0    0    0    0 -0.00000000000E+00 -0.00000000000E+00 -0.45593999997E+02  0.45594000000E+02  0.51100000000E-03 0.  1.
    9900012    2    1    2    0    0 -0.24565960056E+02  0.34797210898E+02 -0.83241314959E+01  0.47787269074E+02  0.19999991015E+02 0.  0.
        -12    1    1    2    0    0  0.24565960056E+02 -0.34797210898E+02  0.83241314959E+01  0.43400730926E+02  0.00000000000E+00 0.  1.
         11    1    3    3    0    0 -0.20605244481E+02  0.30770122250E+02 -0.85275532488E+01  0.38001259033E+02  0.51100000000E-03 0. -1.
        -11    1    3    3    0    0  0.13488199906E+01  0.26318108181E+01  0.24637073674E+01  0.38491035063E+01  0.51100000000E-03 0.  1.
         12    1    3    3    0    0 -0.53095355651E+01  0.13952778305E+01 -0.22602856145E+01  0.59369065346E+01  0.00000000000E+00 0. -1.
</event>
<event>
 7    1  0.2740409E-010  0.4778729E+02  0.7816164E-02  0.1312668E+00
        -11   -1    0    0    0    0  0.00000000000E+00  0.00000000000E+00  0.45593999997E+02  0.45594000000E+02  0.51100000000E-03 0.  1.
         11   -1    0    0    0    0 -0.00000000000E+00 -0.00000000000E+00 -0.45593999997E+02  0.45594000000E+02  0.51100000000E-03 0. -1.
    9900012    2    1    2    0    0  0.98025957355E+01 -0.20678634523E+02 -0.36877162169E+02  0.47787286889E+02  0.20000072241E+02 0.  0.
        -12    1    1    2    0    0 -0.98025957355E+01  0.20678634523E+02  0.36877162169E+02  0.43400713111E+02  0.00000000000E+00 0.  1.
         11    1    3    3    0    0  0.11651825122E+02 -0.96832286312E+01 -0.18945229873E+02  0.24258023016E+02  0.51100000000E-03 0. -1.
        -11    1    3    3    0    0 -0.54880768694E+01 -0.35736282114E+01 -0.10706261461E+02  0.12550451827E+02  0.51100000000E-03 0.  1.
        -12    1    3    3    0    0  0.36388474825E+01 -0.74217776807E+01 -0.72256708346E+01  0.10978812047E+02  0.00000000000E+00 0.  1.
</event>
<event>
 7    1  0.2740409E-010  0.4778727E+02  0.7816164E-02  0.1312668E+00
        -11   -1    0    0    0    0  0.00000000000E+00  0.00000000000E+00  0.45593999997E+02  0.45594000000E+02  0.51100000000E-03 0.  1.
         11   -1    0    0    0    0 -0.00000000000E+00 -0.00000000000E+00 -0.45593999997E+02  0.45594000000E+02  0.51100000000E-03 0. -1.
    9900012    2    1    2    0    0  0.28043845029E+02  0.18729394440E+02 -0.27319880210E+02  0.47787270573E+02  0.19999997851E+02 0.  0.
        -12    1    1    2    0    0 -0.28043845029E+02 -0.18729394440E+02  0.27319880210E+02  0.43400729427E+02  0.00000000000E+00 0.  1.
         11    1    3    3    0    0  0.56721614667E+01  0.49108019747E+01 -0.63269783018E+01  0.98142776826E+01  0.51100000000E-03 0. -1.
        -11    1    3    3    0    0  0.93403414609E+01  0.65381216821E+01 -0.19989179860E+02  0.23012090854E+02  0.51100000000E-03 0.  1.
        -12    1    3    3    0    0  0.13031342101E+02  0.72804707828E+01 -0.10037220481E+01  0.14960902036E+02  0.00000000000E+00 0.  1.
</event>
<event>
 7    1  0.2740409E-010  0.4778727E+02  0.7816164E-02  0.1312668E+00
        -11   -1    0    0    0    0  0.00000000000E+00  0.00000000000E+00  0.45593999997E+02  0.45594000000E+02  0.51100000000E-03 0. -1.
         11   -1    0    0    0    0 -0.00000000000E+00 -0.00000000000E+00 -0.45593999997E+02  0.45594000000E+02  0.51100000000E-03 0.  1.
    9900012    2    1    2    0    0  0.24388174270E+02 -0.16958298756E+02  0.31642634650E+02  0.47787271106E+02  0.20000000282E+02 0.  0.
        -12    1    1    2    0    0 -0.24388174270E+02  0.16958298756E+02 -0.31642634650E+02  0.43400728894E+02  0.00000000000E+00 0.  1.
         11    1    3    3    0    0 -0.22910205146E+01  0.92245234935E+00  0.22281914998E+01  0.33263389719E+01  0.51100000000E-03 0. -1.
        -11    1    3    3    0    0  0.43798193324E+01 -0.23097500272E+01  0.85850028919E+00  0.50254139710E+01  0.51100000000E-03 0.  1.
         12    1    3    3    0    0  0.22299375452E+02 -0.15571001078E+02  0.28555942861E+02  0.39435518163E+02  0.00000000000E+00 0. -1.
</event>
<event>
 7    1  0.2740409E-010  0.4778727E+02  0.7816164E-02  0.1312668E+00
        -11   -1    0    0    0    0  0.00000000000E+00  0.00000000000E+00  0.45593999997E+02  0.45594000000E+02  0.51100000000E-03 0.  1.
         11   -1    0    0    0    0 -0.00000000000E+00 -0.00000000000E+00 -0.45593999997E+02  0.45594000000E+02  0.51100000000E-03 0. -1.
    9900012    2    1    2    0    0  0.27968925256E+02 -0.23834797008E+02 -0.23092524768E+02  0.47787273871E+02  0.20000012886E+02 0.  0.
        -12    1    1    2    0    0 -0.27968925256E+02  0.23834797008E+02  0.23092524768E+02  0.43400726129E+02  0.00000000000E+00 0.  1.
         11    1    3    3    0    0  0.34186553181E+01 -0.44580262790E+01 -0.25518148471E+01  0.61703291454E+01  0.51100000000E-03 0. -1.
        -11    1    3    3    0    0  0.10091489711E+02 -0.18956585374E+02 -0.98295716488E+01  0.23618017967E+02  0.51100000000E-03 0.  1.
        -12    1    3    3    0    0  0.14458780226E+02 -0.42018535575E+00 -0.10711138272E+02  0.17998926758E+02  0.00000000000E+00 0.  1.
</event>
<event>
 7    1  0.2740409E-010  0.4778727E+02  0.7816164E-02  0.1312668E+00
        -11   -1    0    0    0    0  0.00000000000E+00  0.00000000000E+00  0.45593999997E+02  0.45594000000E+02  0.51100000000E-03 0.  1.
         11   -1    0    0    0    0 -0.00000000000E+00 -0.00000000000E+00 -0.45593999997E+02  0.45594000000E+02  0.51100000000E-03 0. -1.
    9900012    2    1    2    0    0 -0.15507952869E+02  0.15856691025E+02 -0.37305386781E+02  0.47787272641E+02  0.20000007279E+02 0.  0.
        -12    1    1    2    0    0  0.15507952869E+02 -0.15856691025E+02  0.37305386781E+02  0.43400727359E+02  0.00000000000E+00 0.  1.
         11    1    3    3    0    0 -0.14975383735E+02  0.13219734056E+02 -0.22172519883E+02  0.29843661383E+02  0.51100000000E-03 0. -1.
        -11    1    3    3    0    0  0.39322174491E+01 -0.74352627676E+00 -0.55123555216E+01  0.68118447610E+01  0.51100000000E-03 0.  1.
        -12    1    3    3    0    0 -0.44647865832E+01  0.33804832459E+01 -0.96205113759E+01  0.11131766497E+02  0.00000000000E+00 0.  1.
</event>
<event>
 7    1  0.2740409E-010  0.4778727E+02  0.7816164E-02  0.1312668E+00
        -11   -1    0    0    0    0  0.00000000000E+00  0.00000000000E+00  0.45593999997E+02  0.45594000000E+02  0.51100000000E-03 0.  1.
         11   -1    0    0    0    0 -0.00000000000E+00 -0.00000000000E+00 -0.45593999997E+02  0.45594000000E+02  0.51100000000E-03 0. -1.
    9900012    2    1    2    0    0  0.31562553585E+02  0.27488436595E+02 -0.11481036850E+02  0.47787272559E+02  0.20000006908E+02 0.  0.
        -12    1    1    2    0    0 -0.31562553585E+02 -0.27488436595E+02  0.11481036850E+02  0.43400727441E+02  0.00000000000E+00 0.  1.
         11    1    3    3    0    0  0.12821049536E+02  0.31993245587E+01 -0.10808694045E+02  0.17071697515E+02  0.51100000000E-03 0. -1.
        -11    1    3    3    0    0  0.25449723399E+01  0.38557770339E+01  0.23456664716E+00  0.46258969421E+01  0.51100000000E-03 0.  1.
         12    1    3    3    0    0  0.16196531709E+02  0.20433335002E+02 -0.90690945167E+00  0.26089678102E+02  0.00000000000E+00 0. -1.
</event>
<event>
 7    1  0.2740409E-010  0.4778725E+02  0.7816164E-02  0.1312668E+00
        -11   -1    0    0    0    0  0.00000000000E+00  0.00000000000E+00  0.45593999997E+02  0.45594000000E+02  0.51100000000E-03 0. -1.
         11   -1    0    0    0    0 -0.00000000000E+00 -0.00000000000E+00 -0.45593999997E+02  0.45594000000E+02  0.51100000000E-03 0.  1.
    9900012    2    1    2    0    0 -0.49507425972E+01 -0.59990080076E+01  0.42698091718E+02  0.47787251323E+02  0.19999910081E+02 0.  0.
        -12    1    1    2    0    0  0.49507425972E+01  0.59990080076E+01 -0.42698091718E+02  0.43400748677E+02  0.00000000000E+00 0.  1.
         11    1    3    3    0    0 -0.22921917078E+01 -0.29066127206E+01  0.20567147637E+02  0.20897609971E+02  0.51100000000E-03 0. -1.
        -11    1    3    3    0    0 -0.39056080900E+01 -0.52095823841E+01  0.22973862216E+01  0.69044555818E+01  0.51100000000E-03 0.  1.
        -12    1    3    3    0    0  0.12470572006E+01  0.21171870971E+01  0.19833557860E+02  0.19985185770E+02  0.00000000000E+00 0.  1.
</event>
<event>
 7    1  0.2740409E-010  0.4778727E+02  0.7816164E-02  0.1312668E+00
        -11   -1    0    0    0    0  0.00000000000E+00  0.00000000000E+00  0.45593999997E+02  0.45594000000E+02  0.51100000000E-03 0.  1.
         11   -1    0    0    0    0 -0.00000000000E+00 -0.00000000000E+00 -0.45593999997E+02  0.45594000000E+02  0.51100000000E-03 0. -1.
    9900012    2    1    2    0    0 -0.64739554155E+01 -0.32135512991E+02 -0.28443274173E+02  0.47787272591E+02  0.20000007053E+02 0.  0.
        -12    1    1    2    0    0  0.64739554155E+01  0.32135512991E+02  0.28443274173E+02  0.43400727409E+02  0.00000000000E+00 0.  1.
         11    1    3    3    0    0  0.36001204796E+01 -0.70716974410E+00 -0.37981415413E+01  0.52807987978E+01  0.51100000000E-03 0.  1.
        -11    1    3    3    0    0  0.14888168147E+01 -0.52646352197E+01 -0.13994289658E+01  0.56472436813E+01  0.51100000000E-03 0. -1.
         12    1    3    3    0    0 -0.11562892710E+02 -0.26163708027E+02 -0.23245703666E+02  0.36859230112E+02  0.00000000000E+00 0. -1.
</event>
<event>
 7    1  0.2740409E-010  0.4778727E+02  0.7816164E-02  0.1312668E+00
        -11   -1    0    0    0    0  0.00000000000E+00  0.00000000000E+00  0.45593999997E+02  0.45594000000E+02  0.51100000000E-03 0.  1.
         11   -1    0    0    0    0 -0.00000000000E+00 -0.00000000000E+00 -0.45593999997E+02  0.45594000000E+02  0.51100000000E-03 0. -1.
    9900012    2    1    2    0    0 -0.76267852151E+01 -0.11255014119E+02 -0.41216257141E+02  0.47787273644E+02  0.20000011853E+02 0.  0.
        -12    1    1    2    0    0  0.76267852151E+01  0.11255014119E+02  0.41216257141E+02  0.43400726356E+02  0.00000000000E+00 0.  1.
         11    1    3    3    0    0 -0.36500080956E+01 -0.79990095631E+01 -0.31702565768E+02  0.32899230837E+02  0.51100000000E-03 0. -1.
        -11    1    3    3    0    0 -0.73959824181E+01 -0.26100399421E+01 -0.75793331723E+01  0.10906839873E+02  0.51100000000E-03 0.  1.
         12    1    3    3    0    0  0.34192052986E+01 -0.64596461388E+00 -0.19343582000E+01  0.39812029341E+01  0.00000000000E+00 0. -1.
</event>
<event>
 7    1  0.2740409E-010  0.4778727E+02  0.7816164E-02  0.1312668E+00
        -11   -1    0    0    0    0  0.00000000000E+00  0.00000000000E+00  0.45593999997E+02  0.45594000000E+02  0.51100000000E-03 0. -1.
         11   -1    0    0    0    0 -0.00000000000E+00 -0.00000000000E+00 -0.45593999997E+02  0.45594000000E+02  0.51100000000E-03 0.  1.
    9900012    2    1    2    0    0  0.33120818892E+02  0.26338893725E+02  0.96383212316E+01  0.47787271862E+02  0.20000003727E+02 0.  0.
        -12    1    1    2    0    0 -0.33120818892E+02 -0.26338893725E+02 -0.96383212316E+01  0.43400728138E+02  0.00000000000E+00 0.  1.
         11    1    3    3    0    0  0.62532195827E+01 -0.18584850723E+01 -0.18647099472E+01  0.67848261114E+01  0.51100000000E-03 0. -1.
        -11    1    3    3    0    0  0.92472856047E+01  0.11630103489E+02  0.18974569774E+01  0.14979050085E+02  0.51100000000E-03 0.  1.
         12    1    3    3    0    0  0.17620313705E+02  0.16567275309E+02  0.96055742014E+01  0.26023395665E+02  0.00000000000E+00 0. -1.
</event>
<event>
 7    1  0.2740409E-010  0.4778727E+02  0.7816164E-02  0.1312668E+00
        -11   -1    0    0    0    0  0.00000000000E+00  0.00000000000E+00  0.45593999997E+02  0.45594000000E+02  0.51100000000E-03 0. -1.
         11   -1    0    0    0    0 -0.00000000000E+00 -0.00000000000E+00 -0.45593999997E+02  0.45594000000E+02  0.51100000000E-03 0.  1.
    9900012    2    1    2    0    0  0.76400609110E+01  0.32446463837E+02 -0.27793528162E+02  0.47787265513E+02  0.19999974782E+02 0.  0.
        -12    1    1    2    0    0 -0.76400609110E+01 -0.32446463837E+02  0.27793528162E+02  0.43400734487E+02  0.00000000000E+00 0.  1.
         11    1    3    3    0    0 -0.41521402667E+01  0.15505864518E+02 -0.94904345922E+01  0.18647800199E+02  0.51100000000E-03 0. -1.
        -11    1    3    3    0    0  0.82290243211E+01  0.13749684657E+02 -0.18342662768E+02  0.24356189093E+02  0.51100000000E-03 0.  1.
         12    1    3    3    0    0  0.35631768566E+01  0.31909146625E+01  0.39569198043E-01  0.47832762220E+01  0.00000000000E+00 0. -1.
</event>
<event>
 7    1  0.2740409E-010  0.4778727E+02  0.7816164E-02  0.1312668E+00
        -11   -1    0    0    0    0  0.00000000000E+00  0.00000000000E+00  0.45593999997E+02  0.45594000000E+02  0.51100000000E-03 0.  1.
         11   -1    0    0    0    0 -0.00000000000E+00 -0.00000000000E+00 -0.45593999997E+02  0.45594000000E+02  0.51100000000E-03 0. -1.
    9900012    2    1    2    0    0 -0.27078259328E+02 -0.30379257751E+02 -0.15082828451E+02  0.47787272543E+02  0.20000006831E+02 0.  0.
        -12    1    1    2    0    0  0.27078259328E+02  0.30379257751E+02  0.15082828451E+02  0.43400727457E+02  0.00000000000E+00 0.  1.
         11    1    3    3    0    0 -0.20258836509E+02 -0.31528041164E+02 -0.12398075362E+02  0.39473410155E+02  0.51100000000E-03 0. -1.
        -11    1    3    3    0    0 -0.25252090840E+01  0.13798998173E+00 -0.29605721364E+01  0.38936756142E+01  0.51100000000E-03 0.  1.
         12    1    3    3    0    0 -0.42942137349E+01  0.10107934315E+01  0.27581904742E+00  0.44201867731E+01  0.00000000000E+00 0. -1.
</event>
<event>
 7    1  0.2740409E-010  0.4778728E+02  0.7816164E-02  0.1312668E+00
        -11   -1    0    0    0    0  0.00000000000E+00  0.00000000000E+00  0.45593999997E+02  0.45594000000E+02  0.51100000000E-03 0. -1.
         11   -1    0    0    0    0 -0.00000000000E+00 -0.00000000000E+00 -0.45593999997E+02  0.45594000000E+02  0.51100000000E-03 0.  1.
    9900012    2    1    2    0    0 -0.32933642361E+01 -0.49236993578E+01  0.42994574290E+02  0.47787280170E+02  0.20000041608E+02 0.  0.
        -12    1    1    2    0    0  0.32933642361E+01  0.49236993578E+01 -0.42994574290E+02  0.43400719830E+02  0.00000000000E+00 0.  1.
         11    1    3    3    0    0  0.52195004850E+01 -0.19446232568E+01  0.14563408094E+02  0.15592228849E+02  0.51100000000E-03 0. -1.
        -11    1    3    3    0    0 -0.10082465569E+02 -0.31933717523E+01  0.28701429441E+02  0.30588000709E+02  0.51100000000E-03 0.  1.
        -12    1    3    3    0    0  0.15696008483E+01  0.21429565121E+00 -0.27026324499E+00  0.16070506124E+01  0.00000000000E+00 0.  1.
</event>
<event>
 7    1  0.2740409E-010  0.4778727E+02  0.7816164E-02  0.1312668E+00
        -11   -1    0    0    0    0  0.00000000000E+00  0.00000000000E+00  0.45593999997E+02  0.45594000000E+02  0.51100000000E-03 0.  1.
         11   -1    0    0    0    0 -0.00000000000E+00 -0.00000000000E+00 -0.45593999997E+02  0.45594000000E+02  0.51100000000E-03 0. -1.
    9900012    2    1    2    0    0  0.26530671787E+02  0.30395706197E+02 -0.15995233434E+02  0.47787274277E+02  0.20000014738E+02 0.  0.
        -12    1    1    2    0    0 -0.26530671787E+02 -0.30395706197E+02  0.15995233434E+02  0.43400725723E+02  0.00000000000E+00 0.  1.
         11    1    3    3    0    0  0.10604322318E+02  0.41908554301E+01 -0.45064204737E+01  0.12260617717E+02  0.51100000000E-03 0. -1.
        -11    1    3    3    0    0  0.96028044060E+01  0.24402981403E+02 -0.12180511795E+02  0.28915120986E+02  0.51100000000E-03 0.  1.
        -12    1    3    3    0    0  0.63235450631E+01  0.18018693646E+01  0.69169883424E+00  0.66115355742E+01  0.00000000000E+00 0.  1.
</event>
<event>
 7    1  0.2740409E-010  0.4778727E+02  0.7816164E-02  0.1312668E+00
        -11   -1    0    0    0    0  0.00000000000E+00  0.00000000000E+00  0.45593999997E+02  0.45594000000E+02  0.51100000000E-03 0.  1.
         11   -1    0    0    0    0 -0.00000000000E+00 -0.00000000000E+00 -0.45593999997E+02  0.45594000000E+02  0.51100000000E-03 0. -1.
    9900012    2    1    2    0    0  0.21921601865E+01 -0.23799987408E+02 -0.36226767732E+02  0.47787266513E+02  0.19999979338E+02 0.  0.
        -12    1    1    2    0    0 -0.21921601865E+01  0.23799987408E+02  0.36226767732E+02  0.43400733487E+02  0.00000000000E+00 0.  1.
         11    1    3    3    0    0 -0.42789490598E+01 -0.20598829226E+02 -0.18084627652E+02  0.27743015844E+02  0.51100000000E-03 0. -1.
        -11    1    3    3    0    0  0.64619023437E+01 -0.28262168404E+01 -0.12212759630E+02  0.14103020299E+02  0.51100000000E-03 0.  1.
         12    1    3    3    0    0  0.92069025902E-02 -0.37494134150E+00 -0.59293804499E+01  0.59412303689E+01  0.00000000000E+00 0. -1.
</event>
<event>
 7    1  0.2740409E-010  0.4778727E+02  0.7816164E-02  0.1312668E+00
        -11   -1    0    0    0    0  0.00000000000E+00  0.00000000000E+00  0.45593999997E+02  0.45594000000E+02  0.51100000000E-03 0. -1.
         11   -1    0    0    0    0 -0.00000000000E+00 -0.00000000000E+00 -0.45593999997E+02  0.45594000000E+02  0.51100000000E-03 0.  1.
    9900012    2    1    2    0    0 -0.77743630913E+01  0.41249217664E+02  0.11031065178E+02  0.47787273297E+02  0.20000010270E+02 0.  0.
        -12    1    1    2    0    0  0.77743630913E+01 -0.41249217664E+02 -0.11031065178E+02  0.43400726703E+02  0.00000000000E+00 0.  1.
         11    1    3    3    0    0 -0.32716535001E+01  0.19544773209E+02  0.70373465650E+01  0.21029173150E+02  0.51100000000E-03 0. -1.
        -11    1    3    3    0    0 -0.55972477302E+01  0.35892989071E+01  0.53855027536E+01  0.85566283645E+01  0.51100000000E-03 0.  1.
        -12    1    3    3    0    0  0.10945381390E+01  0.18115145548E+02 -0.13917841405E+01  0.18201471783E+02  0.00000000000E+00 0.  1.
</event>
