<event>
 7    1  0.2706925E-010  0.4778727E+02  0.7816164E-02  0.1312668E+00
        -11   -1    0    0    0    0  0.00000000000E+00  0.00000000000E+00  0.45593999997E+02  0.45594000000E+02  0.51100000000E-03 0.  1.
         11   -1    0    0    0    0 -0.00000000000E+00 -0.00000000000E+00 -0.45593999997E+02  0.45594000000E+02  0.51100000000E-03 0. -1.
    9900012    2    1    2    0    0 -0.41762567025E+02 -0.78796031979E+01  0.87990394058E+01  0.47787271371E+02  0.20000001487E+02 0.  0.
         12    1    1    2    0    0  0.41762567025E+02  0.78796031979E+01 -0.87990394058E+01  0.43400728629E+02  0.00000000000E+00 0. -1.
         11    1    3    3    0    0  0.34483727195E+00 -0.26609412439E+01  0.30730606615E+01  0.40796106601E+01  0.51100000000E-03 0. -1.
        -11    1    3    3    0    0 -0.27288745776E+02 -0.46009703536E+00  0.67339932941E+01  0.28111101033E+02  0.51100000000E-03 0.  1.
         12    1    3    3    0    0 -0.14818658521E+02 -0.47585649186E+01 -0.10080145498E+01  0.15596559678E+02  0.00000000000E+00 0. -1.
</event>
<event>
 7    1  0.2706925E-010  0.4778727E+02  0.7816164E-02  0.1312668E+00
        -11   -1    0    0    0    0  0.00000000000E+00  0.00000000000E+00  0.45593999997E+02  0.45594000000E+02  0.51100000000E-03 0. -1.
         11   -1    0    0    0    0 -0.00000000000E+00 -0.00000000000E+00 -0.45593999997E+02  0.45594000000E+02  0.51100000000E-03 0.  1.
    9900012    2    1    2    0    0 -0.19875180313E+02 -0.18189198023E+02 -0.34025773480E+02  0.47787274452E+02  0.20000015536E+02 0.  0.
         12    1    1    2    0    0  0.19875180313E+02  0.18189198023E+02  0.34025773480E+02  0.43400725548E+02  0.00000000000E+00 0. -1.
         11    1    3    3    0    0  0.33753568962E+01 -0.53768850133E+01 -0.72829864404E+01  0.96615639714E+01  0.51100000000E-03 0. -1.
        -11    1    3    3    0    0 -0.18782219688E+02 -0.10787091018E+02 -0.18273722886E+02  0.28338349589E+02  0.51100000000E-03 0.  1.
         12    1    3    3    0    0 -0.44683175216E+01 -0.20252219912E+01 -0.84690641530E+01  0.97873608912E+01  0.00000000000E+00 0. -1.
</event>
<event>
 7    1  0.2706925E-010  0.4778727E+02  0.7816164E-02  0.1312668E+00
        -11   -1    0    0    0    0  0.00000000000E+00  0.00000000000E+00  0.45593999997E+02  0.45594000000E+02  0.51100000000E-03 0. -1.
         11   -1    0    0    0    0 -0.00000000000E+00 -0.00000000000E+00 -0.45593999997E+02  0.45594000000E+02  0.51100000000E-03 0.  1.
    9900012    2    1    2    0    0  0.14661372606E+02 -0.12875704672E+02 -0.38767044110E+02  0.47787270438E+02  0.19999997234E+02 0.  0.
         12    1    1    2    0    0 -0.14661372606E+02  0.12875704672E+02  0.38767044110E+02  0.43400729562E+02  0.00000000000E+00 0. -1.
         11    1    3    3    0    0  0.73097422784E+01 -0.14696164853E+02 -0.13703205300E+02  0.21381941664E+02  0.51100000000E-03 0. -1.
        -11    1    3    3    0    0  0.70931830856E+01  0.85329756673E+00 -0.23371355511E+02  0.24438936591E+02  0.51100000000E-03 0.  1.
         12    1    3    3    0    0  0.25844724178E+00  0.96716261389E+00 -0.16924832991E+01  0.19663921827E+01  0.00000000000E+00 0. -1.
</event>
<event>
 7    1  0.2706925E-010  0.4778727E+02  0.7816164E-02  0.1312668E+00
        -11   -1    0    0    0    0  0.00000000000E+00  0.00000000000E+00  0.45593999997E+02  0.45594000000E+02  0.51100000000E-03 0.  1.
         11   -1    0    0    0    0 -0.00000000000E+00 -0.00000000000E+00 -0.45593999997E+02  0.45594000000E+02  0.51100000000E-03 0. -1.
    9900012    2    1    2    0    0 -0.64697353592E+01  0.33377710091E+02  0.26975810240E+02  0.47787270229E+02  0.19999996283E+02 0.  0.
         12    1    1    2    0    0  0.64697353592E+01 -0.33377710091E+02 -0.26975810240E+02  0.43400729771E+02  0.00000000000E+00 0. -1.
         11    1    3    3    0    0 -0.72935245434E+01  0.36182401797E+01  0.29928702253E+01  0.86743550025E+01  0.51100000000E-03 0. -1.
        -11    1    3    3    0    0  0.24356016085E+01  0.24940835898E+02  0.16274018424E+02  0.29880112557E+02  0.51100000000E-03 0.  1.
         12    1    3    3    0    0 -0.16118124244E+01  0.48186340131E+01  0.77089215909E+01  0.92328026698E+01  0.00000000000E+00 0. -1.
</event>
<event>
 7    1  0.2706925E-010  0.4778728E+02  0.7816164E-02  0.1312668E+00
        -11   -1    0    0    0    0  0.00000000000E+00  0.00000000000E+00  0.45593999997E+02  0.45594000000E+02  0.51100000000E-03 0.  1.
         11   -1    0    0    0    0 -0.00000000000E+00 -0.00000000000E+00 -0.45593999997E+02  0.45594000000E+02  0.51100000000E-03 0. -1.
    9900012    2    1    2    0    0 -0.72937030778E+01  0.14721809824E+02  0.40170799483E+02  0.47787275119E+02  0.20000018578E+02 0.  0.
         12    1    1    2    0    0  0.72937030778E+01 -0.14721809824E+02 -0.40170799483E+02  0.43400724881E+02  0.00000000000E+00 0. -1.
         11    1    3    3    0    0 -0.25672068520E+01 -0.11955431193E+01 -0.50044198394E+00  0.28758158515E+01  0.51100000000E-03 0. -1.
        -11    1    3    3    0    0 -0.20299722530E+00  0.14080670905E+02  0.28253222649E+02  0.31568197467E+02  0.51100000000E-03 0.  1.
        -12    1    3    3    0    0 -0.45234990004E+01  0.18366820379E+01  0.12418018818E+02  0.13343261800E+02  0.00000000000E+00 0.  1.
</event>
<event>
 7    1  0.2706925E-010  0.4778727E+02  0.7816164E-02  0.1312668E+00
        -11   -1    0    0    0    0  0.00000000000E+00  0.00000000000E+00  0.45593999997E+02  0.45594000000E+02  0.51100000000E-03 0. -1.
         11   -1    0    0    0    0 -0.00000000000E+00 -0.00000000000E+00 -0.45593999997E+02  0.45594000000E+02  0.51100000000E-03 0.  1.
    9900012    2    1    2    0    0 -0.17402837654E+02 -0.39650601473E+02 -0.29315837660E+01  0.47787272599E+02  0.20000007087E+02 0.  0.
         12    1    1    2    0    0  0.17402837654E+02  0.39650601473E+02  0.29315837660E+01  0.43400727401E+02  0.00000000000E+00 0. -1.
         11    1    3    3    0    0 -0.70256424828E+00  0.38430548693E+00 -0.21629756554E+01  0.23064585791E+01  0.51100000000E-03 0. -1.
        -11    1    3    3    0    0 -0.17574374103E+02 -0.28695989602E+02  0.22169660247E+01  0.33722891083E+02  0.51100000000E-03 0.  1.
        -12    1    3    3    0    0  0.87410069774E+00 -0.11338917357E+02 -0.29855741353E+01  0.11757922937E+02  0.00000000000E+00 0.  1.
</event>
<event>
 7    1  0.2706925E-010  0.4778728E+02  0.7816164E-02  0.1312668E+00
        -11   -1    0    0    0    0  0.00000000000E+00  0.00000000000E+00  0.45593999997E+02  0.45594000000E+02  0.51100000000E-03 0.  1.
         11   -1    0    0    0    0 -0.00000000000E+00 -0.00000000000E+00 -0.45593999997E+02  0.45594000000E+02  0.51100000000E-03 0. -1.
    9900012    2    1    2    0    0 -0.20853404505E+02  0.10969781736E+02  0.36447519009E+02  0.47787283039E+02  0.20000054688E+02 0.  0.
         12    1    1    2    0    0  0.20853404505E+02 -0.10969781736E+02 -0.36447519009E+02  0.43400716961E+02  0.00000000000E+00 0. -1.
         11    1    3    3    0    0 -0.83196034251E+01  0.69055893194E+01  0.22707921641E+02  0.25150599804E+02  0.51100000000E-03 0. -1.
        -11    1    3    3    0    0 -0.72024497225E+01  0.69593041918E+01  0.13166746418E+02  0.16542986681E+02  0.51100000000E-03 0.  1.
         12    1    3    3    0    0 -0.53313513572E+01 -0.28951117748E+01  0.57285095115E+00  0.60936965542E+01  0.00000000000E+00 0. -1.
</event>
<event>
 7    1  0.2706925E-010  0.4778728E+02  0.7816164E-02  0.1312668E+00
        -11   -1    0    0    0    0  0.00000000000E+00  0.00000000000E+00  0.45593999997E+02  0.45594000000E+02  0.51100000000E-03 0. -1.
         11   -1    0    0    0    0 -0.00000000000E+00 -0.00000000000E+00 -0.45593999997E+02  0.45594000000E+02  0.51100000000E-03 0.  1.
    9900012    2    1    2    0    0  0.48712481409E+01 -0.41750895533E+02  0.10805395446E+02  0.47787275271E+02  0.20000019272E+02 0.  0.
         12    1    1    2    0    0 -0.48712481409E+01  0.41750895533E+02 -0.10805395446E+02  0.43400724729E+02  0.00000000000E+00 0. -1.
         11    1    3    3    0    0  0.64477403080E+01 -0.26701677033E+02  0.13237534816E+02  0.30492380027E+02  0.51100000000E-03 0. -1.
        -11    1    3    3    0    0 -0.15230210754E+01 -0.14929390812E+02 -0.41515076092E+01  0.15570527251E+02  0.51100000000E-03 0.  1.
         12    1    3    3    0    0 -0.53471091770E-01 -0.11982768848E+00  0.17193682391E+01  0.17243679927E+01  0.00000000000E+00 0. -1.
</event>
<event>
 7    1  0.2706925E-010  0.4778727E+02  0.7816164E-02  0.1312668E+00
        -11   -1    0    0    0    0  0.00000000000E+00  0.00000000000E+00  0.45593999997E+02  0.45594000000E+02  0.51100000000E-03 0.  1.
         11   -1    0    0    0    0 -0.00000000000E+00 -0.00000000000E+00 -0.45593999997E+02  0.45594000000E+02  0.51100000000E-03 0. -1.
    9900012    2    1    2    0    0 -0.85007410293E+01  0.12960733151E+01  0.42540346342E+02  0.47787268774E+02  0.19999989648E+02 0.  0.
         12    1    1    2    0    0  0.85007410293E+01 -0.12960733151E+01 -0.42540346342E+02  0.43400731226E+02  0.00000000000E+00 0. -1.
         11    1    3    3    0    0  0.74078281669E-02 -0.36333046001E+01  0.28956260103E+02  0.29183316409E+02  0.51100000000E-03 0. -1.
        -11    1    3    3    0    0  0.99638948434E+00  0.14868484012E+01  0.15660028188E+00  0.17966730593E+01  0.51100000000E-03 0.  1.
         12    1    3    3    0    0 -0.95045383418E+01  0.34425295141E+01  0.13427485957E+02  0.16807279306E+02  0.00000000000E+00 0. -1.
</event>
<event>
 7    1  0.2706925E-010  0.4778726E+02  0.7816164E-02  0.1312668E+00
        -11   -1    0    0    0    0  0.00000000000E+00  0.00000000000E+00  0.45593999997E+02  0.45594000000E+02  0.51100000000E-03 0. -1.
         11   -1    0    0    0    0 -0.00000000000E+00 -0.00000000000E+00 -0.45593999997E+02  0.45594000000E+02  0.51100000000E-03 0.  1.
    9900012    2    1    2    0    0 -0.10354799663E+02  0.35567375554E+02  0.22613352978E+02  0.47787264836E+02  0.19999971692E+02 0.  0.
         12    1    1    2    0    0  0.10354799663E+02 -0.35567375554E+02 -0.22613352978E+02  0.43400735164E+02  0.00000000000E+00 0. -1.
         11    1    3    3    0    0  0.40586735286E+01  0.13537494394E+02  0.98023773468E+01  0.17199511249E+02  0.51100000000E-03 0. -1.
        -11    1    3    3    0    0 -0.55723031021E+01  0.56593058268E+01  0.82078747061E+01  0.11421362080E+02  0.51100000000E-03 0.  1.
         12    1    3    3    0    0 -0.88411700893E+01  0.16370575333E+02  0.46031009255E+01  0.19166391507E+02  0.00000000000E+00 0. -1.
</event>
<event>
 7    1  0.2706925E-010  0.4778728E+02  0.7816164E-02  0.1312668E+00
        -11   -1    0    0    0    0  0.00000000000E+00  0.00000000000E+00  0.45593999997E+02  0.45594000000E+02  0.51100000000E-03 0. -1.
         11   -1    0    0    0    0 -0.00000000000E+00 -0.00000000000E+00 -0.45593999997E+02  0.45594000000E+02  0.51100000000E-03 0.  1.
    9900012    2    1    2    0    0 -0.29323180241E+02 -0.24695205597E+02 -0.20345033451E+02  0.47787280363E+02  0.20000042487E+02 0.  0.
         12    1    1    2    0    0  0.29323180241E+02  0.24695205597E+02  0.20345033451E+02  0.43400719637E+02  0.00000000000E+00 0. -1.
         11    1    3    3    0    0 -0.37970930926E+01  0.15094062892E+01 -0.39099367736E+01  0.56554247528E+01  0.51100000000E-03 0. -1.
        -11    1    3    3    0    0 -0.25518138927E+02 -0.26533345046E+02 -0.17684171700E+02  0.40840222118E+02  0.51100000000E-03 0.  1.
        -12    1    3    3    0    0 -0.79482207608E-02  0.32873316040E+00  0.12490750232E+01  0.12916334923E+01  0.00000000000E+00 0.  1.
</event>
<event>
 7    1  0.2706925E-010  0.4778726E+02  0.7816164E-02  0.1312668E+00
        -11   -1    0    0    0    0  0.00000000000E+00  0.00000000000E+00  0.45593999997E+02  0.45594000000E+02  0.51100000000E-03 0.  1.
         11   -1    0    0    0    0 -0.00000000000E+00 -0.00000000000E+00 -0.45593999997E+02  0.45594000000E+02  0.51100000000E-03 0. -1.
    9900012    2    1    2    0    0  0.12368551596E+02  0.94811375608E+01  0.40506182715E+02  0.47787264106E+02  0.19999968364E+02 0.  0.
         12    1    1    2    0    0 -0.12368551596E+02 -0.94811375608E+01 -0.40506182715E+02  0.43400735894E+02  0.00000000000E+00 0. -1.
         11    1    3    3    0    0 -0.13137766085E+01  0.45428518784E+01  0.84568410000E+01  0.96892554991E+01  0.51100000000E-03 0. -1.
        -11    1    3    3    0    0  0.77302907625E+01 -0.22592265860E+01  0.49950064002E+01  0.94768976590E+01  0.51100000000E-03 0.  1.
        -12    1    3    3    0    0  0.59520374422E+01  0.71975122684E+01  0.27054335315E+02  0.28621110948E+02  0.00000000000E+00 0.  1.
</event>
<event>
 7    1  0.2706925E-010  0.4778727E+02  0.7816164E-02  0.1312668E+00
        -11   -1    0    0    0    0  0.00000000000E+00  0.00000000000E+00  0.45593999997E+02  0.45594000000E+02  0.51100000000E-03 0.  1.
         11   -1    0    0    0    0 -0.00000000000E+00 -0.00000000000E+00 -0.45593999997E+02  0.45594000000E+02  0.51100000000E-03 0. -1.
    9900012    2    1    2    0    0 -0.68422600886E+01 -0.27121079002E+01  0.42772085599E+02  0.47787270065E+02  0.19999995535E+02 0.  0.
         12    1    1    2    0    0  0.68422600886E+01  0.27121079002E+01 -0.42772085599E+02  0.43400729935E+02  0.00000000000E+00 0. -1.
         11    1    3    3    0    0 -0.13559612191E-01  0.17912206812E+01  0.17528473562E+01  0.25062181683E+01  0.51100000000E-03 0. -1.
        -11    1    3    3    0    0 -0.25397867896E+01  0.56704315623E+01  0.25430160412E+02  0.26178185000E+02  0.51100000000E-03 0.  1.
        -12    1    3    3    0    0 -0.42889136868E+01 -0.10173760144E+02  0.15589077831E+02  0.19102866897E+02  0.00000000000E+00 0.  1.
</event>
<event>
 7    1  0.2706925E-010  0.4778727E+02  0.7816164E-02  0.1312668E+00
        -11   -1    0    0    0    0  0.00000000000E+00  0.00000000000E+00  0.45593999997E+02  0.45594000000E+02  0.51100000000E-03 0. -1.
         11   -1    0    0    0    0 -0.00000000000E+00 -0.00000000000E+00 -0.45593999997E+02  0.45594000000E+02  0.51100000000E-03 0.  1.
    9900012    2    1    2    0    0  0.26751204988E+02  0.10422595500E+02 -0.32547902094E+02  0.47787269638E+02  0.19999993586E+02 0.  0.
         12    1    1    2    0    0 -0.26751204988E+02 -0.10422595500E+02  0.32547902094E+02  0.43400730362E+02  0.00000000000E+00 0. -1.
         11    1    3    3    0    0  0.26564914729E+01  0.58496031943E+01 -0.85624274611E+00  0.64813545172E+01  0.51100000000E-03 0. -1.
        -11    1    3    3    0    0  0.12269227661E+02  0.35137914523E+00 -0.22885477524E+02  0.25969260607E+02  0.51100000000E-03 0.  1.
         12    1    3    3    0    0  0.11825485854E+02  0.42216131606E+01 -0.88061818239E+01  0.15336654514E+02  0.00000000000E+00 0. -1.
</event>
<event>
 7    1  0.2706925E-010  0.4778727E+02  0.7816164E-02  0.1312668E+00
        -11   -1    0    0    0    0  0.00000000000E+00  0.00000000000E+00  0.45593999997E+02  0.45594000000E+02  0.51100000000E-03 0. -1.
         11   -1    0    0    0    0 -0.00000000000E+00 -0.00000000000E+00 -0.45593999997E+02  0.45594000000E+02  0.51100000000E-03 0.  1.
    9900012    2    1    2    0    0  0.44490538159E+00  0.21397424579E+02 -0.37756794788E+02  0.47787271065E+02  0.20000000094E+02 0.  0.
         12    1    1    2    0    0 -0.44490538159E+00 -0.21397424579E+02  0.37756794788E+02  0.43400728935E+02  0.00000000000E+00 0. -1.
         11    1    3    3    0    0 -0.17373253190E+00 -0.29228981367E+01 -0.18079882144E+00  0.29336334101E+01  0.51100000000E-03 0. -1.
        -11    1    3    3    0    0 -0.42737073424E+00  0.14683579848E+02 -0.20529085824E+02  0.25243484860E+02  0.51100000000E-03 0.  1.
         12    1    3    3    0    0  0.10460086477E+01  0.96367428683E+01 -0.17046910143E+02  0.19610152795E+02  0.00000000000E+00 0. -1.
</event>
<event>
 7    1  0.2706925E-010  0.4778727E+02  0.7816164E-02  0.1312668E+00
        -11   -1    0    0    0    0  0.00000000000E+00  0.00000000000E+00  0.45593999997E+02  0.45594000000E+02  0.51100000000E-03 0.  1.
         11   -1    0    0    0    0 -0.00000000000E+00 -0.00000000000E+00 -0.45593999997E+02  0.45594000000E+02  0.51100000000E-03 0. -1.
    9900012    2    1    2    0    0  0.13277998902E+02  0.31885694738E+02  0.26279661045E+02  0.47787269956E+02  0.19999995035E+02 0.  0.
         12    1    1    2    0    0 -0.13277998902E+02 -0.31885694738E+02 -0.26279661045E+02  0.43400730044E+02  0.00000000000E+00 0. -1.
         11    1    3    3    0    0  0.49170594178E+01  0.29108487521E+01  0.49811864351E+01  0.75804176889E+01  0.51100000000E-03 0. -1.
        -11    1    3    3    0    0  0.20078936046E+01  0.27426623850E+02  0.16217020707E+02  0.31925586814E+02  0.51100000000E-03 0.  1.
        -12    1    3    3    0    0  0.63530458799E+01  0.15482221356E+01  0.50814539025E+01  0.82812654526E+01  0.00000000000E+00 0.  1.
</event>
<event>
 7    1  0.2706925E-010  0.4778727E+02  0.7816164E-02  0.1312668E+00
        -11   -1    0    0    0    0  0.00000000000E+00  0.00000000000E+00  0.45593999997E+02  0.45594000000E+02  0.51100000000E-03 0.  1.
         11   -1    0    0    0    0 -0.00000000000E+00 -0.00000000000E+00 -0.45593999997E+02  0.45594000000E+02  0.51100000000E-03 0. -1.
    9900012    2    1    2    0    0  0.38872559050E+02  0.18750330883E+02 -0.45795728660E+01  0.47787271401E+02  0.20000001624E+02 0.  0.
         12    1    1    2    0    0 -0.38872559050E+02 -0.18750330883E+02  0.45795728660E+01  0.43400728599E+02  0.00000000000E+00 0. -1.
         11    1    3    3    0    0  0.49942460537E+01 -0.26622190566E+01  0.14933381365E+01  0.58532010901E+01  0.51100000000E-03 0. -1.
        -11    1    3    3    0    0  0.27436230148E+02  0.12290137086E+02 -0.23198408775E+01  0.30152543115E+02  0.51100000000E-03 0.  1.
         12    1    3    3    0    0  0.64420828479E+01  0.91224128538E+01 -0.37530701249E+01  0.11781527195E+02  0.00000000000E+00 0. -1.
</event>
<event>
 7    1  0.2706925E-010  0.4778727E+02  0.7816164E-02  0.1312668E+00
        -11   -1    0    0    0    0  0.00000000000E+00  0.00000000000E+00  0.45593999997E+02  0.45594000000E+02  0.51100000000E-03 0.  1.
         11   -1    0    0    0    0 -0.00000000000E+00 -0.00000000000E+00 -0.45593999997E+02  0.45594000000E+02  0.51100000000E-03 0. -1.
    9900012    2    1    2    0    0  0.32103805265E+02  0.28947770430E+02 -0.38724022268E+01  0.47787271615E+02  0.20000002601E+02 0.  0.
         12    1    1    2    0    0 -0.32103805265E+02 -0.28947770430E+02  0.38724022268E+01  0.43400728385E+02  0.00000000000E+00 0. -1.
         11    1    3    3    0    0  0.21309444374E+01 -0.10527845088E+01 -0.35161407679E+01  0.42441165839E+01  0.51100000000E-03 0. -1.
        -11    1    3    3    0    0 -0.31604044739E+00  0.14875091913E+01  0.11672712559E+01  0.19170518002E+01  0.51100000000E-03 0.  1.
         12    1    3    3    0    0  0.30288901275E+02  0.28513045748E+02 -0.15235327148E+01  0.41626103231E+02  0.00000000000E+00 0. -1.
</event>
<event>
 7    1  0.2706925E-010  0.4778727E+02  0.7816164E-02  0.1312668E+00
        -11   -1    0    0    0    0  0.00000000000E+00  0.00000000000E+00  0.45593999997E+02  0.45594000000E+02  0.51100000000E-03 0.  1.
         11   -1    0    0    0    0 -0.00000000000E+00 -0.00000000000E+00 -0.45593999997E+02  0.45594000000E+02  0.51100000000E-03 0. -1.
    9900012    2    1    2    0    0 -0.18779069328E+02  0.13757313218E+02  0.36629311621E+02  0.47787267499E+02  0.19999983833E+02 0.  0.
         12    1    1    2    0    0  0.18779069328E+02 -0.13757313218E+02 -0.36629311621E+02  0.43400732501E+02  0.00000000000E+00 0. -1.
         11    1    3    3    0    0  0.35351760284E+00 -0.37458076081E+00  0.13498316019E+02  0.13508139067E+02  0.51100000000E-03 0. -1.
        -11    1    3    3    0    0 -0.11836899066E+02  0.66379997802E+01  0.75981905323E+01  0.15553382919E+02  0.51100000000E-03 0.  1.
         12    1    3    3    0    0 -0.72956878643E+01  0.74938941988E+01  0.15532805070E+02  0.18725745513E+02  0.00000000000E+00 0. -1.
</event>
<event>
 7    1  0.2706925E-010  0.4778727E+02  0.7816164E-02  0.1312668E+00
        -11   -1    0    0    0    0  0.00000000000E+00  0.00000000000E+00  0.45593999997E+02  0.45594000000E+02  0.51100000000E-03 0. -1.
         11   -1    0    0    0    0 -0.00000000000E+00 -0.00000000000E+00 -0.45593999997E+02  0.45594000000E+02  0.51100000000E-03 0.  1.
    9900012    2    1    2    0    0 -0.11977317810E+02 -0.39744824413E+02  0.12669494995E+02  0.47787270594E+02  0.19999997947E+02 0.  0.
         12    1    1    2    0    0  0.11977317810E+02  0.39744824413E+02 -0.12669494995E+02  0.43400729406E+02  0.00000000000E+00 0. -1.
         11    1    3    3    0    0  0.40258429671E+01 -0.37827690901E+01  0.25937855374E+00  0.55302830922E+01  0.51100000000E-03 0. -1.
        -11    1    3    3    0    0 -0.13924031073E+02 -0.34753729132E+02  0.13242472761E+02  0.39712257742E+02  0.51100000000E-03 0.  1.
         12    1    3    3    0    0 -0.20791297040E+01 -0.12083261911E+01 -0.83235631945E+00  0.25447297602E+01  0.00000000000E+00 0. -1.
</event>
<event>
 7    1  0.2706925E-010  0.4778727E+02  0.7816164E-02  0.1312668E+00
        -11   -1    0    0    0    0  0.00000000000E+00  0.00000000000E+00  0.45593999997E+02  0.45594000000E+02  0.51100000000E-03 0. -1.
         11   -1    0    0    0    0 -0.00000000000E+00 -0.00000000000E+00 -0.45593999997E+02  0.45594000000E+02  0.51100000000E-03 0.  1.
    9900012    2    1    2    0    0 -0.19155327423E+02 -0.88895237396E+01 -0.37916660858E+02  0.47787269918E+02  0.19999994865E+02 0.  0.
         12    1    1    2    0    0  0.19155327423E+02  0.88895237396E+01  0.37916660858E+02  0.43400730082E+02  0.00000000000E+00 0. -1.
         11    1    3    3    0    0 -0.63316165115E+01  0.21383907824E+01 -0.18464729262E+02  0.19636911920E+02  0.51100000000E-03 0. -1.
        -11    1    3    3    0    0 -0.13708902810E+02 -0.12466103864E+02 -0.18616754532E+02  0.26266353218E+02  0.51100000000E-03 0.  1.
         12    1    3    3    0    0  0.88519189919E+00  0.14381893422E+01 -0.83517706499E+00  0.18840047803E+01  0.00000000000E+00 0. -1.
</event>
<event>
 7    1  0.2706925E-010  0.4778727E+02  0.7816164E-02  0.1312668E+00
        -11   -1    0    0    0    0  0.00000000000E+00  0.00000000000E+00  0.45593999997E+02  0.45594000000E+02  0.51100000000E-03 0. -1.
         11   -1    0    0    0    0 -0.00000000000E+00 -0.00000000000E+00 -0.45593999997E+02  0.45594000000E+02  0.51100000000E-03 0.  1.
    9900012    2    1    2    0    0  0.43088943835E+02  0.51224018467E+01 -0.85255967762E+00  0.47787274897E+02  0.20000017565E+02 0.  0.
         12    1    1    2    0    0 -0.43088943835E+02 -0.51224018467E+01  0.85255967762E+00  0.43400725103E+02  0.00000000000E+00 0. -1.
         11    1    3    3    0    0  0.18052831404E+02 -0.56132254648E+01  0.96103043584E-02  0.18905372634E+02  0.51100000000E-03 0. -1.
        -11    1    3    3    0    0  0.17907832061E+02  0.11960062846E+02  0.40905550861E+00  0.21538358319E+02  0.51100000000E-03 0.  1.
         12    1    3    3    0    0  0.71282803697E+01 -0.12244355346E+01 -0.12712254906E+01  0.73435439438E+01  0.00000000000E+00 0. -1.
</event>
<event>
 7    1  0.2706925E-010  0.4778727E+02  0.7816164E-02  0.1312668E+00
        -11   -1    0    0    0    0  0.00000000000E+00  0.00000000000E+00  0.45593999997E+02  0.45594000000E+02  0.51100000000E-03 0.  1.
         11   -1    0    0    0    0 -0.00000000000E+00 -0.00000000000E+00 -0.45593999997E+02  0.45594000000E+02  0.51100000000E-03 0. -1.
    9900012    2    1    2    0    0  0.19631806313E+02  0.35030540061E+02 -0.16464399638E+02  0.47787274067E+02  0.20000013779E+02 0.  0.
         12    1    1    2    0    0 -0.19631806313E+02 -0.35030540061E+02  0.16464399638E+02  0.43400725933E+02  0.00000000000E+00 0. -1.
         11    1    3    3    0    0  0.13520381145E+02  0.90307070600E+01 -0.48038119040E+01  0.16953789706E+02  0.51100000000E-03 0. -1.
        -11    1    3    3    0    0  0.42053236764E+01  0.18308741181E+02 -0.28779434892E+01  0.19004665476E+02  0.51100000000E-03 0.  1.
         12    1    3    3    0    0  0.19061014915E+01  0.76910918204E+01 -0.87826442453E+01  0.11828818885E+02  0.00000000000E+00 0. -1.
</event>
<event>
 7    1  0.2706925E-010  0.4778727E+02  0.7816164E-02  0.1312668E+00
        -11   -1    0    0    0    0  0.00000000000E+00  0.00000000000E+00  0.45593999997E+02  0.45594000000E+02  0.51100000000E-03 0. -1.
         11   -1    0    0    0    0 -0.00000000000E+00 -0.00000000000E+00 -0.45593999997E+02  0.45594000000E+02  0.51100000000E-03 0.  1.
    9900012    2    1    2    0    0 -0.77816485850E+01 -0.40861479470E+02  0.12385818234E+02  0.47787273595E+02  0.20000011628E+02 0.  0.
         12    1    1    2    0    0  0.77816485850E+01  0.40861479470E+02 -0.12385818234E+02  0.43400726405E+02  0.00000000000E+00 0. -1.
         11    1    3    3    0    0 -0.63249601971E+01 -0.18536333444E+02  0.72831086238E+01  0.20896039111E+02  0.51100000000E-03 0. -1.
        -11    1    3    3    0    0  0.10879331805E+01 -0.58829064139E+01 -0.46752479831E+01  0.75927682992E+01  0.51100000000E-03 0.  1.
        -12    1    3    3    0    0 -0.25446215684E+01 -0.16442239612E+02  0.97779575935E+01  0.19298466185E+02  0.00000000000E+00 0.  1.
</event>
<event>
 7    1  0.2706925E-010  0.4778728E+02  0.7816164E-02  0.1312668E+00
        -11   -1    0    0    0    0  0.00000000000E+00  0.00000000000E+00  0.45593999997E+02  0.45594000000E+02  0.51100000000E-03 0. -1.
         11   -1    0    0    0    0 -0.00000000000E+00 -0.00000000000E+00 -0.45593999997E+02  0.45594000000E+02  0.51100000000E-03 0.  1.
    9900012    2    1    2    0    0 -0.21498223416E+02 -0.31628078730E+02  0.20521054704E+02  0.47787278113E+02  0.20000032228E+02 0.  0.
         12    1    1    2    0    0  0.21498223416E+02  0.31628078730E+02 -0.20521054704E+02  0.43400721887E+02  0.00000000000E+00 0. -1.
         11    1    3    3    0    0 -0.25926301305E+01  0.19603013021E+00 -0.83856901367E+00  0.27319145406E+01  0.51100000000E-03 0. -1.
        -11    1    3    3    0    0 -0.13976546590E+02 -0.31375458292E+02  0.20590265481E+02  0.40046501351E+02  0.51100000000E-03 0.  1.
        -12    1    3    3    0    0 -0.49290466955E+01 -0.44865056813E+00  0.76935823611E+00  0.50088622215E+01  0.00000000000E+00 0.  1.
</event>
<event>
 7    1  0.2706925E-010  0.4778727E+02  0.7816164E-02  0.1312668E+00
        -11   -1    0    0    0    0  0.00000000000E+00  0.00000000000E+00  0.45593999997E+02  0.45594000000E+02  0.51100000000E-03 0.  1.
         11   -1    0    0    0    0 -0.00000000000E+00 -0.00000000000E+00 -0.45593999997E+02  0.45594000000E+02  0.51100000000E-03 0. -1.
    9900012    2    1    2    0    0 -0.19151154463E+02 -0.31924124287E+02  0.22309341409E+02  0.47787272553E+02  0.20000006880E+02 0.  0.
         12    1    1    2    0    0  0.19151154463E+02  0.31924124287E+02 -0.22309341409E+02  0.43400727447E+02  0.00000000000E+00 0. -1.
         11    1    3    3    0    0  0.86035788672E+00 -0.40125763345E+01  0.39250531600E+01  0.56786465908E+01  0.51100000000E-03 0. -1.
        -11    1    3    3    0    0 -0.93216178499E+01 -0.23469917985E+02  0.78188791497E+01  0.26436045109E+02  0.51100000000E-03 0.  1.
        -12    1    3    3    0    0 -0.10689894500E+02 -0.44416299679E+01  0.10565409099E+02  0.15672580854E+02  0.00000000000E+00 0.  1.
</event>
<event>
 7    1  0.2706925E-010  0.4778727E+02  0.7816164E-02  0.1312668E+00
        -11   -1    0    0    0    0  0.00000000000E+00  0.00000000000E+00  0.45593999997E+02  0.45594000000E+02  0.51100000000E-03 0.  1.
         11   -1    0    0    0    0 -0.00000000000E+00 -0.00000000000E+00 -0.45593999997E+02  0.45594000000E+02  0.51100000000E-03 0. -1.
    9900012    2    1    2    0    0  0.20394413145E+01 -0.37190424291E+02  0.22278606366E+02  0.47787270957E+02  0.19999999604E+02 0.  0.
         12    1    1    2    0    0 -0.20394413145E+01  0.37190424291E+02 -0.22278606366E+02  0.43400729043E+02  0.00000000000E+00 0. -1.
         11    1    3    3    0    0 -0.77365901395E+01 -0.70504517853E+01  0.42564714387E+01  0.11299612681E+02  0.51100000000E-03 0. -1.
        -11    1    3    3    0    0  0.14569075659E+01 -0.66131351228E+01  0.38894202000E+01  0.78092077422E+01  0.51100000000E-03 0.  1.
         12    1    3    3    0    0  0.83191238881E+01 -0.23526837383E+02  0.14132714727E+02  0.28678450535E+02  0.00000000000E+00 0. -1.
</event>
<event>
 7    1  0.2706925E-010  0.4778727E+02  0.7816164E-02  0.1312668E+00
        -11   -1    0    0    0    0  0.00000000000E+00  0.00000000000E+00  0.45593999997E+02  0.45594000000E+02  0.51100000000E-03 0.  1.
         11   -1    0    0    0    0 -0.00000000000E+00 -0.00000000000E+00 -0.45593999997E+02  0.45594000000E+02  0.51100000000E-03 0. -1.
    9900012    2    1    2    0    0  0.19403771267E+02 -0.35234810301E+02  0.16298000045E+02  0.47787274179E+02  0.20000014291E+02 0.  0.
         12    1    1    2    0    0 -0.19403771267E+02  0.35234810301E+02 -0.16298000045E+02  0.43400725821E+02  0.00000000000E+00 0. -1.
         11    1    3    3    0    0  0.17218083059E+02 -0.31742972036E+02  0.19986263024E+02  0.41273833936E+02  0.51100000000E-03 0. -1.
        -11    1    3    3    0    0  0.16928951654E+00 -0.27216852733E+01 -0.33644871840E+01  0.43308202387E+01  0.51100000000E-03 0.  1.
         12    1    3    3    0    0  0.20163986918E+01 -0.77015299205E+00 -0.32377579505E+00  0.21826200038E+01  0.00000000000E+00 0. -1.
</event>
<event>
 7    1  0.2706925E-010  0.4778727E+02  0.7816164E-02  0.1312668E+00
        -11   -1    0    0    0    0  0.00000000000E+00  0.00000000000E+00  0.45593999997E+02  0.45594000000E+02  0.51100000000E-03 0.  1.
         11   -1    0    0    0    0 -0.00000000000E+00 -0.00000000000E+00 -0.45593999997E+02  0.45594000000E+02  0.51100000000E-03 0. -1.
    9900012    2    1    2    0    0 -0.30359672621E+02  0.29114419455E+02  0.10689432670E+02  0.47787272902E+02  0.20000008469E+02 0.  0.
         12    1    1    2    0    0  0.30359672621E+02 -0.29114419455E+02 -0.10689432670E+02  0.43400727098E+02  0.00000000000E+00 0. -1.
         11    1    3    3    0    0  0.10718159029E+01 -0.10583612905E+01 -0.19013041310E+00  0.15182449690E+01  0.51100000000E-03 0. -1.
        -11    1    3    3    0    0 -0.26979034747E+02  0.21397180137E+02  0.11765654715E+02  0.36388710678E+02  0.51100000000E-03 0.  1.
        -12    1    3    3    0    0 -0.44524537770E+01  0.87756006085E+01 -0.88609163167E+00  0.98803172548E+01  0.00000000000E+00 0.  1.
</event>
<event>
 7    1  0.2706925E-010  0.4778727E+02  0.7816164E-02  0.1312668E+00
        -11   -1    0    0    0    0  0.00000000000E+00  0.00000000000E+00  0.45593999997E+02  0.45594000000E+02  0.51100000000E-03 0.  1.
         11   -1    0    0    0    0 -0.00000000000E+00 -0.00000000000E+00 -0.45593999997E+02  0.45594000000E+02  0.51100000000E-03 0. -1.
    9900012    2    1    2    0    0 -0.33922598838E+02 -0.21164805201E+02  0.16879924278E+02  0.47787268039E+02  0.19999986299E+02 0.  0.
         12    1    1    2    0    0  0.33922598838E+02  0.21164805201E+02 -0.16879924278E+02  0.43400731961E+02  0.00000000000E+00 0. -1.
         11    1    3    3    0    0 -0.20208643794E+01  0.13578732685E+01 -0.22918568734E+01  0.33436986770E+01  0.51100000000E-03 0. -1.
        -11    1    3    3    0    0 -0.21541250885E+02 -0.19743921319E+02  0.12295747587E+02  0.31702260609E+02  0.51100000000E-03 0.  1.
        -12    1    3    3    0    0 -0.10360483573E+02 -0.27787571504E+01  0.68760335638E+01  0.12741308753E+02  0.00000000000E+00 0.  1.
</event>
<event>
 7    1  0.2706925E-010  0.4778727E+02  0.7816164E-02  0.1312668E+00
        -11   -1    0    0    0    0  0.00000000000E+00  0.00000000000E+00  0.45593999997E+02  0.45594000000E+02  0.51100000000E-03 0.  1.
         11   -1    0    0    0    0 -0.00000000000E+00 -0.00000000000E+00 -0.45593999997E+02  0.45594000000E+02  0.51100000000E-03 0. -1.
    9900012    2    1    2    0    0 -0.63518935818E+01  0.27442257688E+02  0.33018172742E+02  0.47787265095E+02  0.19999972874E+02 0.  0.
         12    1    1    2    0    0  0.63518935818E+01 -0.27442257688E+02 -0.33018172742E+02  0.43400734905E+02  0.00000000000E+00 0. -1.
         11    1    3    3    0    0  0.16835769891E+01  0.76920251767E+01  0.31487926997E+01  0.84803642919E+01  0.51100000000E-03 0. -1.
        -11    1    3    3    0    0 -0.66033134113E+01  0.10999157591E+02  0.27155490340E+02  0.30033412587E+02  0.51100000000E-03 0.  1.
        -12    1    3    3    0    0 -0.14321571596E+01  0.87510749196E+01  0.27138897020E+01  0.92734882161E+01  0.00000000000E+00 0.  1.
</event>
<event>
 7    1  0.2706925E-010  0.4778726E+02  0.7816164E-02  0.1312668E+00
        -11   -1    0    0    0    0  0.00000000000E+00  0.00000000000E+00  0.45593999997E+02  0.45594000000E+02  0.51100000000E-03 0.  1.
         11   -1    0    0    0    0 -0.00000000000E+00 -0.00000000000E+00 -0.45593999997E+02  0.45594000000E+02  0.51100000000E-03 0. -1.
    9900012    2    1    2    0    0 -0.42155437824E+02 -0.10161024043E+02  0.18158018847E+01  0.47787257101E+02  0.19999936424E+02 0.  0.
         12    1    1    2    0    0  0.42155437824E+02  0.10161024043E+02 -0.18158018847E+01  0.43400742899E+02  0.00000000000E+00 0. -1.
         11    1    3    3    0    0 -0.10525272179E+02  0.13172097231E+01 -0.19450025091E+01  0.10784221387E+02  0.51100000000E-03 0. -1.
        -11    1    3    3    0    0 -0.13172510722E+02  0.14370160093E+01  0.56321007354E+01  0.14397937793E+02  0.51100000000E-03 0.  1.
        -12    1    3    3    0    0 -0.18457654923E+02 -0.12915249775E+02 -0.18712963415E+01  0.22605097921E+02  0.00000000000E+00 0.  1.
</event>
<event>
 7    1  0.2706925E-010  0.4778727E+02  0.7816164E-02  0.1312668E+00
        -11   -1    0    0    0    0  0.00000000000E+00  0.00000000000E+00  0.45593999997E+02  0.45594000000E+02  0.51100000000E-03 0.  1.
         11   -1    0    0    0    0 -0.00000000000E+00 -0.00000000000E+00 -0.45593999997E+02  0.45594000000E+02  0.51100000000E-03 0. -1.
    9900012    2    1    2    0    0 -0.22183053781E+02  0.80173239126E+01  0.36431553925E+02  0.47787268680E+02  0.19999989218E+02 0.  0.
         12    1    1    2    0    0  0.22183053781E+02 -0.80173239126E+01 -0.36431553925E+02  0.43400731320E+02  0.00000000000E+00 0. -1.
         11    1    3    3    0    0 -0.17456828912E+02 -0.19805241065E+01  0.13952074249E+02  0.22434877480E+02  0.51100000000E-03 0. -1.
        -11    1    3    3    0    0 -0.46992549979E+01  0.55957126730E+01  0.14602003214E+02  0.16328303524E+02  0.51100000000E-03 0.  1.
         12    1    3    3    0    0 -0.26969870579E-01  0.44021353461E+01  0.78774764617E+01  0.90240876760E+01  0.00000000000E+00 0. -1.
</event>
<event>
 7    1  0.2706925E-010  0.4778727E+02  0.7816164E-02  0.1312668E+00
        -11   -1    0    0    0    0  0.00000000000E+00  0.00000000000E+00  0.45593999997E+02  0.45594000000E+02  0.51100000000E-03 0. -1.
         11   -1    0    0    0    0 -0.00000000000E+00 -0.00000000000E+00 -0.45593999997E+02  0.45594000000E+02  0.51100000000E-03 0.  1.
    9900012    2    1    2    0    0 -0.34367565121E+02  0.26159228585E+02 -0.42648089483E+01  0.47787269962E+02  0.19999995063E+02 0.  0.
         12    1    1    2    0    0  0.34367565121E+02 -0.26159228585E+02  0.42648089483E+01  0.43400730038E+02  0.00000000000E+00 0. -1.
         11    1    3    3    0    0 -0.23167409284E-01 -0.94249939044E+00  0.17252977438E+01  0.19660860601E+01  0.51100000000E-03 0. -1.
        -11    1    3    3    0    0 -0.27655244253E+02  0.23668903651E+02 -0.31686493417E+00  0.36402334243E+02  0.51100000000E-03 0.  1.
        -12    1    3    3    0    0 -0.66891534591E+01  0.34328243239E+01 -0.56732417579E+01  0.94188496581E+01  0.00000000000E+00 0.  1.
</event>
<event>
 7    1  0.2706925E-010  0.4778727E+02  0.7816164E-02  0.1312668E+00
        -11   -1    0    0    0    0  0.00000000000E+00  0.00000000000E+00  0.45593999997E+02  0.45594000000E+02  0.51100000000E-03 0.  1.
         11   -1    0    0    0    0 -0.00000000000E+00 -0.00000000000E+00 -0.45593999997E+02  0.45594000000E+02  0.51100000000E-03 0. -1.
    9900012    2    1    2    0    0 -0.29927989619E+02  0.83781769528E+01  0.30294304261E+02  0.47787270947E+02  0.19999999556E+02 0.  0.
         12    1    1    2    0    0  0.29927989619E+02 -0.83781769528E+01 -0.30294304261E+02  0.43400729053E+02  0.00000000000E+00 0. -1.
         11    1    3    3    0    0 -0.10294779049E+02 -0.16279931273E+01  0.15774386957E+02  0.18906721593E+02  0.51100000000E-03 0.  1.
        -11    1    3    3    0    0 -0.43912476526E+01  0.85835331076E+01  0.51200775273E+01  0.10916743594E+02  0.51100000000E-03 0. -1.
        -12    1    3    3    0    0 -0.15241962918E+02  0.14226369725E+01  0.93998397764E+01  0.17963805759E+02  0.00000000000E+00 0.  1.
</event>
<event>
 7    1  0.2706925E-010  0.4778727E+02  0.7816164E-02  0.1312668E+00
        -11   -1    0    0    0    0  0.00000000000E+00  0.00000000000E+00  0.45593999997E+02  0.45594000000E+02  0.51100000000E-03 0.  1.
         11   -1    0    0    0    0 -0.00000000000E+00 -0.00000000000E+00 -0.45593999997E+02  0.45594000000E+02  0.51100000000E-03 0. -1.
    9900012    2    1    2    0    0 -0.26315892488E+02  0.23787389407E+02  0.25005141212E+02  0.47787272134E+02  0.20000004968E+02 0.  0.
         12    1    1    2    0    0  0.26315892488E+02 -0.23787389407E+02 -0.25005141212E+02  0.43400727866E+02  0.00000000000E+00 0. -1.
         11    1    3    3    0    0  0.20526963914E+01  0.56836978937E+00  0.43924309699E+01  0.48816039146E+01  0.51100000000E-03 0. -1.
        -11    1    3    3    0    0 -0.21264243870E+01 -0.23134374673E+00  0.26117632412E+01  0.33758714567E+01  0.51100000000E-03 0.  1.
         12    1    3    3    0    0 -0.26242164493E+02  0.23450363364E+02  0.18000947001E+02  0.39529796763E+02  0.00000000000E+00 0. -1.
</event>
<event>
 7    1  0.2706925E-010  0.4778728E+02  0.7816164E-02  0.1312668E+00
        -11   -1    0    0    0    0  0.00000000000E+00  0.00000000000E+00  0.45593999997E+02  0.45594000000E+02  0.51100000000E-03 0.  1.
         11   -1    0    0    0    0 -0.00000000000E+00 -0.00000000000E+00 -0.45593999997E+02  0.45594000000E+02  0.51100000000E-03 0. -1.
    9900012    2    1    2    0    0  0.23395865945E+02  0.27482784252E+02 -0.24102954477E+02  0.47787281249E+02  0.20000046527E+02 0.  0.
         12    1    1    2    0    0 -0.23395865945E+02 -0.27482784252E+02  0.24102954477E+02  0.43400718751E+02  0.00000000000E+00 0. -1.
         11    1    3    3    0    0  0.16280154130E+02  0.83670552995E+01 -0.89098121115E+01  0.20357695965E+02  0.51100000000E-03 0. -1.
        -11    1    3    3    0    0  0.77437256751E+01  0.17990298266E+02 -0.98313938925E+01  0.21915118644E+02  0.51100000000E-03 0.  1.
         12    1    3    3    0    0 -0.62801385969E+00  0.11254306863E+01 -0.53617484732E+01  0.55144666403E+01  0.00000000000E+00 0. -1.
</event>
<event>
 7    1  0.2706925E-010  0.4778727E+02  0.7816164E-02  0.1312668E+00
        -11   -1    0    0    0    0  0.00000000000E+00  0.00000000000E+00  0.45593999997E+02  0.45594000000E+02  0.51100000000E-03 0.  1.
         11   -1    0    0    0    0 -0.00000000000E+00 -0.00000000000E+00 -0.45593999997E+02  0.45594000000E+02  0.51100000000E-03 0. -1.
    9900012    2    1    2    0    0  0.28223769248E+02 -0.21099106086E+02  0.25335151635E+02  0.47787270322E+02  0.19999996705E+02 0.  0.
         12    1    1    2    0    0 -0.28223769248E+02  0.21099106086E+02 -0.25335151635E+02  0.43400729678E+02  0.00000000000E+00 0. -1.
         11    1    3    3    0    0  0.68520033835E+01 -0.20232259785E+01  0.69184033579E+01  0.99452349902E+01  0.51100000000E-03 0. -1.
        -11    1    3    3    0    0  0.57383259889E+01  0.10391571942E+01 -0.86037956845E+00  0.58947846519E+01  0.51100000000E-03 0.  1.
        -12    1    3    3    0    0  0.15633439876E+02 -0.20115037302E+02  0.19277127846E+02  0.31947250680E+02  0.00000000000E+00 0.  1.
</event>
<event>
 7    1  0.2706925E-010  0.4778727E+02  0.7816164E-02  0.1312668E+00
        -11   -1    0    0    0    0  0.00000000000E+00  0.00000000000E+00  0.45593999997E+02  0.45594000000E+02  0.51100000000E-03 0.  1.
         11   -1    0    0    0    0 -0.00000000000E+00 -0.00000000000E+00 -0.45593999997E+02  0.45594000000E+02  0.51100000000E-03 0. -1.
    9900012    2    1    2    0    0 -0.35350668583E+02 -0.61636661104E+00  0.25170882515E+02  0.47787274158E+02  0.20000014195E+02 0.  0.
         12    1    1    2    0    0  0.35350668583E+02  0.61636661104E+00 -0.25170882515E+02  0.43400725842E+02  0.00000000000E+00 0. -1.
         11    1    3    3    0    0 -0.91575870563E+01  0.37304684540E+01  0.33246892764E+00  0.98938532145E+01  0.51100000000E-03 0. -1.
        -11    1    3    3    0    0 -0.25558119287E+02 -0.14031600011E+01  0.21916372155E+02  0.33697383996E+02  0.51100000000E-03 0.  1.
         12    1    3    3    0    0 -0.63496223896E+00 -0.29436750640E+01  0.29220414328E+01  0.41960369472E+01  0.00000000000E+00 0. -1.
</event>
<event>
 7    1  0.2706925E-010  0.4778729E+02  0.7816164E-02  0.1312668E+00
        -11   -1    0    0    0    0  0.00000000000E+00  0.00000000000E+00  0.45593999997E+02  0.45594000000E+02  0.51100000000E-03 0.  1.
         11   -1    0    0    0    0 -0.00000000000E+00 -0.00000000000E+00 -0.45593999997E+02  0.45594000000E+02  0.51100000000E-03 0. -1.
    9900012    2    1    2    0    0  0.28582912887E+02 -0.24220228387E+02  0.21909345217E+02  0.47787288254E+02  0.20000078463E+02 0.  0.
         12    1    1    2    0    0 -0.28582912887E+02  0.24220228387E+02 -0.21909345217E+02  0.43400711746E+02  0.00000000000E+00 0. -1.
         11    1    3    3    0    0 -0.53084277430E+00 -0.73848845908E+00  0.33150031027E+00  0.96801444826E+00  0.51100000000E-03 0. -1.
        -11    1    3    3    0    0  0.54835229977E+00 -0.60798554714E+01  0.94292494433E+01  0.11232812565E+02  0.51100000000E-03 0.  1.
        -12    1    3    3    0    0  0.28565403362E+02 -0.17401884457E+02  0.12148595464E+02  0.35586461240E+02  0.00000000000E+00 0.  1.
</event>
<event>
 7    1  0.2706925E-010  0.4778727E+02  0.7816164E-02  0.1312668E+00
        -11   -1    0    0    0    0  0.00000000000E+00  0.00000000000E+00  0.45593999997E+02  0.45594000000E+02  0.51100000000E-03 0. -1.
         11   -1    0    0    0    0 -0.00000000000E+00 -0.00000000000E+00 -0.45593999997E+02  0.45594000000E+02  0.51100000000E-03 0.  1.
    9900012    2    1    2    0    0  0.38759409398E+02  0.11652742488E+02 -0.15669881773E+02  0.47787269371E+02  0.19999992369E+02 0.  0.
         12    1    1    2    0    0 -0.38759409398E+02 -0.11652742488E+02  0.15669881773E+02  0.43400730629E+02  0.00000000000E+00 0. -1.
         11    1    3    3    0    0  0.52880148680E+01 -0.15350677534E+01  0.18550493648E+01  0.58103995266E+01  0.51100000000E-03 0. -1.
        -11    1    3    3    0    0  0.14298684383E+02  0.12129134587E+02 -0.10759730679E+02  0.21618049992E+02  0.51100000000E-03 0.  1.
        -12    1    3    3    0    0  0.19172710147E+02  0.10586756544E+01 -0.67652004583E+01  0.20358819852E+02  0.00000000000E+00 0.  1.
</event>
<event>
 7    1  0.2706925E-010  0.4778727E+02  0.7816164E-02  0.1312668E+00
        -11   -1    0    0    0    0  0.00000000000E+00  0.00000000000E+00  0.45593999997E+02  0.45594000000E+02  0.51100000000E-03 0.  1.
         11   -1    0    0    0    0 -0.00000000000E+00 -0.00000000000E+00 -0.45593999997E+02  0.45594000000E+02  0.51100000000E-03 0. -1.
    9900012    2    1    2    0    0  0.41309343313E+02  0.12085757735E+02  0.55763458781E+01  0.47787273988E+02  0.20000013422E+02 0.  0.
         12    1    1    2    0    0 -0.41309343313E+02 -0.12085757735E+02 -0.55763458781E+01  0.43400726012E+02  0.00000000000E+00 0. -1.
         11    1    3    3    0    0  0.82155832878E+01  0.74471692056E+01  0.56391807517E+01  0.12440116468E+02  0.51100000000E-03 0. -1.
        -11    1    3    3    0    0  0.12830562942E+02 -0.38114988837E+01 -0.38519568864E+00  0.13390266806E+02  0.51100000000E-03 0.  1.
        -12    1    3    3    0    0  0.20263197083E+02  0.84500874128E+01  0.32236081494E+00  0.21956890714E+02  0.00000000000E+00 0.  1.
</event>
<event>
 7    1  0.2706925E-010  0.4778727E+02  0.7816164E-02  0.1312668E+00
        -11   -1    0    0    0    0  0.00000000000E+00  0.00000000000E+00  0.45593999997E+02  0.45594000000E+02  0.51100000000E-03 0.  1.
         11   -1    0    0    0    0 -0.00000000000E+00 -0.00000000000E+00 -0.45593999997E+02  0.45594000000E+02  0.51100000000E-03 0. -1.
    9900012    2    1    2    0    0  0.10775450745E+02 -0.21161481475E+02  0.36327742905E+02  0.47787267961E+02  0.19999985939E+02 0.  0.
         12    1    1    2    0    0 -0.10775450745E+02  0.21161481475E+02 -0.36327742905E+02  0.43400732039E+02  0.00000000000E+00 0. -1.
         11    1    3    3    0    0 -0.19555285423E+01 -0.10089877137E+02  0.49375928292E+01  0.11402172412E+02  0.51100000000E-03 0. -1.
        -11    1    3    3    0    0  0.41534474749E+01 -0.52430155498E+01  0.19461043584E+02  0.20578448814E+02  0.51100000000E-03 0.  1.
        -12    1    3    3    0    0  0.85775318128E+01 -0.58285887885E+01  0.11929106492E+02  0.15806646734E+02  0.00000000000E+00 0.  1.
</event>
<event>
 7    1  0.2706925E-010  0.4778727E+02  0.7816164E-02  0.1312668E+00
        -11   -1    0    0    0    0  0.00000000000E+00  0.00000000000E+00  0.45593999997E+02  0.45594000000E+02  0.51100000000E-03 0.  1.
         11   -1    0    0    0    0 -0.00000000000E+00 -0.00000000000E+00 -0.45593999997E+02  0.45594000000E+02  0.51100000000E-03 0. -1.
    9900012    2    1    2    0    0 -0.30131785527E+02 -0.30773188095E+02  0.53581614718E+01  0.47787268451E+02  0.19999988176E+02 0.  0.
         12    1    1    2    0    0  0.30131785527E+02  0.30773188095E+02 -0.53581614718E+01  0.43400731549E+02  0.00000000000E+00 0. -1.
         11    1    3    3    0    0 -0.50610486801E+01 -0.69118185224E+00 -0.42758520572E+01  0.66614455767E+01  0.51100000000E-03 0. -1.
        -11    1    3    3    0    0 -0.15715787326E+02 -0.19353060238E+02  0.20958225597E+01  0.25018380929E+02  0.51100000000E-03 0.  1.
         12    1    3    3    0    0 -0.93549495215E+01 -0.10728946005E+02  0.75381909693E+01  0.16107441945E+02  0.00000000000E+00 0. -1.
</event>
<event>
 7    1  0.2706925E-010  0.4778727E+02  0.7816164E-02  0.1312668E+00
        -11   -1    0    0    0    0  0.00000000000E+00  0.00000000000E+00  0.45593999997E+02  0.45594000000E+02  0.51100000000E-03 0.  1.
         11   -1    0    0    0    0 -0.00000000000E+00 -0.00000000000E+00 -0.45593999997E+02  0.45594000000E+02  0.51100000000E-03 0. -1.
    9900012    2    1    2    0    0 -0.18708950548E+02  0.28898350593E+02  0.26428840666E+02  0.47787272857E+02  0.20000008263E+02 0.  0.
         12    1    1    2    0    0  0.18708950548E+02 -0.28898350593E+02 -0.26428840666E+02  0.43400727143E+02  0.00000000000E+00 0. -1.
         11    1    3    3    0    0 -0.14010894976E+01 -0.46908524273E+00 -0.20530287853E+01  0.25294308054E+01  0.51100000000E-03 0. -1.
        -11    1    3    3    0    0 -0.90725293264E+01  0.14939660626E+02  0.20144802184E+02  0.26670532490E+02  0.51100000000E-03 0.  1.
         12    1    3    3    0    0 -0.82353317243E+01  0.14427775210E+02  0.83370672673E+01  0.18587309561E+02  0.00000000000E+00 0. -1.
</event>
<event>
 7    1  0.2706925E-010  0.4778727E+02  0.7816164E-02  0.1312668E+00
        -11   -1    0    0    0    0  0.00000000000E+00  0.00000000000E+00  0.45593999997E+02  0.45594000000E+02  0.51100000000E-03 0. -1.
         11   -1    0    0    0    0 -0.00000000000E+00 -0.00000000000E+00 -0.45593999997E+02  0.45594000000E+02  0.51100000000E-03 0.  1.
    9900012    2    1    2    0    0  0.33904936988E+02  0.13724819750E+02 -0.23360390760E+02  0.47787270907E+02  0.19999999375E+02 0.  0.
         12    1    1    2    0    0 -0.33904936988E+02 -0.13724819750E+02  0.23360390760E+02  0.43400729093E+02  0.00000000000E+00 0. -1.
         11    1    3    3    0    0 -0.21940340964E+01  0.22201793031E+01 -0.35774221951E+01  0.47477290968E+01  0.51100000000E-03 0. -1.
        -11    1    3    3    0    0  0.19834757891E+02  0.53014137024E+01 -0.80775432605E+01  0.22062849164E+02  0.51100000000E-03 0.  1.
         12    1    3    3    0    0  0.16264213193E+02  0.62032267450E+01 -0.11705425304E+02  0.20976692646E+02  0.00000000000E+00 0. -1.
</event>
<event>
 7    1  0.2706925E-010  0.4778727E+02  0.7816164E-02  0.1312668E+00
        -11   -1    0    0    0    0  0.00000000000E+00  0.00000000000E+00  0.45593999997E+02  0.45594000000E+02  0.51100000000E-03 0.  1.
         11   -1    0    0    0    0 -0.00000000000E+00 -0.00000000000E+00 -0.45593999997E+02  0.45594000000E+02  0.51100000000E-03 0. -1.
    9900012    2    1    2    0    0 -0.22656430585E+02 -0.33738979409E+02  0.15231242039E+02  0.47787270600E+02  0.19999997972E+02 0.  0.
         12    1    1    2    0    0  0.22656430585E+02  0.33738979409E+02 -0.15231242039E+02  0.43400729400E+02  0.00000000000E+00 0. -1.
         11    1    3    3    0    0 -0.35916864796E+01 -0.88182599120E+01 -0.45891194648E+01  0.10569859856E+02  0.51100000000E-03 0. -1.
        -11    1    3    3    0    0 -0.13396918711E+02 -0.17125182027E+02  0.12208006965E+02  0.24935611577E+02  0.51100000000E-03 0.  1.
         12    1    3    3    0    0 -0.56678253952E+01 -0.77955374697E+01  0.76123545389E+01  0.12281799167E+02  0.00000000000E+00 0. -1.
</event>
<event>
 7    1  0.2706925E-010  0.4778727E+02  0.7816164E-02  0.1312668E+00
        -11   -1    0    0    0    0  0.00000000000E+00  0.00000000000E+00  0.45593999997E+02  0.45594000000E+02  0.51100000000E-03 0.  1.
         11   -1    0    0    0    0 -0.00000000000E+00 -0.00000000000E+00 -0.45593999997E+02  0.45594000000E+02  0.51100000000E-03 0. -1.
    9900012    2    1    2    0    0  0.22236496314E+02  0.21651455150E+02  0.30337700890E+02  0.47787269894E+02  0.19999994757E+02 0.  0.
         12    1    1    2    0    0 -0.22236496314E+02 -0.21651455150E+02 -0.30337700890E+02  0.43400730106E+02  0.00000000000E+00 0. -1.
         11    1    3    3    0    0  0.15980942848E+02  0.99592366924E+01  0.96136685918E+01  0.21142363961E+02  0.51100000000E-03 0.  1.
        -11    1    3    3    0    0 -0.57297378960E+00  0.95831540276E+01  0.11858045992E+02  0.15257076885E+02  0.51100000000E-03 0. -1.
        -12    1    3    3    0    0  0.68285272552E+01  0.21090644299E+01  0.88659863061E+01  0.11387829048E+02  0.00000000000E+00 0.  1.
</event>
<event>
 7    1  0.2706925E-010  0.4778727E+02  0.7816164E-02  0.1312668E+00
        -11   -1    0    0    0    0  0.00000000000E+00  0.00000000000E+00  0.45593999997E+02  0.45594000000E+02  0.51100000000E-03 0. -1.
         11   -1    0    0    0    0 -0.00000000000E+00 -0.00000000000E+00 -0.45593999997E+02  0.45594000000E+02  0.51100000000E-03 0.  1.
    9900012    2    1    2    0    0  0.35637624989E+02  0.20521025754E+02 -0.13873368066E+02  0.47787272421E+02  0.20000006276E+02 0.  0.
         12    1    1    2    0    0 -0.35637624989E+02 -0.20521025754E+02  0.13873368066E+02  0.43400727579E+02  0.00000000000E+00 0. -1.
         11    1    3    3    0    0  0.80856189970E-01 -0.23171394739E+01 -0.34554067889E+01  0.41611908635E+01  0.51100000000E-03 0. -1.
        -11    1    3    3    0    0  0.16376379795E+02  0.12208681194E+02 -0.45827015165E+01  0.20934155468E+02  0.51100000000E-03 0.  1.
         12    1    3    3    0    0  0.19180389004E+02  0.10629484034E+02 -0.58352597611E+01  0.22691926090E+02  0.00000000000E+00 0. -1.
</event>
<event>
 7    1  0.2706925E-010  0.4778726E+02  0.7816164E-02  0.1312668E+00
        -11   -1    0    0    0    0  0.00000000000E+00  0.00000000000E+00  0.45593999997E+02  0.45594000000E+02  0.51100000000E-03 0. -1.
         11   -1    0    0    0    0 -0.00000000000E+00 -0.00000000000E+00 -0.45593999997E+02  0.45594000000E+02  0.51100000000E-03 0.  1.
    9900012    2    1    2    0    0  0.22599773818E+02  0.33056170781E+02 -0.16738101706E+02  0.47787259775E+02  0.19999948620E+02 0.  0.
         12    1    1    2    0    0 -0.22599773818E+02 -0.33056170781E+02  0.16738101706E+02  0.43400740225E+02  0.00000000000E+00 0. -1.
         11    1    3    3    0    0  0.97648812714E+01  0.52799402851E+01 -0.63579693666E+01  0.12792749915E+02  0.51100000000E-03 0. -1.
        -11    1    3    3    0    0 -0.62371388886E+00  0.14385924829E+02 -0.36852525570E+01  0.14863543954E+02  0.51100000000E-03 0.  1.
         12    1    3    3    0    0  0.13458606435E+02  0.13390305667E+02 -0.66948797825E+01  0.20130965906E+02  0.00000000000E+00 0. -1.
</event>
<event>
 7    1  0.2706925E-010  0.4778727E+02  0.7816164E-02  0.1312668E+00
        -11   -1    0    0    0    0  0.00000000000E+00  0.00000000000E+00  0.45593999997E+02  0.45594000000E+02  0.51100000000E-03 0. -1.
         11   -1    0    0    0    0 -0.00000000000E+00 -0.00000000000E+00 -0.45593999997E+02  0.45594000000E+02  0.51100000000E-03 0.  1.
    9900012    2    1    2    0    0  0.33818039194E+01 -0.30285718262E+02 -0.30902462976E+02  0.47787267905E+02  0.19999985686E+02 0.  0.
         12    1    1    2    0    0 -0.33818039194E+01  0.30285718262E+02  0.30902462976E+02  0.43400732095E+02  0.00000000000E+00 0. -1.
         11    1    3    3    0    0  0.23907714759E+01 -0.57314954919E+01  0.14979328509E+01  0.63882416916E+01  0.51100000000E-03 0. -1.
        -11    1    3    3    0    0 -0.12039627450E+01 -0.17592678480E+02 -0.27278859847E+02  0.32482119038E+02  0.51100000000E-03 0.  1.
        -12    1    3    3    0    0  0.21949951885E+01 -0.69615442902E+01 -0.51215359797E+01  0.89169071754E+01  0.00000000000E+00 0.  1.
</event>
<event>
 7    1  0.2706925E-010  0.4778728E+02  0.7816164E-02  0.1312668E+00
        -11   -1    0    0    0    0  0.00000000000E+00  0.00000000000E+00  0.45593999997E+02  0.45594000000E+02  0.51100000000E-03 0.  1.
         11   -1    0    0    0    0 -0.00000000000E+00 -0.00000000000E+00 -0.45593999997E+02  0.45594000000E+02  0.51100000000E-03 0. -1.
    9900012    2    1    2    0    0  0.10477898531E+02  0.17616935483E+02  0.38255458320E+02  0.47787275758E+02  0.20000021493E+02 0.  0.
         12    1    1    2    0    0 -0.10477898531E+02 -0.17616935483E+02 -0.38255458320E+02  0.43400724242E+02  0.00000000000E+00 0. -1.
         11    1    3    3    0    0  0.54267199227E+01  0.15624194801E+02  0.16392223683E+02  0.23286686107E+02  0.51100000000E-03 0. -1.
        -11    1    3    3    0    0  0.37020502992E+01 -0.28417097413E+01  0.47199174473E+01  0.66376284652E+01  0.51100000000E-03 0.  1.
        -12    1    3    3    0    0  0.13491283089E+01  0.48344504231E+01  0.17143317189E+02  0.17862961186E+02  0.00000000000E+00 0.  1.
</event>
<event>
 7    1  0.2706925E-010  0.4778727E+02  0.7816164E-02  0.1312668E+00
        -11   -1    0    0    0    0  0.00000000000E+00  0.00000000000E+00  0.45593999997E+02  0.45594000000E+02  0.51100000000E-03 0.  1.
         11   -1    0    0    0    0 -0.00000000000E+00 -0.00000000000E+00 -0.45593999997E+02  0.45594000000E+02  0.51100000000E-03 0. -1.
    9900012    2    1    2    0    0  0.39064797804E+02  0.11087225907E+02  0.15317905354E+02  0.47787271548E+02  0.20000002295E+02 0.  0.
         12    1    1    2    0    0 -0.39064797804E+02 -0.11087225907E+02 -0.15317905354E+02  0.43400728452E+02  0.00000000000E+00 0. -1.
         11    1    3    3    0    0  0.25109839256E+02  0.65976811631E+01  0.11502695068E+02  0.28396221901E+02  0.51100000000E-03 0.  1.
        -11    1    3    3    0    0 -0.80504415012E+00  0.20859041959E+01 -0.23245306242E+01  0.32252961541E+01  0.51100000000E-03 0. -1.
         12    1    3    3    0    0  0.14760002698E+02  0.24036405476E+01  0.61397409099E+01  0.16165753492E+02  0.00000000000E+00 0. -1.
</event>
<event>
 7    1  0.2706925E-010  0.4778727E+02  0.7816164E-02  0.1312668E+00
        -11   -1    0    0    0    0  0.00000000000E+00  0.00000000000E+00  0.45593999997E+02  0.45594000000E+02  0.51100000000E-03 0. -1.
         11   -1    0    0    0    0 -0.00000000000E+00 -0.00000000000E+00 -0.45593999997E+02  0.45594000000E+02  0.51100000000E-03 0.  1.
    9900012    2    1    2    0    0 -0.16899993477E+02  0.78709947146E+01 -0.39192615539E+02  0.47787269014E+02  0.19999990744E+02 0.  0.
         12    1    1    2    0    0  0.16899993477E+02 -0.78709947146E+01  0.39192615539E+02  0.43400730986E+02  0.00000000000E+00 0. -1.
         11    1    3    3    0    0 -0.28149095961E+01  0.75714236568E+00  0.16021106113E+01  0.33262199669E+01  0.51100000000E-03 0. -1.
        -11    1    3    3    0    0 -0.10464341725E+02  0.86942479752E+01 -0.29252697909E+02  0.32261629388E+02  0.51100000000E-03 0.  1.
        -12    1    3    3    0    0 -0.36207421559E+01 -0.15803956263E+01 -0.11542028241E+02  0.12199419659E+02  0.00000000000E+00 0.  1.
</event>
<event>
 7    1  0.2706925E-010  0.4778727E+02  0.7816164E-02  0.1312668E+00
        -11   -1    0    0    0    0  0.00000000000E+00  0.00000000000E+00  0.45593999997E+02  0.45594000000E+02  0.51100000000E-03 0.  1.
         11   -1    0    0    0    0 -0.00000000000E+00 -0.00000000000E+00 -0.45593999997E+02  0.45594000000E+02  0.51100000000E-03 0. -1.
    9900012    2    1    2    0    0  0.22738187550E+02 -0.38220518848E+01  0.36769419022E+02  0.47787269259E+02  0.19999991858E+02 0.  0.
         12    1    1    2    0    0 -0.22738187550E+02  0.38220518848E+01 -0.36769419022E+02  0.43400730741E+02  0.00000000000E+00 0. -1.
         11    1    3    3    0    0  0.21215213688E+01  0.50775831937E+01  0.42430619421E+01  0.69488329173E+01  0.51100000000E-03 0. -1.
        -11    1    3    3    0    0  0.21594166006E+02 -0.93056487081E+01  0.30135074519E+02  0.38223367459E+02  0.51100000000E-03 0.  1.
        -12    1    3    3    0    0 -0.97749982474E+00  0.40601362961E+00  0.23912825612E+01  0.26150688829E+01  0.00000000000E+00 0.  1.
</event>
<event>
 7    1  0.2706925E-010  0.4778727E+02  0.7816164E-02  0.1312668E+00
        -11   -1    0    0    0    0  0.00000000000E+00  0.00000000000E+00  0.45593999997E+02  0.45594000000E+02  0.51100000000E-03 0.  1.
         11   -1    0    0    0    0 -0.00000000000E+00 -0.00000000000E+00 -0.45593999997E+02  0.45594000000E+02  0.51100000000E-03 0. -1.
    9900012    2    1    2    0    0  0.23605193486E+02  0.25270966251E+02  0.26225868356E+02  0.47787273442E+02  0.20000010930E+02 0.  0.
         12    1    1    2    0    0 -0.23605193486E+02 -0.25270966251E+02 -0.26225868356E+02  0.43400726558E+02  0.00000000000E+00 0. -1.
         11    1    3    3    0    0 -0.22095603642E+01  0.50426941831E+01  0.46109723522E+01  0.71813639319E+01  0.51100000000E-03 0. -1.
        -11    1    3    3    0    0  0.26135128729E+02  0.18031404417E+02  0.21569848953E+02  0.38385347244E+02  0.51100000000E-03 0.  1.
        -12    1    3    3    0    0 -0.32037487902E+00  0.21968676512E+01  0.45047050887E-01  0.22205622659E+01  0.00000000000E+00 0.  1.
</event>
<event>
 7    1  0.2706925E-010  0.4778727E+02  0.7816164E-02  0.1312668E+00
        -11   -1    0    0    0    0  0.00000000000E+00  0.00000000000E+00  0.45593999997E+02  0.45594000000E+02  0.51100000000E-03 0.  1.
         11   -1    0    0    0    0 -0.00000000000E+00 -0.00000000000E+00 -0.45593999997E+02  0.45594000000E+02  0.51100000000E-03 0. -1.
    9900012    2    1    2    0    0  0.79577778991E+01 -0.27966291719E+02  0.32220857455E+02  0.47787270090E+02  0.19999995646E+02 0.  0.
         12    1    1    2    0    0 -0.79577778991E+01  0.27966291719E+02 -0.32220857455E+02  0.43400729910E+02  0.00000000000E+00 0. -1.
         11    1    3    3    0    0 -0.46111175602E+01 -0.11154570376E+02  0.13581552642E+02  0.18169904178E+02  0.51100000000E-03 0. -1.
        -11    1    3    3    0    0  0.11279340514E+02 -0.74763077508E+01  0.12033784641E+02  0.18108856205E+02  0.51100000000E-03 0.  1.
        -12    1    3    3    0    0  0.12895549449E+01 -0.93354135926E+01  0.66055201726E+01  0.11508509706E+02  0.00000000000E+00 0.  1.
</event>
<event>
 7    1  0.2706925E-010  0.4778726E+02  0.7816164E-02  0.1312668E+00
        -11   -1    0    0    0    0  0.00000000000E+00  0.00000000000E+00  0.45593999997E+02  0.45594000000E+02  0.51100000000E-03 0.  1.
         11   -1    0    0    0    0 -0.00000000000E+00 -0.00000000000E+00 -0.45593999997E+02  0.45594000000E+02  0.51100000000E-03 0. -1.
    9900012    2    1    2    0    0 -0.13264271784E+02  0.16134861433E+01  0.41292611933E+02  0.47787262175E+02  0.19999959562E+02 0.  0.
         12    1    1    2    0    0  0.13264271784E+02 -0.16134861433E+01 -0.41292611933E+02  0.43400737825E+02  0.00000000000E+00 0. -1.
         11    1    3    3    0    0 -0.27894435681E+01  0.27392827434E+01  0.24165777135E+01  0.45961411504E+01  0.51100000000E-03 0. -1.
        -11    1    3    3    0    0  0.24085643932E+01 -0.44574114267E+01  0.69320226786E+01  0.85861887786E+01  0.51100000000E-03 0.  1.
        -12    1    3    3    0    0 -0.12883392609E+02  0.33316148266E+01  0.31944011541E+02  0.34604932246E+02  0.00000000000E+00 0.  1.
</event>
<event>
 7    1  0.2706925E-010  0.4778721E+02  0.7816164E-02  0.1312668E+00
        -11   -1    0    0    0    0  0.00000000000E+00  0.00000000000E+00  0.45593999997E+02  0.45594000000E+02  0.51100000000E-03 0. -1.
         11   -1    0    0    0    0 -0.00000000000E+00 -0.00000000000E+00 -0.45593999997E+02  0.45594000000E+02  0.51100000000E-03 0.  1.
    9900012    2    1    2    0    0  0.92266925992E+01 -0.39423582558E+02  0.15629385354E+02  0.47787211936E+02  0.19999730501E+02 0.  0.
         12    1    1    2    0    0 -0.92266925992E+01  0.39423582558E+02 -0.15629385354E+02  0.43400788064E+02  0.00000000000E+00 0. -1.
         11    1    3    3    0    0 -0.45167322422E+00 -0.20393626798E+02  0.83069900570E+00  0.20415535354E+02  0.51100000000E-03 0. -1.
        -11    1    3    3    0    0  0.17907629293E+01 -0.12423645654E+02  0.98459889633E+01  0.15952971577E+02  0.51100000000E-03 0.  1.
         12    1    3    3    0    0  0.78876028941E+01 -0.66063101057E+01  0.49526973848E+01  0.11418705006E+02  0.00000000000E+00 0. -1.
</event>
<event>
 7    1  0.2706925E-010  0.4778728E+02  0.7816164E-02  0.1312668E+00
        -11   -1    0    0    0    0  0.00000000000E+00  0.00000000000E+00  0.45593999997E+02  0.45594000000E+02  0.51100000000E-03 0.  1.
         11   -1    0    0    0    0 -0.00000000000E+00 -0.00000000000E+00 -0.45593999997E+02  0.45594000000E+02  0.51100000000E-03 0. -1.
    9900012    2    1    2    0    0 -0.43296103924E+02  0.29967185971E+01 -0.29964462060E+00  0.47787277376E+02  0.20000028869E+02 0.  0.
         12    1    1    2    0    0  0.43296103924E+02 -0.29967185971E+01  0.29964462060E+00  0.43400722624E+02  0.00000000000E+00 0. -1.
         11    1    3    3    0    0 -0.13030554690E+02  0.78178911774E+01 -0.20418216866E+01  0.15332443186E+02  0.51100000000E-03 0. -1.
        -11    1    3    3    0    0 -0.29409175519E+02 -0.48863779198E+01  0.39621761879E+01  0.30074493085E+02  0.51100000000E-03 0.  1.
        -12    1    3    3    0    0 -0.85637371471E+00  0.65205339498E-01 -0.22199991219E+01  0.23803411051E+01  0.00000000000E+00 0.  1.
</event>
<event>
 7    1  0.2706925E-010  0.4778727E+02  0.7816164E-02  0.1312668E+00
        -11   -1    0    0    0    0  0.00000000000E+00  0.00000000000E+00  0.45593999997E+02  0.45594000000E+02  0.51100000000E-03 0.  1.
         11   -1    0    0    0    0 -0.00000000000E+00 -0.00000000000E+00 -0.45593999997E+02  0.45594000000E+02  0.51100000000E-03 0. -1.
    9900012    2    1    2    0    0 -0.24818924643E+02  0.28650817197E+02  0.21137054525E+02  0.47787269355E+02  0.19999992297E+02 0.  0.
         12    1    1    2    0    0  0.24818924643E+02 -0.28650817197E+02 -0.21137054525E+02  0.43400730645E+02  0.00000000000E+00 0. -1.
         11    1    3    3    0    0 -0.25721929038E+01  0.47219938401E+01 -0.11005026331E+00  0.53782444610E+01  0.51100000000E-03 0. -1.
        -11    1    3    3    0    0 -0.23139024114E+01 -0.75011790933E+00 -0.19431294823E+01  0.31132898505E+01  0.51100000000E-03 0.  1.
        -12    1    3    3    0    0 -0.19932829328E+02  0.24678941266E+02  0.23190234271E+02  0.39295735043E+02  0.00000000000E+00 0.  1.
</event>
<event>
 7    1  0.2706925E-010  0.4778727E+02  0.7816164E-02  0.1312668E+00
        -11   -1    0    0    0    0  0.00000000000E+00  0.00000000000E+00  0.45593999997E+02  0.45594000000E+02  0.51100000000E-03 0.  1.
         11   -1    0    0    0    0 -0.00000000000E+00 -0.00000000000E+00 -0.45593999997E+02  0.45594000000E+02  0.51100000000E-03 0. -1.
    9900012    2    1    2    0    0  0.73790453453E+01 -0.14960822502E+02  0.40066779306E+02  0.47787270466E+02  0.19999997361E+02 0.  0.
         12    1    1    2    0    0 -0.73790453453E+01  0.14960822502E+02 -0.40066779306E+02  0.43400729534E+02  0.00000000000E+00 0. -1.
         11    1    3    3    0    0  0.17335214038E+01 -0.10639551790E+01  0.19492334261E+01  0.28171986602E+01  0.51100000000E-03 0. -1.
        -11    1    3    3    0    0  0.11467832290E+02 -0.13580662199E+02  0.31337693539E+02  0.36027719881E+02  0.51100000000E-03 0.  1.
        -12    1    3    3    0    0 -0.58223083482E+01 -0.31620512415E+00  0.67798523408E+01  0.89423519247E+01  0.00000000000E+00 0.  1.
</event>
<event>
 7    1  0.2706925E-010  0.4778727E+02  0.7816164E-02  0.1312668E+00
        -11   -1    0    0    0    0  0.00000000000E+00  0.00000000000E+00  0.45593999997E+02  0.45594000000E+02  0.51100000000E-03 0.  1.
         11   -1    0    0    0    0 -0.00000000000E+00 -0.00000000000E+00 -0.45593999997E+02  0.45594000000E+02  0.51100000000E-03 0. -1.
    9900012    2    1    2    0    0 -0.40892475935E+01 -0.39828096731E+02  0.16751836149E+02  0.47787271326E+02  0.20000001282E+02 0.  0.
         12    1    1    2    0    0  0.40892475935E+01  0.39828096731E+02 -0.16751836149E+02  0.43400728674E+02  0.00000000000E+00 0. -1.
         11    1    3    3    0    0 -0.80310512506E+00 -0.26525081230E+02  0.18588610096E+02  0.32400020642E+02  0.51100000000E-03 0. -1.
        -11    1    3    3    0    0 -0.26469840285E+01 -0.41158458833E+01 -0.35164456386E+01  0.60259523706E+01  0.51100000000E-03 0.  1.
         12    1    3    3    0    0 -0.63915843993E+00 -0.91871696182E+01  0.16796716922E+01  0.93612983126E+01  0.00000000000E+00 0. -1.
</event>
<event>
 7    1  0.2706925E-010  0.4778727E+02  0.7816164E-02  0.1312668E+00
        -11   -1    0    0    0    0  0.00000000000E+00  0.00000000000E+00  0.45593999997E+02  0.45594000000E+02  0.51100000000E-03 0.  1.
         11   -1    0    0    0    0 -0.00000000000E+00 -0.00000000000E+00 -0.45593999997E+02  0.45594000000E+02  0.51100000000E-03 0. -1.
    9900012    2    1    2    0    0  0.30185768051E+02  0.11442082297E+02  0.29008997321E+02  0.47787265378E+02  0.19999974166E+02 0.  0.
         12    1    1    2    0    0 -0.30185768051E+02 -0.11442082297E+02 -0.29008997321E+02  0.43400734622E+02  0.00000000000E+00 0. -1.
         11    1    3    3    0    0  0.33541595766E+01 -0.22228594102E+01  0.74331064108E+01  0.84523701764E+01  0.51100000000E-03 0. -1.
        -11    1    3    3    0    0  0.64227724012E+01  0.10052625556E+02  0.56659391310E+01  0.13206443593E+02  0.51100000000E-03 0.  1.
        -12    1    3    3    0    0  0.20408836073E+02  0.36123161513E+01  0.15909951779E+02  0.26128451609E+02  0.00000000000E+00 0.  1.
</event>
<event>
 7    1  0.2706925E-010  0.4778727E+02  0.7816164E-02  0.1312668E+00
        -11   -1    0    0    0    0  0.00000000000E+00  0.00000000000E+00  0.45593999997E+02  0.45594000000E+02  0.51100000000E-03 0.  1.
         11   -1    0    0    0    0 -0.00000000000E+00 -0.00000000000E+00 -0.45593999997E+02  0.45594000000E+02  0.51100000000E-03 0. -1.
    9900012    2    1    2    0    0 -0.10203098111E+02 -0.14027276086E+02  0.39783860661E+02  0.47787271268E+02  0.20000001017E+02 0.  0.
         12    1    1    2    0    0  0.10203098111E+02  0.14027276086E+02 -0.39783860661E+02  0.43400728732E+02  0.00000000000E+00 0. -1.
         11    1    3    3    0    0 -0.37446308109E+01 -0.62643909847E+01  0.18190491331E+01  0.75215553132E+01  0.51100000000E-03 0. -1.
        -11    1    3    3    0    0 -0.60735484366E+01 -0.61795110714E+00  0.20567784185E+02  0.21454687151E+02  0.51100000000E-03 0.  1.
        -12    1    3    3    0    0 -0.38491886335E+00 -0.71449339937E+01  0.17397027342E+02  0.18811028804E+02  0.00000000000E+00 0.  1.
</event>
<event>
 7    1  0.2706925E-010  0.4778726E+02  0.7816164E-02  0.1312668E+00
        -11   -1    0    0    0    0  0.00000000000E+00  0.00000000000E+00  0.45593999997E+02  0.45594000000E+02  0.51100000000E-03 0.  1.
         11   -1    0    0    0    0 -0.00000000000E+00 -0.00000000000E+00 -0.45593999997E+02  0.45594000000E+02  0.51100000000E-03 0. -1.
    9900012    2    1    2    0    0 -0.27269100170E+01  0.59178152108E+00  0.43310943130E+02  0.47787262237E+02  0.19999959842E+02 0.  0.
         12    1    1    2    0    0  0.27269100170E+01 -0.59178152108E+00 -0.43310943130E+02  0.43400737763E+02  0.00000000000E+00 0. -1.
         11    1    3    3    0    0  0.91958921002E+00  0.57902456243E+00  0.18573010119E+00  0.11024562081E+01  0.51100000000E-03 0. -1.
        -11    1    3    3    0    0 -0.17979673333E+01  0.77833955221E+01  0.32045123385E+02  0.33025806052E+02  0.51100000000E-03 0.  1.
        -12    1    3    3    0    0 -0.18485318937E+01 -0.77706385634E+01  0.11080089644E+02  0.13658999976E+02  0.00000000000E+00 0.  1.
</event>
<event>
 7    1  0.2706925E-010  0.4778727E+02  0.7816164E-02  0.1312668E+00
        -11   -1    0    0    0    0  0.00000000000E+00  0.00000000000E+00  0.45593999997E+02  0.45594000000E+02  0.51100000000E-03 0.  1.
         11   -1    0    0    0    0 -0.00000000000E+00 -0.00000000000E+00 -0.45593999997E+02  0.45594000000E+02  0.51100000000E-03 0. -1.
    9900012    2    1    2    0    0 -0.19992764144E+02  0.24880715265E+01  0.38441155315E+02  0.47787267978E+02  0.19999986021E+02 0.  0.
         12    1    1    2    0    0  0.19992764144E+02 -0.24880715265E+01 -0.38441155315E+02  0.43400732022E+02  0.00000000000E+00 0. -1.
         11    1    3    3    0    0 -0.16943688619E+02  0.76921695177E+01  0.25268474362E+02  0.31380787956E+02  0.51100000000E-03 0. -1.
        -11    1    3    3    0    0  0.20141184608E+01  0.48051816133E+00  0.38411250738E+01  0.43636925844E+01  0.51100000000E-03 0.  1.
         12    1    3    3    0    0 -0.50631939855E+01 -0.56846161525E+01  0.93315558799E+01  0.12042787438E+02  0.00000000000E+00 0. -1.
</event>
<event>
 7    1  0.2706925E-010  0.4778727E+02  0.7816164E-02  0.1312668E+00
        -11   -1    0    0    0    0  0.00000000000E+00  0.00000000000E+00  0.45593999997E+02  0.45594000000E+02  0.51100000000E-03 0.  1.
         11   -1    0    0    0    0 -0.00000000000E+00 -0.00000000000E+00 -0.45593999997E+02  0.45594000000E+02  0.51100000000E-03 0. -1.
    9900012    2    1    2    0    0  0.17422496863E+01 -0.78768901929E+01  0.42644373351E+02  0.47787269458E+02  0.19999992767E+02 0.  0.
         12    1    1    2    0    0 -0.17422496863E+01  0.78768901929E+01 -0.42644373351E+02  0.43400730542E+02  0.00000000000E+00 0. -1.
         11    1    3    3    0    0  0.72186863013E+01 -0.40580011118E+01  0.94598689206E+01  0.12572427180E+02  0.51100000000E-03 0. -1.
        -11    1    3    3    0    0 -0.62365997496E+01 -0.60047316117E+01  0.30322704928E+02  0.31534400463E+02  0.51100000000E-03 0.  1.
        -12    1    3    3    0    0  0.76016313450E+00  0.21858425306E+01  0.28617995023E+01  0.36804418147E+01  0.00000000000E+00 0.  1.
</event>
<event>
 7    1  0.2706925E-010  0.4778729E+02  0.7816164E-02  0.1312668E+00
        -11   -1    0    0    0    0  0.00000000000E+00  0.00000000000E+00  0.45593999997E+02  0.45594000000E+02  0.51100000000E-03 0.  1.
         11   -1    0    0    0    0 -0.00000000000E+00 -0.00000000000E+00 -0.45593999997E+02  0.45594000000E+02  0.51100000000E-03 0. -1.
    9900012    2    1    2    0    0 -0.27876308921E+02 -0.26411342596E+02  0.20223106428E+02  0.47787289749E+02  0.20000085279E+02 0.  0.
         12    1    1    2    0    0  0.27876308921E+02  0.26411342596E+02 -0.20223106428E+02  0.43400710251E+02  0.00000000000E+00 0. -1.
         11    1    3    3    0    0 -0.48367885714E+01 -0.64828411764E+01  0.12477034973E+02  0.14869369703E+02  0.51100000000E-03 0.  1.
        -11    1    3    3    0    0 -0.87447132584E+01 -0.12468663687E+02  0.49296890644E+00  0.15237473633E+02  0.51100000000E-03 0. -1.
        -12    1    3    3    0    0 -0.14294807091E+02 -0.74598377324E+01  0.72531025483E+01  0.17680446412E+02  0.00000000000E+00 0.  1.
</event>
<event>
 7    1  0.2706925E-010  0.4778727E+02  0.7816164E-02  0.1312668E+00
        -11   -1    0    0    0    0  0.00000000000E+00  0.00000000000E+00  0.45593999997E+02  0.45594000000E+02  0.51100000000E-03 0.  1.
         11   -1    0    0    0    0 -0.00000000000E+00 -0.00000000000E+00 -0.45593999997E+02  0.45594000000E+02  0.51100000000E-03 0. -1.
    9900012    2    1    2    0    0 -0.28346838666E+01  0.87277220173E+01  0.42419508665E+02  0.47787270978E+02  0.19999999698E+02 0.  0.
         12    1    1    2    0    0  0.28346838666E+01 -0.87277220173E+01 -0.42419508665E+02  0.43400729022E+02  0.00000000000E+00 0. -1.
         11    1    3    3    0    0 -0.94162666341E+01  0.63611383271E+01  0.20281160177E+02  0.23247701317E+02  0.51100000000E-03 0. -1.
        -11    1    3    3    0    0  0.28812937003E+01 -0.21581987984E+01  0.14391711258E+02  0.14835128198E+02  0.51100000000E-03 0.  1.
         12    1    3    3    0    0  0.37002890672E+01  0.45247824886E+01  0.77466372297E+01  0.97044414635E+01  0.00000000000E+00 0. -1.
</event>
<event>
 7    1  0.2706925E-010  0.4778728E+02  0.7816164E-02  0.1312668E+00
        -11   -1    0    0    0    0  0.00000000000E+00  0.00000000000E+00  0.45593999997E+02  0.45594000000E+02  0.51100000000E-03 0.  1.
         11   -1    0    0    0    0 -0.00000000000E+00 -0.00000000000E+00 -0.45593999997E+02  0.45594000000E+02  0.51100000000E-03 0. -1.
    9900012    2    1    2    0    0  0.11006832939E+02  0.63871843941E+01  0.41493081362E+02  0.47787282302E+02  0.20000051326E+02 0.  0.
         12    1    1    2    0    0 -0.11006832939E+02 -0.63871843941E+01 -0.41493081362E+02  0.43400717698E+02  0.00000000000E+00 0. -1.
         11    1    3    3    0    0 -0.24748682395E+01 -0.41809520693E+01  0.41956614919E+01  0.64194165331E+01  0.51100000000E-03 0.  1.
        -11    1    3    3    0    0  0.89672870388E+01  0.58708082368E+01  0.17452859953E+02  0.20481234021E+02  0.51100000000E-03 0. -1.
         12    1    3    3    0    0  0.45144141401E+01  0.46973282266E+01  0.19844559916E+02  0.20886631748E+02  0.00000000000E+00 0. -1.
</event>
<event>
 7    1  0.2706925E-010  0.4778728E+02  0.7816164E-02  0.1312668E+00
        -11   -1    0    0    0    0  0.00000000000E+00  0.00000000000E+00  0.45593999997E+02  0.45594000000E+02  0.51100000000E-03 0.  1.
         11   -1    0    0    0    0 -0.00000000000E+00 -0.00000000000E+00 -0.45593999997E+02  0.45594000000E+02  0.51100000000E-03 0. -1.
    9900012    2    1    2    0    0 -0.32938513681E+02  0.14784994248E+02 -0.24084873747E+02  0.47787275560E+02  0.20000020590E+02 0.  0.
         12    1    1    2    0    0  0.32938513681E+02 -0.14784994248E+02  0.24084873747E+02  0.43400724440E+02  0.00000000000E+00 0. -1.
         11    1    3    3    0    0 -0.45414275880E+01  0.11070903101E+02 -0.97346351164E+01  0.15425711689E+02  0.51100000000E-03 0. -1.
        -11    1    3    3    0    0 -0.15482793847E+02  0.14588222162E+01 -0.52933286037E+01  0.16427549895E+02  0.51100000000E-03 0.  1.
         12    1    3    3    0    0 -0.12914292246E+02  0.22552689311E+01 -0.90569100272E+01  0.15934013977E+02  0.00000000000E+00 0. -1.
</event>
<event>
 7    1  0.2706925E-010  0.4778726E+02  0.7816164E-02  0.1312668E+00
        -11   -1    0    0    0    0  0.00000000000E+00  0.00000000000E+00  0.45593999997E+02  0.45594000000E+02  0.51100000000E-03 0. -1.
         11   -1    0    0    0    0 -0.00000000000E+00 -0.00000000000E+00 -0.45593999997E+02  0.45594000000E+02  0.51100000000E-03 0.  1.
    9900012    2    1    2    0    0  0.39758616606E+02  0.96068414493E+01 -0.14511556469E+02  0.47787259589E+02  0.19999947771E+02 0.  0.
         12    1    1    2    0    0 -0.39758616606E+02 -0.96068414493E+01  0.14511556469E+02  0.43400740411E+02  0.00000000000E+00 0. -1.
         11    1    3    3    0    0  0.23425898277E+02 -0.22906071259E+01 -0.79723771178E+01  0.24851124487E+02  0.51100000000E-03 0.  1.
        -11    1    3    3    0    0  0.31773899186E+01  0.73580685718E+01 -0.31600484812E+01  0.86152705394E+01  0.51100000000E-03 0. -1.
        -12    1    3    3    0    0  0.13155328410E+02  0.45393800035E+01 -0.33791308702E+01  0.14320864563E+02  0.00000000000E+00 0.  1.
</event>
<event>
 7    1  0.2706925E-010  0.4778721E+02  0.7816164E-02  0.1312668E+00
        -11   -1    0    0    0    0  0.00000000000E+00  0.00000000000E+00  0.45593999997E+02  0.45594000000E+02  0.51100000000E-03 0.  1.
         11   -1    0    0    0    0 -0.00000000000E+00 -0.00000000000E+00 -0.45593999997E+02  0.45594000000E+02  0.51100000000E-03 0. -1.
    9900012    2    1    2    0    0  0.50010818233E+01  0.15249899738E+02  0.40324410585E+02  0.47787212559E+02  0.19999733341E+02 0.  0.
         12    1    1    2    0    0 -0.50010818233E+01 -0.15249899738E+02 -0.40324410585E+02  0.43400787441E+02  0.00000000000E+00 0. -1.
         11    1    3    3    0    0  0.71537768274E+01 -0.22041061448E+01  0.15482924882E+02  0.17197545463E+02  0.51100000000E-03 0. -1.
        -11    1    3    3    0    0 -0.59594931032E-01  0.11524224497E+02  0.17002951244E+02  0.20540488141E+02  0.51100000000E-03 0.  1.
         12    1    3    3    0    0 -0.20931000732E+01  0.59297813860E+01  0.78385344598E+01  0.10049178955E+02  0.00000000000E+00 0. -1.
</event>
<event>
 7    1  0.2706925E-010  0.4778726E+02  0.7816164E-02  0.1312668E+00
        -11   -1    0    0    0    0  0.00000000000E+00  0.00000000000E+00  0.45593999997E+02  0.45594000000E+02  0.51100000000E-03 0.  1.
         11   -1    0    0    0    0 -0.00000000000E+00 -0.00000000000E+00 -0.45593999997E+02  0.45594000000E+02  0.51100000000E-03 0. -1.
    9900012    2    1    2    0    0  0.43125763490E+02 -0.45804284272E+01 -0.16769186966E+01  0.47787264321E+02  0.19999969345E+02 0.  0.
         12    1    1    2    0    0 -0.43125763490E+02  0.45804284272E+01  0.16769186966E+01  0.43400735679E+02  0.00000000000E+00 0. -1.
         11    1    3    3    0    0  0.13755688319E+02 -0.33354124138E+01 -0.31469200536E+01  0.14499898040E+02  0.51100000000E-03 0. -1.
        -11    1    3    3    0    0  0.23173146819E+02 -0.61538404929E+01  0.52191659258E+01  0.24537811221E+02  0.51100000000E-03 0.  1.
        -12    1    3    3    0    0  0.61969283525E+01  0.49088244795E+01 -0.37491645688E+01  0.87495550596E+01  0.00000000000E+00 0.  1.
</event>
<event>
 7    1  0.2706925E-010  0.4778728E+02  0.7816164E-02  0.1312668E+00
        -11   -1    0    0    0    0  0.00000000000E+00  0.00000000000E+00  0.45593999997E+02  0.45594000000E+02  0.51100000000E-03 0.  1.
         11   -1    0    0    0    0 -0.00000000000E+00 -0.00000000000E+00 -0.45593999997E+02  0.45594000000E+02  0.51100000000E-03 0. -1.
    9900012    2    1    2    0    0 -0.19945071237E+02 -0.31409006214E+02  0.22344828031E+02  0.47787275608E+02  0.20000020806E+02 0.  0.
         12    1    1    2    0    0  0.19945071237E+02  0.31409006214E+02 -0.22344828031E+02  0.43400724392E+02  0.00000000000E+00 0. -1.
         11    1    3    3    0    0 -0.12647901605E+02 -0.25958497077E+02  0.95161627629E+01  0.30403459334E+02  0.51100000000E-03 0.  1.
        -11    1    3    3    0    0  0.81885823155E+00 -0.23314550718E+01  0.91554713229E+00  0.26352302305E+01  0.51100000000E-03 0. -1.
         12    1    3    3    0    0 -0.81160278633E+01 -0.31190540658E+01  0.11913118136E+02  0.14748586043E+02  0.00000000000E+00 0. -1.
</event>
<event>
 7    1  0.2706925E-010  0.4778727E+02  0.7816164E-02  0.1312668E+00
        -11   -1    0    0    0    0  0.00000000000E+00  0.00000000000E+00  0.45593999997E+02  0.45594000000E+02  0.51100000000E-03 0. -1.
         11   -1    0    0    0    0 -0.00000000000E+00 -0.00000000000E+00 -0.45593999997E+02  0.45594000000E+02  0.51100000000E-03 0.  1.
    9900012    2    1    2    0    0  0.72217951142E+01  0.41745878941E+02  0.94207530263E+01  0.47787270504E+02  0.19999997536E+02 0.  0.
         12    1    1    2    0    0 -0.72217951142E+01 -0.41745878941E+02 -0.94207530263E+01  0.43400729496E+02  0.00000000000E+00 0. -1.
         11    1    3    3    0    0  0.85364242862E+01  0.18868069181E+02  0.27472674066E+01  0.20890716902E+02  0.51100000000E-03 0. -1.
        -11    1    3    3    0    0 -0.31306366709E+01  0.23536975995E+02  0.48388689581E+01  0.24232308557E+02  0.51100000000E-03 0.  1.
        -12    1    3    3    0    0  0.18160074988E+01 -0.65916623578E+00  0.18346166615E+01  0.26642450444E+01  0.00000000000E+00 0.  1.
</event>
<event>
 7    1  0.2706925E-010  0.4778727E+02  0.7816164E-02  0.1312668E+00
        -11   -1    0    0    0    0  0.00000000000E+00  0.00000000000E+00  0.45593999997E+02  0.45594000000E+02  0.51100000000E-03 0.  1.
         11   -1    0    0    0    0 -0.00000000000E+00 -0.00000000000E+00 -0.45593999997E+02  0.45594000000E+02  0.51100000000E-03 0. -1.
    9900012    2    1    2    0    0 -0.13043844028E+02 -0.39490480166E+02  0.12408994380E+02  0.47787273828E+02  0.20000012691E+02 0.  0.
         12    1    1    2    0    0  0.13043844028E+02  0.39490480166E+02 -0.12408994380E+02  0.43400726172E+02  0.00000000000E+00 0. -1.
         11    1    3    3    0    0 -0.50642575202E+01 -0.16279309835E+02  0.16603687676E+01  0.17129490875E+02  0.51100000000E-03 0. -1.
        -11    1    3    3    0    0 -0.46868295078E-01 -0.56261266214E+00  0.62089444355E+01  0.62345585978E+01  0.51100000000E-03 0.  1.
        -12    1    3    3    0    0 -0.79327182125E+01 -0.22648557669E+02  0.45396811770E+01  0.24423224355E+02  0.00000000000E+00 0.  1.
</event>
<event>
 7    1  0.2706925E-010  0.4778727E+02  0.7816164E-02  0.1312668E+00
        -11   -1    0    0    0    0  0.00000000000E+00  0.00000000000E+00  0.45593999997E+02  0.45594000000E+02  0.51100000000E-03 0. -1.
         11   -1    0    0    0    0 -0.00000000000E+00 -0.00000000000E+00 -0.45593999997E+02  0.45594000000E+02  0.51100000000E-03 0.  1.
    9900012    2    1    2    0    0  0.57919228123E+01  0.40445277238E+02  0.14637514887E+02  0.47787266564E+02  0.19999979573E+02 0.  0.
         12    1    1    2    0    0 -0.57919228123E+01 -0.40445277238E+02 -0.14637514887E+02  0.43400733436E+02  0.00000000000E+00 0. -1.
         11    1    3    3    0    0  0.36775232126E+01  0.37905234833E+02  0.11429710324E+02  0.39761404440E+02  0.51100000000E-03 0. -1.
        -11    1    3    3    0    0  0.26832994780E+01  0.35877821549E+01  0.44425992090E+01  0.63094345922E+01  0.51100000000E-03 0.  1.
         12    1    3    3    0    0 -0.56889987826E+00 -0.10477397499E+01 -0.12347946462E+01  0.17164275322E+01  0.00000000000E+00 0. -1.
</event>
<event>
 7    1  0.2706925E-010  0.4778727E+02  0.7816164E-02  0.1312668E+00
        -11   -1    0    0    0    0  0.00000000000E+00  0.00000000000E+00  0.45593999997E+02  0.45594000000E+02  0.51100000000E-03 0. -1.
         11   -1    0    0    0    0 -0.00000000000E+00 -0.00000000000E+00 -0.45593999997E+02  0.45594000000E+02  0.51100000000E-03 0.  1.
    9900012    2    1    2    0    0 -0.42645767923E+02 -0.47658534221E+01 -0.64998860111E+01  0.47787269606E+02  0.19999993441E+02 0.  0.
         12    1    1    2    0    0  0.42645767923E+02  0.47658534221E+01  0.64998860111E+01  0.43400730394E+02  0.00000000000E+00 0. -1.
         11    1    3    3    0    0 -0.18124382479E+02  0.44876012464E-01 -0.20243646841E+01  0.18237140860E+02  0.51100000000E-03 0. -1.
        -11    1    3    3    0    0  0.15406105490E+01 -0.48175789444E+00  0.17775788112E+01  0.24011160371E+01  0.51100000000E-03 0.  1.
        -12    1    3    3    0    0 -0.26061995993E+02 -0.43289715401E+01 -0.62531001382E+01  0.27149012709E+02  0.00000000000E+00 0.  1.
</event>
<event>
 7    1  0.2706925E-010  0.4778727E+02  0.7816164E-02  0.1312668E+00
        -11   -1    0    0    0    0  0.00000000000E+00  0.00000000000E+00  0.45593999997E+02  0.45594000000E+02  0.51100000000E-03 0. -1.
         11   -1    0    0    0    0 -0.00000000000E+00 -0.00000000000E+00 -0.45593999997E+02  0.45594000000E+02  0.51100000000E-03 0.  1.
    9900012    2    1    2    0    0  0.64086486937E+00 -0.43379958379E+02 -0.11796807457E+01  0.47787272547E+02  0.20000006851E+02 0.  0.
         12    1    1    2    0    0 -0.64086486937E+00  0.43379958379E+02  0.11796807457E+01  0.43400727453E+02  0.00000000000E+00 0. -1.
         11    1    3    3    0    0 -0.14515929476E+01 -0.53463967133E+01  0.49022371761E+01  0.73975002192E+01  0.51100000000E-03 0. -1.
        -11    1    3    3    0    0 -0.27727113322E+00 -0.27658347426E+02  0.87787404734E+00  0.27673664823E+02  0.51100000000E-03 0.  1.
         12    1    3    3    0    0  0.23697289502E+01 -0.10375214240E+02 -0.69597919691E+01  0.12716107505E+02  0.00000000000E+00 0. -1.
</event>
<event>
 7    1  0.2706925E-010  0.4778731E+02  0.7816164E-02  0.1312668E+00
        -11   -1    0    0    0    0  0.00000000000E+00  0.00000000000E+00  0.45593999997E+02  0.45594000000E+02  0.51100000000E-03 0. -1.
         11   -1    0    0    0    0 -0.00000000000E+00 -0.00000000000E+00 -0.45593999997E+02  0.45594000000E+02  0.51100000000E-03 0.  1.
    9900012    2    1    2    0    0 -0.29640033604E+02  0.29503046119E+02  0.11604247638E+02  0.47787310079E+02  0.20000177975E+02 0.  0.
         12    1    1    2    0    0  0.29640033604E+02 -0.29503046119E+02 -0.11604247638E+02  0.43400689921E+02  0.00000000000E+00 0. -1.
         11    1    3    3    0    0 -0.16770554645E+02  0.89423071065E+01 -0.11177647374E+01  0.19038533498E+02  0.51100000000E-03 0.  1.
        -11    1    3    3    0    0 -0.12138992494E+02  0.13382291018E+02  0.11536034886E+02  0.21436439836E+02  0.51100000000E-03 0. -1.
         12    1    3    3    0    0 -0.73048646510E+00  0.71784479940E+01  0.11859774893E+01  0.73123367458E+01  0.00000000000E+00 0. -1.
</event>
<event>
 7    1  0.2706925E-010  0.4778727E+02  0.7816164E-02  0.1312668E+00
        -11   -1    0    0    0    0  0.00000000000E+00  0.00000000000E+00  0.45593999997E+02  0.45594000000E+02  0.51100000000E-03 0.  1.
         11   -1    0    0    0    0 -0.00000000000E+00 -0.00000000000E+00 -0.45593999997E+02  0.45594000000E+02  0.51100000000E-03 0. -1.
    9900012    2    1    2    0    0  0.12050358182E+02  0.50237474658E+01  0.41390505214E+02  0.47787273131E+02  0.20000009512E+02 0.  0.
         12    1    1    2    0    0 -0.12050358182E+02 -0.50237474658E+01 -0.41390505214E+02  0.43400726869E+02  0.00000000000E+00 0. -1.
         11    1    3    3    0    0  0.19988927125E+01 -0.26552092060E+01  0.27211188175E+00  0.33346293858E+01  0.51100000000E-03 0. -1.
        -11    1    3    3    0    0  0.63841838192E+01  0.17643703533E+01  0.33440518234E+02  0.34090160836E+02  0.51100000000E-03 0.  1.
        -12    1    3    3    0    0  0.36672816498E+01  0.59145863185E+01  0.76778750985E+01  0.10362482909E+02  0.00000000000E+00 0.  1.
</event>
<event>
 7    1  0.2706925E-010  0.4778727E+02  0.7816164E-02  0.1312668E+00
        -11   -1    0    0    0    0  0.00000000000E+00  0.00000000000E+00  0.45593999997E+02  0.45594000000E+02  0.51100000000E-03 0.  1.
         11   -1    0    0    0    0 -0.00000000000E+00 -0.00000000000E+00 -0.45593999997E+02  0.45594000000E+02  0.51100000000E-03 0. -1.
    9900012    2    1    2    0    0 -0.36748777576E+02 -0.19351697965E+02  0.12596129108E+02  0.47787270330E+02  0.19999996741E+02 0.  0.
         12    1    1    2    0    0  0.36748777576E+02  0.19351697965E+02 -0.12596129108E+02  0.43400729670E+02  0.00000000000E+00 0. -1.
         11    1    3    3    0    0 -0.10216279275E+02  0.25697188775E+01  0.37244841555E+01  0.11173522265E+02  0.51100000000E-03 0. -1.
        -11    1    3    3    0    0 -0.13022305099E+02 -0.15362099390E+02  0.24767252805E+01  0.20290606106E+02  0.51100000000E-03 0.  1.
         12    1    3    3    0    0 -0.13510193202E+02 -0.65593174521E+01  0.63949196715E+01  0.16323141958E+02  0.00000000000E+00 0. -1.
</event>
<event>
 7    1  0.2706925E-010  0.4778727E+02  0.7816164E-02  0.1312668E+00
        -11   -1    0    0    0    0  0.00000000000E+00  0.00000000000E+00  0.45593999997E+02  0.45594000000E+02  0.51100000000E-03 0. -1.
         11   -1    0    0    0    0 -0.00000000000E+00 -0.00000000000E+00 -0.45593999997E+02  0.45594000000E+02  0.51100000000E-03 0.  1.
    9900012    2    1    2    0    0  0.13379900276E+01 -0.42548569889E+02  0.84529469140E+01  0.47787270416E+02  0.19999997134E+02 0.  0.
         12    1    1    2    0    0 -0.13379900276E+01  0.42548569889E+02 -0.84529469140E+01  0.43400729584E+02  0.00000000000E+00 0. -1.
         11    1    3    3    0    0  0.15767306457E+00 -0.46303046267E+01  0.74714193113E+01  0.87912848047E+01  0.51100000000E-03 0. -1.
        -11    1    3    3    0    0  0.71197339235E+00 -0.30570733098E+02  0.43727062747E+01  0.30890082368E+02  0.51100000000E-03 0.  1.
        -12    1    3    3    0    0  0.46834357065E+00 -0.73475321638E+01 -0.33911786721E+01  0.81059032429E+01  0.00000000000E+00 0.  1.
</event>
<event>
 7    1  0.2706925E-010  0.4778727E+02  0.7816164E-02  0.1312668E+00
        -11   -1    0    0    0    0  0.00000000000E+00  0.00000000000E+00  0.45593999997E+02  0.45594000000E+02  0.51100000000E-03 0.  1.
         11   -1    0    0    0    0 -0.00000000000E+00 -0.00000000000E+00 -0.45593999997E+02  0.45594000000E+02  0.51100000000E-03 0. -1.
    9900012    2    1    2    0    0  0.21883085528E+02 -0.36925965988E+02  0.64208325949E+01  0.47787268582E+02  0.19999988773E+02 0.  0.
         12    1    1    2    0    0 -0.21883085528E+02  0.36925965988E+02 -0.64208325949E+01  0.43400731418E+02  0.00000000000E+00 0. -1.
         11    1    3    3    0    0  0.13748750970E+02 -0.17961210652E+02  0.86315632235E+01  0.24210269004E+02  0.51100000000E-03 0. -1.
        -11    1    3    3    0    0  0.89150127990E+01 -0.13839513861E+02  0.24031717332E+01  0.16636851618E+02  0.51100000000E-03 0.  1.
         12    1    3    3    0    0 -0.78067824111E+00 -0.51252414760E+01 -0.46139023618E+01  0.69401479600E+01  0.00000000000E+00 0. -1.
</event>
<event>
 7    1  0.2706925E-010  0.4778726E+02  0.7816164E-02  0.1312668E+00
        -11   -1    0    0    0    0  0.00000000000E+00  0.00000000000E+00  0.45593999997E+02  0.45594000000E+02  0.51100000000E-03 0.  1.
         11   -1    0    0    0    0 -0.00000000000E+00 -0.00000000000E+00 -0.45593999997E+02  0.45594000000E+02  0.51100000000E-03 0. -1.
    9900012    2    1    2    0    0  0.15747088933E+02  0.20227905135E+00  0.40442708145E+02  0.47787258430E+02  0.19999942488E+02 0.  0.
         12    1    1    2    0    0 -0.15747088933E+02 -0.20227905135E+00 -0.40442708145E+02  0.43400741570E+02  0.00000000000E+00 0. -1.
         11    1    3    3    0    0  0.15670114240E+02 -0.81688525026E+00  0.16738918443E+02  0.22943652122E+02  0.51100000000E-03 0. -1.
        -11    1    3    3    0    0  0.42036047036E+00  0.35941103230E+01  0.19969011492E+02  0.20294229528E+02  0.51100000000E-03 0.  1.
         12    1    3    3    0    0 -0.34338577692E+00 -0.25749460214E+01  0.37347782102E+01  0.45493767798E+01  0.00000000000E+00 0. -1.
</event>
<event>
 7    1  0.2706925E-010  0.4778728E+02  0.7816164E-02  0.1312668E+00
        -11   -1    0    0    0    0  0.00000000000E+00  0.00000000000E+00  0.45593999997E+02  0.45594000000E+02  0.51100000000E-03 0.  1.
         11   -1    0    0    0    0 -0.00000000000E+00 -0.00000000000E+00 -0.45593999997E+02  0.45594000000E+02  0.51100000000E-03 0. -1.
    9900012    2    1    2    0    0 -0.17384656290E+02  0.22561325085E+02  0.32747262980E+02  0.47787275391E+02  0.20000019818E+02 0.  0.
         12    1    1    2    0    0  0.17384656290E+02 -0.22561325085E+02 -0.32747262980E+02  0.43400724609E+02  0.00000000000E+00 0. -1.
         11    1    3    3    0    0  0.25613661931E+01  0.32187725705E+01  0.24593285397E+01  0.47926392273E+01  0.51100000000E-03 0. -1.
        -11    1    3    3    0    0 -0.17009384453E+02  0.97527219280E+01  0.14896966262E+02  0.24624263411E+02  0.51100000000E-03 0.  1.
        -12    1    3    3    0    0 -0.29366380296E+01  0.95898305869E+01  0.15390968178E+02  0.18370372752E+02  0.00000000000E+00 0.  1.
</event>
<event>
 7    1  0.2706925E-010  0.4778725E+02  0.7816164E-02  0.1312668E+00
        -11   -1    0    0    0    0  0.00000000000E+00  0.00000000000E+00  0.45593999997E+02  0.45594000000E+02  0.51100000000E-03 0. -1.
         11   -1    0    0    0    0 -0.00000000000E+00 -0.00000000000E+00 -0.45593999997E+02  0.45594000000E+02  0.51100000000E-03 0.  1.
    9900012    2    1    2    0    0  0.25731834700E+02  0.34496108879E+02 -0.56139429732E+01  0.47787248848E+02  0.19999898797E+02 0.  0.
         12    1    1    2    0    0 -0.25731834700E+02 -0.34496108879E+02  0.56139429732E+01  0.43400751152E+02  0.00000000000E+00 0. -1.
         11    1    3    3    0    0  0.18007469881E+02  0.13383117181E+02  0.16311355701E+01  0.22495275070E+02  0.51100000000E-03 0. -1.
        -11    1    3    3    0    0  0.73222080241E+01  0.19824106924E+02 -0.36425807169E+01  0.21444774193E+02  0.51100000000E-03 0.  1.
        -12    1    3    3    0    0  0.40215679564E+00  0.12888847746E+01 -0.36024978264E+01  0.38471995840E+01  0.00000000000E+00 0.  1.
</event>
<event>
 7    1  0.2706925E-010  0.4778727E+02  0.7816164E-02  0.1312668E+00
        -11   -1    0    0    0    0  0.00000000000E+00  0.00000000000E+00  0.45593999997E+02  0.45594000000E+02  0.51100000000E-03 0.  1.
         11   -1    0    0    0    0 -0.00000000000E+00 -0.00000000000E+00 -0.45593999997E+02  0.45594000000E+02  0.51100000000E-03 0. -1.
    9900012    2    1    2    0    0  0.11013482251E+02 -0.38329330194E+01  0.41804724938E+02  0.47787271965E+02  0.20000004196E+02 0.  0.
         12    1    1    2    0    0 -0.11013482251E+02  0.38329330194E+01 -0.41804724938E+02  0.43400728035E+02  0.00000000000E+00 0. -1.
         11    1    3    3    0    0  0.30687388722E+01 -0.56678685275E+01  0.32392518988E+02  0.33027521532E+02  0.51100000000E-03 0. -1.
        -11    1    3    3    0    0  0.67555281965E+01  0.32121861458E+01  0.10304319663E+02  0.12733196968E+02  0.51100000000E-03 0.  1.
         12    1    3    3    0    0  0.11892151823E+01 -0.13772506377E+01 -0.89211371266E+00  0.20265534647E+01  0.00000000000E+00 0. -1.
</event>
<event>
 7    1  0.2706925E-010  0.4778726E+02  0.7816164E-02  0.1312668E+00
        -11   -1    0    0    0    0  0.00000000000E+00  0.00000000000E+00  0.45593999997E+02  0.45594000000E+02  0.51100000000E-03 0. -1.
         11   -1    0    0    0    0 -0.00000000000E+00 -0.00000000000E+00 -0.45593999997E+02  0.45594000000E+02  0.51100000000E-03 0.  1.
    9900012    2    1    2    0    0  0.10751882467E+02  0.22297103036E+02 -0.35649129386E+02  0.47787260302E+02  0.19999951021E+02 0.  0.
         12    1    1    2    0    0 -0.10751882467E+02 -0.22297103036E+02  0.35649129386E+02  0.43400739698E+02  0.00000000000E+00 0. -1.
         11    1    3    3    0    0  0.40705148221E+01  0.18229566103E+02 -0.25276676948E+02  0.31429231123E+02  0.51100000000E-03 0. -1.
        -11    1    3    3    0    0  0.18132383242E+01 -0.21094678076E+01 -0.74762645806E+01  0.79769806313E+01  0.51100000000E-03 0.  1.
         12    1    3    3    0    0  0.48681293210E+01  0.61770047404E+01 -0.28961878569E+01  0.83810485473E+01  0.00000000000E+00 0. -1.
</event>
<event>
 7    1  0.2706925E-010  0.4778727E+02  0.7816164E-02  0.1312668E+00
        -11   -1    0    0    0    0  0.00000000000E+00  0.00000000000E+00  0.45593999997E+02  0.45594000000E+02  0.51100000000E-03 0. -1.
         11   -1    0    0    0    0 -0.00000000000E+00 -0.00000000000E+00 -0.45593999997E+02  0.45594000000E+02  0.51100000000E-03 0.  1.
    9900012    2    1    2    0    0 -0.30345967013E+02 -0.24876566172E+02 -0.18544600074E+02  0.47787269010E+02  0.19999990726E+02 0.  0.
         12    1    1    2    0    0  0.30345967013E+02  0.24876566172E+02  0.18544600074E+02  0.43400730990E+02  0.00000000000E+00 0. -1.
         11    1    3    3    0    0 -0.10665490946E+02 -0.16324326083E+01 -0.89222583973E+01  0.14000865277E+02  0.51100000000E-03 0. -1.
        -11    1    3    3    0    0 -0.69469111138E+01 -0.10922050667E+02  0.12386547927E+01  0.13003270002E+02  0.51100000000E-03 0.  1.
        -12    1    3    3    0    0 -0.12733564953E+02 -0.12322082897E+02 -0.10860996470E+02  0.20783133730E+02  0.00000000000E+00 0.  1.
</event>
<event>
 7    1  0.2706925E-010  0.4778727E+02  0.7816164E-02  0.1312668E+00
        -11   -1    0    0    0    0  0.00000000000E+00  0.00000000000E+00  0.45593999997E+02  0.45594000000E+02  0.51100000000E-03 0.  1.
         11   -1    0    0    0    0 -0.00000000000E+00 -0.00000000000E+00 -0.45593999997E+02  0.45594000000E+02  0.51100000000E-03 0. -1.
    9900012    2    1    2    0    0  0.30035017082E+02 -0.19275180120E+02  0.24697942911E+02  0.47787271852E+02  0.20000003681E+02 0.  0.
         12    1    1    2    0    0 -0.30035017082E+02  0.19275180120E+02 -0.24697942911E+02  0.43400728148E+02  0.00000000000E+00 0. -1.
         11    1    3    3    0    0  0.21779623157E+02 -0.32654770995E+01  0.88529051979E+01  0.23735822215E+02  0.51100000000E-03 0. -1.
        -11    1    3    3    0    0  0.17966505764E+01 -0.23209870010E+01  0.30383081877E+01  0.42244823183E+01  0.51100000000E-03 0.  1.
         12    1    3    3    0    0  0.64587433491E+01 -0.13688716019E+02  0.12806729525E+02  0.19826967318E+02  0.00000000000E+00 0. -1.
</event>
<event>
 7    1  0.2706925E-010  0.4778727E+02  0.7816164E-02  0.1312668E+00
        -11   -1    0    0    0    0  0.00000000000E+00  0.00000000000E+00  0.45593999997E+02  0.45594000000E+02  0.51100000000E-03 0.  1.
         11   -1    0    0    0    0 -0.00000000000E+00 -0.00000000000E+00 -0.45593999997E+02  0.45594000000E+02  0.51100000000E-03 0. -1.
    9900012    2    1    2    0    0  0.20958284238E+02 -0.83929865858E+01  0.37066580412E+02  0.47787270911E+02  0.19999999390E+02 0.  0.
         12    1    1    2    0    0 -0.20958284238E+02  0.83929865858E+01 -0.37066580412E+02  0.43400729089E+02  0.00000000000E+00 0. -1.
         11    1    3    3    0    0  0.71110439007E+01 -0.11377773781E+01  0.20587924790E+02  0.21811101076E+02  0.51100000000E-03 0.  1.
        -11    1    3    3    0    0  0.64880143056E+01 -0.56461158823E+01  0.86984495553E+00  0.86446275046E+01  0.51100000000E-03 0. -1.
         12    1    3    3    0    0  0.73592260313E+01 -0.16090933255E+01  0.15608810667E+02  0.17331542330E+02  0.00000000000E+00 0. -1.
</event>
<event>
 7    1  0.2706925E-010  0.4778727E+02  0.7816164E-02  0.1312668E+00
        -11   -1    0    0    0    0  0.00000000000E+00  0.00000000000E+00  0.45593999997E+02  0.45594000000E+02  0.51100000000E-03 0.  1.
         11   -1    0    0    0    0 -0.00000000000E+00 -0.00000000000E+00 -0.45593999997E+02  0.45594000000E+02  0.51100000000E-03 0. -1.
    9900012    2    1    2    0    0  0.17249310513E+02  0.37957775149E+02 -0.12053701857E+02  0.47787272634E+02  0.20000007248E+02 0.  0.
         12    1    1    2    0    0 -0.17249310513E+02 -0.37957775149E+02  0.12053701857E+02  0.43400727366E+02  0.00000000000E+00 0. -1.
         11    1    3    3    0    0  0.16942281323E+02  0.24277687677E+02 -0.63450123345E+01  0.30277156359E+02  0.51100000000E-03 0. -1.
        -11    1    3    3    0    0  0.96772550515E+00  0.81179346397E+01  0.15709261926E+01  0.83249723622E+01  0.51100000000E-03 0.  1.
         12    1    3    3    0    0 -0.66069631508E+00  0.55621528322E+01 -0.72796157150E+01  0.91851439133E+01  0.00000000000E+00 0. -1.
</event>
<event>
 7    1  0.2706925E-010  0.4778726E+02  0.7816164E-02  0.1312668E+00
        -11   -1    0    0    0    0  0.00000000000E+00  0.00000000000E+00  0.45593999997E+02  0.45594000000E+02  0.51100000000E-03 0. -1.
         11   -1    0    0    0    0 -0.00000000000E+00 -0.00000000000E+00 -0.45593999997E+02  0.45594000000E+02  0.51100000000E-03 0.  1.
    9900012    2    1    2    0    0 -0.38985617684E+02 -0.19062097575E+02  0.61801436932E+00  0.47787263924E+02  0.19999967536E+02 0.  0.
         12    1    1    2    0    0  0.38985617684E+02  0.19062097575E+02 -0.61801436932E+00  0.43400736076E+02  0.00000000000E+00 0. -1.
         11    1    3    3    0    0 -0.18804740118E+02 -0.95379738164E+01  0.84252326526E+01  0.22706292981E+02  0.51100000000E-03 0. -1.
        -11    1    3    3    0    0 -0.17111628023E+02 -0.74023050785E+01 -0.28257171772E+01  0.18857004319E+02  0.51100000000E-03 0.  1.
         12    1    3    3    0    0 -0.30692495436E+01 -0.21218186803E+01 -0.49815011061E+01  0.62239666245E+01  0.00000000000E+00 0. -1.
</event>
<event>
 7    1  0.2706925E-010  0.4778726E+02  0.7816164E-02  0.1312668E+00
        -11   -1    0    0    0    0  0.00000000000E+00  0.00000000000E+00  0.45593999997E+02  0.45594000000E+02  0.51100000000E-03 0. -1.
         11   -1    0    0    0    0 -0.00000000000E+00 -0.00000000000E+00 -0.45593999997E+02  0.45594000000E+02  0.51100000000E-03 0.  1.
    9900012    2    1    2    0    0 -0.34093293537E+02  0.11476040777E+02 -0.24281096524E+02  0.47787264701E+02  0.19999971076E+02 0.  0.
         12    1    1    2    0    0  0.34093293537E+02 -0.11476040777E+02  0.24281096524E+02  0.43400735299E+02  0.00000000000E+00 0. -1.
         11    1    3    3    0    0 -0.40388383765E+01  0.57833683810E+01 -0.29726932520E+01  0.76548331591E+01  0.51100000000E-03 0. -1.
        -11    1    3    3    0    0 -0.23125745367E+02  0.93811725119E+01 -0.11252221610E+02  0.27375518039E+02  0.51100000000E-03 0.  1.
        -12    1    3    3    0    0 -0.69287097940E+01 -0.36885001155E+01 -0.10056181662E+02  0.12756913503E+02  0.00000000000E+00 0.  1.
</event>
<event>
 7    1  0.2706925E-010  0.4778728E+02  0.7816164E-02  0.1312668E+00
        -11   -1    0    0    0    0  0.00000000000E+00  0.00000000000E+00  0.45593999997E+02  0.45594000000E+02  0.51100000000E-03 0.  1.
         11   -1    0    0    0    0 -0.00000000000E+00 -0.00000000000E+00 -0.45593999997E+02  0.45594000000E+02  0.51100000000E-03 0. -1.
    9900012    2    1    2    0    0 -0.35919843013E+02  0.14520915081E+02  0.19558390413E+02  0.47787277283E+02  0.20000028442E+02 0.  0.
         12    1    1    2    0    0  0.35919843013E+02 -0.14520915081E+02 -0.19558390413E+02  0.43400722717E+02  0.00000000000E+00 0. -1.
         11    1    3    3    0    0 -0.72850434555E+00 -0.12749717139E+01 -0.23958113440E+01  0.28100148950E+01  0.51100000000E-03 0. -1.
        -11    1    3    3    0    0 -0.23889589829E+02  0.10693562251E+02  0.10855473340E+02  0.28335597356E+02  0.51100000000E-03 0.  1.
        -12    1    3    3    0    0 -0.11301748838E+02  0.51023245447E+01  0.11098728417E+02  0.16641665032E+02  0.00000000000E+00 0.  1.
</event>
<event>
 7    1  0.2706925E-010  0.4778727E+02  0.7816164E-02  0.1312668E+00
        -11   -1    0    0    0    0  0.00000000000E+00  0.00000000000E+00  0.45593999997E+02  0.45594000000E+02  0.51100000000E-03 0. -1.
         11   -1    0    0    0    0 -0.00000000000E+00 -0.00000000000E+00 -0.45593999997E+02  0.45594000000E+02  0.51100000000E-03 0.  1.
    9900012    2    1    2    0    0  0.33158086782E+02 -0.87372254251E+01  0.26604989755E+02  0.47787270662E+02  0.19999998258E+02 0.  0.
         12    1    1    2    0    0 -0.33158086782E+02  0.87372254251E+01 -0.26604989755E+02  0.43400729338E+02  0.00000000000E+00 0. -1.
         11    1    3    3    0    0  0.18809626458E+01  0.30134633181E+01  0.17085506522E+01  0.39418431269E+01  0.51100000000E-03 0. -1.
        -11    1    3    3    0    0  0.24601250942E+02 -0.14148780874E+02  0.22926796187E+02  0.36483524114E+02  0.51100000000E-03 0.  1.
        -12    1    3    3    0    0  0.66758731940E+01  0.23980921303E+01  0.19696429156E+01  0.73619034212E+01  0.00000000000E+00 0.  1.
</event>
<event>
 7    1  0.2706925E-010  0.4778723E+02  0.7816164E-02  0.1312668E+00
        -11   -1    0    0    0    0  0.00000000000E+00  0.00000000000E+00  0.45593999997E+02  0.45594000000E+02  0.51100000000E-03 0. -1.
         11   -1    0    0    0    0 -0.00000000000E+00 -0.00000000000E+00 -0.45593999997E+02  0.45594000000E+02  0.51100000000E-03 0.  1.
    9900012    2    1    2    0    0  0.61530208850E+01  0.20242835387E+02 -0.37894525756E+02  0.47787226588E+02  0.19999797302E+02 0.  0.
         12    1    1    2    0    0 -0.61530208850E+01 -0.20242835387E+02  0.37894525756E+02  0.43400773412E+02  0.00000000000E+00 0. -1.
         11    1    3    3    0    0  0.70785663696E+01  0.58891439572E+01 -0.23005292388E+02  0.24779660944E+02  0.51100000000E-03 0. -1.
        -11    1    3    3    0    0 -0.26354786016E+01  0.12846614025E+02 -0.15817165049E+02  0.20546628673E+02  0.51100000000E-03 0.  1.
        -12    1    3    3    0    0  0.17099331170E+01  0.15070774053E+01  0.92793168089E+00  0.24609369709E+01  0.00000000000E+00 0.  1.
</event>
<event>
 7    1  0.2706925E-010  0.4778727E+02  0.7816164E-02  0.1312668E+00
        -11   -1    0    0    0    0  0.00000000000E+00  0.00000000000E+00  0.45593999997E+02  0.45594000000E+02  0.51100000000E-03 0.  1.
         11   -1    0    0    0    0 -0.00000000000E+00 -0.00000000000E+00 -0.45593999997E+02  0.45594000000E+02  0.51100000000E-03 0. -1.
    9900012    2    1    2    0    0 -0.48087760496E+01 -0.33449431297E+02  0.27232969223E+02  0.47787269662E+02  0.19999993696E+02 0.  0.
         12    1    1    2    0    0  0.48087760496E+01  0.33449431297E+02 -0.27232969223E+02  0.43400730338E+02  0.00000000000E+00 0. -1.
         11    1    3    3    0    0  0.36538074843E+00 -0.14069065693E+01  0.16932451326E+01  0.22315843085E+01  0.51100000000E-03 0. -1.
        -11    1    3    3    0    0 -0.82841316478E+00  0.21698084321E+01  0.47484117929E+01  0.52859958210E+01  0.51100000000E-03 0.  1.
        -12    1    3    3    0    0 -0.43457436333E+01 -0.34212333160E+02  0.20791312298E+02  0.40269689532E+02  0.00000000000E+00 0.  1.
</event>
<event>
 7    1  0.2706925E-010  0.4778727E+02  0.7816164E-02  0.1312668E+00
        -11   -1    0    0    0    0  0.00000000000E+00  0.00000000000E+00  0.45593999997E+02  0.45594000000E+02  0.51100000000E-03 0.  1.
         11   -1    0    0    0    0 -0.00000000000E+00 -0.00000000000E+00 -0.45593999997E+02  0.45594000000E+02  0.51100000000E-03 0. -1.
    9900012    2    1    2    0    0 -0.33587771617E+02  0.19765766981E+02  0.19099718318E+02  0.47787272052E+02  0.20000004596E+02 0.  0.
         12    1    1    2    0    0  0.33587771617E+02 -0.19765766981E+02 -0.19099718318E+02  0.43400727948E+02  0.00000000000E+00 0. -1.
         11    1    3    3    0    0 -0.21446729353E+02  0.52797527084E+01  0.68789842747E+01  0.23133491165E+02  0.51100000000E-03 0. -1.
        -11    1    3    3    0    0 -0.11705888353E+02  0.65546222620E+01  0.85011795295E+01  0.15882724854E+02  0.51100000000E-03 0.  1.
         12    1    3    3    0    0 -0.43515391144E+00  0.79313920111E+01  0.37195545135E+01  0.87710560333E+01  0.00000000000E+00 0. -1.
</event>
<event>
 7    1  0.2706925E-010  0.4778727E+02  0.7816164E-02  0.1312668E+00
        -11   -1    0    0    0    0  0.00000000000E+00  0.00000000000E+00  0.45593999997E+02  0.45594000000E+02  0.51100000000E-03 0.  1.
         11   -1    0    0    0    0 -0.00000000000E+00 -0.00000000000E+00 -0.45593999997E+02  0.45594000000E+02  0.51100000000E-03 0. -1.
    9900012    2    1    2    0    0  0.13246446686E+02 -0.31636434789E+02  0.26594944425E+02  0.47787269304E+02  0.19999992066E+02 0.  0.
         12    1    1    2    0    0 -0.13246446686E+02  0.31636434789E+02 -0.26594944425E+02  0.43400730696E+02  0.00000000000E+00 0. -1.
         11    1    3    3    0    0  0.42724870777E+01 -0.35760706295E+01 -0.19903269546E+01  0.59164033520E+01  0.51100000000E-03 0. -1.
        -11    1    3    3    0    0  0.35998038515E+01 -0.22586956674E+02  0.22443139499E+02  0.32044090101E+02  0.51100000000E-03 0.  1.
         12    1    3    3    0    0  0.53741557564E+01 -0.54734074858E+01  0.61421318807E+01  0.98267758517E+01  0.00000000000E+00 0. -1.
</event>
<event>
 7    1  0.2706925E-010  0.4778727E+02  0.7816164E-02  0.1312668E+00
        -11   -1    0    0    0    0  0.00000000000E+00  0.00000000000E+00  0.45593999997E+02  0.45594000000E+02  0.51100000000E-03 0. -1.
         11   -1    0    0    0    0 -0.00000000000E+00 -0.00000000000E+00 -0.45593999997E+02  0.45594000000E+02  0.51100000000E-03 0.  1.
    9900012    2    1    2    0    0  0.35203633805E+02 -0.21892458531E+02 -0.12847102974E+02  0.47787266960E+02  0.19999981378E+02 0.  0.
         12    1    1    2    0    0 -0.35203633805E+02  0.21892458531E+02  0.12847102974E+02  0.43400733040E+02  0.00000000000E+00 0. -1.
         11    1    3    3    0    0  0.44633252842E+01 -0.38884688972E+01  0.43385518647E+01  0.73392435238E+01  0.51100000000E-03 0. -1.
        -11    1    3    3    0    0  0.45622859163E+00 -0.22893440664E+01 -0.21121258693E+01  0.31480655539E+01  0.51100000000E-03 0.  1.
         12    1    3    3    0    0  0.30284079929E+02 -0.15714645567E+02 -0.15073528969E+02  0.37299957882E+02  0.00000000000E+00 0. -1.
</event>
<event>
 7    1  0.3956756E-010  0.4778727E+02  0.7816164E-02  0.1312668E+00
        -11   -1    0    0    0    0  0.00000000000E+00  0.00000000000E+00  0.45593999997E+02  0.45594000000E+02  0.51100000000E-03 0.  1.
         11   -1    0    0    0    0 -0.00000000000E+00 -0.00000000000E+00 -0.45593999997E+02  0.45594000000E+02  0.51100000000E-03 0. -1.
    9900012    2    1    2    0    0 -0.23670195736E+02  0.20624613011E+02  0.29966154859E+02  0.47787271146E+02  0.20000000463E+02 0.  0.
         12    1    1    2    0    0  0.23670195736E+02 -0.20624613011E+02 -0.29966154859E+02  0.43400728854E+02  0.00000000000E+00 0. -1.
         11    1    3    3    0    0 -0.50550719639E+00 -0.66557103658E+00 -0.37038058648E+00  0.91416867716E+00  0.51100000000E-03 0.  1.
        -11    1    3    3    0    0 -0.42902339586E+01  0.11322550063E+01 -0.15415512744E+01  0.46972853237E+01  0.51100000000E-03 0. -1.
        -12    1    3    3    0    0 -0.18874454581E+02  0.20157929041E+02  0.31878086720E+02  0.42175817145E+02  0.00000000000E+00 0.  1.
</event>
<event>
 7    1  0.2706925E-010  0.4778727E+02  0.7816164E-02  0.1312668E+00
        -11   -1    0    0    0    0  0.00000000000E+00  0.00000000000E+00  0.45593999997E+02  0.45594000000E+02  0.51100000000E-03 0.  1.
         11   -1    0    0    0    0 -0.00000000000E+00 -0.00000000000E+00 -0.45593999997E+02  0.45594000000E+02  0.51100000000E-03 0. -1.
    9900012    2    1    2    0    0  0.67795756927E+01 -0.42843695854E+02 -0.14418100369E+01  0.47787265707E+02  0.19999975666E+02 0.  0.
         12    1    1    2    0    0 -0.67795756927E+01  0.42843695854E+02  0.14418100369E+01  0.43400734293E+02  0.00000000000E+00 0. -1.
         11    1    3    3    0    0  0.16381704908E+01 -0.15380856616E+01  0.37717215576E+01  0.43903523582E+01  0.51100000000E-03 0. -1.
        -11    1    3    3    0    0 -0.86013284127E+00 -0.30359115040E+02 -0.16571917910E+01  0.30416475460E+02  0.51100000000E-03 0.  1.
        -12    1    3    3    0    0  0.60015380432E+01 -0.10946495152E+02 -0.35563398035E+01  0.12980437889E+02  0.00000000000E+00 0.  1.
</event>
<event>
 7    1  0.2706925E-010  0.4778728E+02  0.7816164E-02  0.1312668E+00
        -11   -1    0    0    0    0  0.00000000000E+00  0.00000000000E+00  0.45593999997E+02  0.45594000000E+02  0.51100000000E-03 0.  1.
         11   -1    0    0    0    0 -0.00000000000E+00 -0.00000000000E+00 -0.45593999997E+02  0.45594000000E+02  0.51100000000E-03 0. -1.
    9900012    2    1    2    0    0  0.14490922252E+02  0.71326407644E+01  0.40283514275E+02  0.47787275186E+02  0.20000018884E+02 0.  0.
         12    1    1    2    0    0 -0.14490922252E+02 -0.71326407644E+01 -0.40283514275E+02  0.43400724814E+02  0.00000000000E+00 0. -1.
         11    1    3    3    0    0 -0.31678484576E+01 -0.21328583608E+01  0.10070588261E+02  0.10770380533E+02  0.51100000000E-03 0. -1.
        -11    1    3    3    0    0  0.15815748343E+02  0.92208231459E+01  0.30021767334E+02  0.35163446777E+02  0.51100000000E-03 0.  1.
         12    1    3    3    0    0  0.18430223668E+01  0.44675979282E-01  0.19115868000E+00  0.18534478759E+01  0.00000000000E+00 0. -1.
</event>
<event>
 7    1  0.2706925E-010  0.4778727E+02  0.7816164E-02  0.1312668E+00
        -11   -1    0    0    0    0  0.00000000000E+00  0.00000000000E+00  0.45593999997E+02  0.45594000000E+02  0.51100000000E-03 0. -1.
         11   -1    0    0    0    0 -0.00000000000E+00 -0.00000000000E+00 -0.45593999997E+02  0.45594000000E+02  0.51100000000E-03 0.  1.
    9900012    2    1    2    0    0 -0.90000683732E+01 -0.27555281704E+02 -0.32300594104E+02  0.47787272357E+02  0.20000005984E+02 0.  0.
         12    1    1    2    0    0  0.90000683732E+01  0.27555281704E+02  0.32300594104E+02  0.43400727643E+02  0.00000000000E+00 0. -1.
         11    1    3    3    0    0 -0.60196632079E+01 -0.13029249637E+01 -0.17104178361E+01  0.63921426793E+01  0.51100000000E-03 0. -1.
        -11    1    3    3    0    0 -0.21003155121E+01 -0.15648770854E+02 -0.24466270049E+02  0.29118614748E+02  0.51100000000E-03 0.  1.
        -12    1    3    3    0    0 -0.88008965323E+00 -0.10603585886E+02 -0.61239062186E+01  0.12276514929E+02  0.00000000000E+00 0.  1.
</event>
<event>
 7    1  0.2706925E-010  0.4778727E+02  0.7816164E-02  0.1312668E+00
        -11   -1    0    0    0    0  0.00000000000E+00  0.00000000000E+00  0.45593999997E+02  0.45594000000E+02  0.51100000000E-03 0.  1.
         11   -1    0    0    0    0 -0.00000000000E+00 -0.00000000000E+00 -0.45593999997E+02  0.45594000000E+02  0.51100000000E-03 0. -1.
    9900012    2    1    2    0    0  0.38571145720E+02  0.12253176289E+02  0.15676409004E+02  0.47787269470E+02  0.19999992821E+02 0.  0.
         12    1    1    2    0    0 -0.38571145720E+02 -0.12253176289E+02 -0.15676409004E+02  0.43400730530E+02  0.00000000000E+00 0. -1.
         11    1    3    3    0    0  0.65474805576E+01 -0.38512206804E+00  0.87119487353E+01  0.10904855418E+02  0.51100000000E-03 0. -1.
        -11    1    3    3    0    0  0.20610120717E+02  0.13695150340E+02  0.51844467328E+01  0.25282656248E+02  0.51100000000E-03 0.  1.
        -12    1    3    3    0    0  0.11413544445E+02 -0.10568519820E+01  0.17800135357E+01  0.11599757804E+02  0.00000000000E+00 0.  1.
</event>
<event>
 7    1  0.2706925E-010  0.4778727E+02  0.7816164E-02  0.1312668E+00
        -11   -1    0    0    0    0  0.00000000000E+00  0.00000000000E+00  0.45593999997E+02  0.45594000000E+02  0.51100000000E-03 0. -1.
         11   -1    0    0    0    0 -0.00000000000E+00 -0.00000000000E+00 -0.45593999997E+02  0.45594000000E+02  0.51100000000E-03 0.  1.
    9900012    2    1    2    0    0 -0.15346125744E+02  0.37348634249E+01 -0.40424870607E+02  0.47787274848E+02  0.20000017341E+02 0.  0.
         12    1    1    2    0    0  0.15346125744E+02 -0.37348634249E+01  0.40424870607E+02  0.43400725152E+02  0.00000000000E+00 0. -1.
         11    1    3    3    0    0 -0.41148643124E+00  0.36946753504E+01 -0.15485359865E+02  0.15925335709E+02  0.51100000000E-03 0.  1.
        -11    1    3    3    0    0 -0.73764872121E+01  0.24882715370E+01 -0.26899580368E+01  0.82365000658E+01  0.51100000000E-03 0. -1.
        -12    1    3    3    0    0 -0.75581521008E+01 -0.24480834626E+01 -0.22249552705E+02  0.23625439073E+02  0.00000000000E+00 0.  1.
</event>
<event>
 7    1  0.2706925E-010  0.4778726E+02  0.7816164E-02  0.1312668E+00
        -11   -1    0    0    0    0  0.00000000000E+00  0.00000000000E+00  0.45593999997E+02  0.45594000000E+02  0.51100000000E-03 0.  1.
         11   -1    0    0    0    0 -0.00000000000E+00 -0.00000000000E+00 -0.45593999997E+02  0.45594000000E+02  0.51100000000E-03 0. -1.
    9900012    2    1    2    0    0  0.86662248629E+01 -0.29836732875E+01  0.42421907012E+02  0.47787263206E+02  0.19999964263E+02 0.  0.
         12    1    1    2    0    0 -0.86662248629E+01  0.29836732875E+01 -0.42421907012E+02  0.43400736794E+02  0.00000000000E+00 0. -1.
         11    1    3    3    0    0 -0.32160445163E+01 -0.46232317334E+01  0.13904848995E+02  0.15002067852E+02  0.51100000000E-03 0. -1.
        -11    1    3    3    0    0  0.57701778056E+01  0.62228096933E+01  0.13722877871E+02  0.16134921435E+02  0.51100000000E-03 0.  1.
        -12    1    3    3    0    0  0.61120915736E+01 -0.45832512473E+01  0.14794180146E+02  0.16650273920E+02  0.00000000000E+00 0.  1.
</event>
<event>
 7    1  0.2706925E-010  0.4778726E+02  0.7816164E-02  0.1312668E+00
        -11   -1    0    0    0    0  0.00000000000E+00  0.00000000000E+00  0.45593999997E+02  0.45594000000E+02  0.51100000000E-03 0.  1.
         11   -1    0    0    0    0 -0.00000000000E+00 -0.00000000000E+00 -0.45593999997E+02  0.45594000000E+02  0.51100000000E-03 0. -1.
    9900012    2    1    2    0    0  0.13981992914E+02  0.34670022981E+02  0.22048065364E+02  0.47787264918E+02  0.19999972068E+02 0.  0.
         12    1    1    2    0    0 -0.13981992914E+02 -0.34670022981E+02 -0.22048065364E+02  0.43400735082E+02  0.00000000000E+00 0. -1.
         11    1    3    3    0    0  0.52277921998E-01  0.11949739618E+02 -0.12737963811E+01  0.12017552471E+02  0.51100000000E-03 0. -1.
        -11    1    3    3    0    0  0.28613592056E+01  0.58472032867E+01  0.31309619534E+01  0.72235784618E+01  0.51100000000E-03 0.  1.
         12    1    3    3    0    0  0.11068355787E+02  0.16873080076E+02  0.20190899792E+02  0.28546133985E+02  0.00000000000E+00 0. -1.
</event>
<event>
 7    1  0.2706925E-010  0.4778727E+02  0.7816164E-02  0.1312668E+00
        -11   -1    0    0    0    0  0.00000000000E+00  0.00000000000E+00  0.45593999997E+02  0.45594000000E+02  0.51100000000E-03 0. -1.
         11   -1    0    0    0    0 -0.00000000000E+00 -0.00000000000E+00 -0.45593999997E+02  0.45594000000E+02  0.51100000000E-03 0.  1.
    9900012    2    1    2    0    0  0.36210602735E+02  0.98650878070E+01 -0.21796691978E+02  0.47787268565E+02  0.19999988696E+02 0.  0.
         12    1    1    2    0    0 -0.36210602735E+02 -0.98650878070E+01  0.21796691978E+02  0.43400731435E+02  0.00000000000E+00 0. -1.
         11    1    3    3    0    0  0.19131602893E+02  0.15552421998E+01 -0.19565087711E+02  0.27408569188E+02  0.51100000000E-03 0. -1.
        -11    1    3    3    0    0  0.67237526395E+01  0.67227730440E+01  0.59865429479E+00  0.95269572365E+01  0.51100000000E-03 0.  1.
        -12    1    3    3    0    0  0.10355247203E+02  0.15870725631E+01 -0.28302585612E+01  0.10851742140E+02  0.00000000000E+00 0.  1.
</event>
<event>
 7    1  0.2706925E-010  0.4778728E+02  0.7816164E-02  0.1312668E+00
        -11   -1    0    0    0    0  0.00000000000E+00  0.00000000000E+00  0.45593999997E+02  0.45594000000E+02  0.51100000000E-03 0.  1.
         11   -1    0    0    0    0 -0.00000000000E+00 -0.00000000000E+00 -0.45593999997E+02  0.45594000000E+02  0.51100000000E-03 0. -1.
    9900012    2    1    2    0    0  0.41360924338E+01  0.37074567984E+02  0.22180891900E+02  0.47787276304E+02  0.20000023981E+02 0.  0.
         12    1    1    2    0    0 -0.41360924338E+01 -0.37074567984E+02 -0.22180891900E+02  0.43400723696E+02  0.00000000000E+00 0. -1.
         11    1    3    3    0    0  0.72566912491E+01  0.14441866552E+02  0.11789800089E+02  0.20005660794E+02  0.51100000000E-03 0. -1.
        -11    1    3    3    0    0  0.41705332844E+01  0.12339508102E+02  0.39060600372E+01  0.13598312886E+02  0.51100000000E-03 0.  1.
         12    1    3    3    0    0 -0.72911320996E+01  0.10293193331E+02  0.64850317741E+01  0.14183302625E+02  0.00000000000E+00 0. -1.
</event>
<event>
 7    1  0.2706925E-010  0.4778727E+02  0.7816164E-02  0.1312668E+00
        -11   -1    0    0    0    0  0.00000000000E+00  0.00000000000E+00  0.45593999997E+02  0.45594000000E+02  0.51100000000E-03 0.  1.
         11   -1    0    0    0    0 -0.00000000000E+00 -0.00000000000E+00 -0.45593999997E+02  0.45594000000E+02  0.51100000000E-03 0. -1.
    9900012    2    1    2    0    0  0.35617728417E+02  0.15331070080E+02  0.19492539671E+02  0.47787269704E+02  0.19999993888E+02 0.  0.
         12    1    1    2    0    0 -0.35617728417E+02 -0.15331070080E+02 -0.19492539671E+02  0.43400730296E+02  0.00000000000E+00 0. -1.
         11    1    3    3    0    0 -0.15956133616E+01 -0.21752520303E+00  0.37149459205E+01  0.40489656293E+01  0.51100000000E-03 0. -1.
        -11    1    3    3    0    0  0.24844995755E+02  0.12903498303E+02  0.12578948977E+02  0.30692084323E+02  0.51100000000E-03 0.  1.
         12    1    3    3    0    0  0.12368346024E+02  0.26450969804E+01  0.31986447743E+01  0.13046219751E+02  0.00000000000E+00 0. -1.
</event>
<event>
 7    1  0.2706925E-010  0.4778727E+02  0.7816164E-02  0.1312668E+00
        -11   -1    0    0    0    0  0.00000000000E+00  0.00000000000E+00  0.45593999997E+02  0.45594000000E+02  0.51100000000E-03 0.  1.
         11   -1    0    0    0    0 -0.00000000000E+00 -0.00000000000E+00 -0.45593999997E+02  0.45594000000E+02  0.51100000000E-03 0. -1.
    9900012    2    1    2    0    0  0.33790680745E+01  0.10262525885E+02  0.42034342137E+02  0.47787268929E+02  0.19999990354E+02 0.  0.
         12    1    1    2    0    0 -0.33790680745E+01 -0.10262525885E+02 -0.42034342137E+02  0.43400731071E+02  0.00000000000E+00 0. -1.
         11    1    3    3    0    0 -0.66438457350E+01  0.19696627517E+01  0.16809045258E+02  0.18181426244E+02  0.51100000000E-03 0. -1.
        -11    1    3    3    0    0  0.72198344116E+01  0.74614332868E+01  0.24476706369E+02  0.26587744368E+02  0.51100000000E-03 0.  1.
         12    1    3    3    0    0  0.28030793979E+01  0.83142984666E+00  0.74859051036E+00  0.30180983173E+01  0.00000000000E+00 0. -1.
</event>
<event>
 7    1  0.2706925E-010  0.4778728E+02  0.7816164E-02  0.1312668E+00
        -11   -1    0    0    0    0  0.00000000000E+00  0.00000000000E+00  0.45593999997E+02  0.45594000000E+02  0.51100000000E-03 0.  1.
         11   -1    0    0    0    0 -0.00000000000E+00 -0.00000000000E+00 -0.45593999997E+02  0.45594000000E+02  0.51100000000E-03 0. -1.
    9900012    2    1    2    0    0  0.12599559505E+02 -0.12891750481E+02  0.39480080787E+02  0.47787275247E+02  0.20000019159E+02 0.  0.
         12    1    1    2    0    0 -0.12599559505E+02  0.12891750481E+02 -0.39480080787E+02  0.43400724753E+02  0.00000000000E+00 0. -1.
         11    1    3    3    0    0  0.60265032680E+01 -0.13825619218E+02  0.11738710459E+02  0.19111876200E+02  0.51100000000E-03 0. -1.
        -11    1    3    3    0    0  0.11863041537E+00  0.58333113990E+00  0.99893076159E+00  0.11628462159E+01  0.51100000000E-03 0.  1.
         12    1    3    3    0    0  0.64544258211E+01  0.35053759657E+00  0.26742439566E+02  0.27512552830E+02  0.00000000000E+00 0. -1.
</event>
<event>
 7    1  0.2706925E-010  0.4778727E+02  0.7816164E-02  0.1312668E+00
        -11   -1    0    0    0    0  0.00000000000E+00  0.00000000000E+00  0.45593999997E+02  0.45594000000E+02  0.51100000000E-03 0.  1.
         11   -1    0    0    0    0 -0.00000000000E+00 -0.00000000000E+00 -0.45593999997E+02  0.45594000000E+02  0.51100000000E-03 0. -1.
    9900012    2    1    2    0    0  0.31078477145E+02 -0.12706633477E+02  0.27500783337E+02  0.47787270051E+02  0.19999995470E+02 0.  0.
         12    1    1    2    0    0 -0.31078477145E+02  0.12706633477E+02 -0.27500783337E+02  0.43400729949E+02  0.00000000000E+00 0. -1.
         11    1    3    3    0    0  0.14213356241E+01 -0.87179857582E+00  0.77154540280E+01  0.78935707276E+01  0.51100000000E-03 0.  1.
        -11    1    3    3    0    0  0.22159681864E+02 -0.14143000178E+02  0.17965175917E+02  0.31840595163E+02  0.51100000000E-03 0. -1.
        -12    1    3    3    0    0  0.74974596564E+01  0.23081652763E+01  0.18201533922E+01  0.80531041601E+01  0.00000000000E+00 0.  1.
</event>
<event>
 7    1  0.2706925E-010  0.4778726E+02  0.7816164E-02  0.1312668E+00
        -11   -1    0    0    0    0  0.00000000000E+00  0.00000000000E+00  0.45593999997E+02  0.45594000000E+02  0.51100000000E-03 0.  1.
         11   -1    0    0    0    0 -0.00000000000E+00 -0.00000000000E+00 -0.45593999997E+02  0.45594000000E+02  0.51100000000E-03 0. -1.
    9900012    2    1    2    0    0 -0.41197937003E+02  0.45226759665E+01 -0.12880196609E+02  0.47787261805E+02  0.19999957874E+02 0.  0.
         12    1    1    2    0    0  0.41197937003E+02 -0.45226759665E+01  0.12880196609E+02  0.43400738195E+02  0.00000000000E+00 0. -1.
         11    1    3    3    0    0 -0.42767370889E+01  0.13169152540E+01  0.40822705714E+01  0.60572006070E+01  0.51100000000E-03 0. -1.
        -11    1    3    3    0    0 -0.18126787010E+02 -0.26455501445E+01 -0.64979346270E+01  0.19437142217E+02  0.51100000000E-03 0.  1.
         12    1    3    3    0    0 -0.18794412904E+02  0.58513108570E+01 -0.10464532553E+02  0.22292918981E+02  0.00000000000E+00 0. -1.
</event>
<event>
 7    1  0.2706925E-010  0.4778727E+02  0.7816164E-02  0.1312668E+00
        -11   -1    0    0    0    0  0.00000000000E+00  0.00000000000E+00  0.45593999997E+02  0.45594000000E+02  0.51100000000E-03 0. -1.
         11   -1    0    0    0    0 -0.00000000000E+00 -0.00000000000E+00 -0.45593999997E+02  0.45594000000E+02  0.51100000000E-03 0.  1.
    9900012    2    1    2    0    0 -0.33246897705E+02  0.13119288963E+02 -0.24620135469E+02  0.47787273964E+02  0.20000013312E+02 0.  0.
         12    1    1    2    0    0  0.33246897705E+02 -0.13119288963E+02  0.24620135469E+02  0.43400726036E+02  0.00000000000E+00 0. -1.
         11    1    3    3    0    0 -0.23534275917E+02  0.20060593902E+01 -0.78932881270E+01  0.24903622526E+02  0.51100000000E-03 0. -1.
        -11    1    3    3    0    0 -0.89034127645E+01  0.69308839449E+01 -0.13097180942E+02  0.17287106757E+02  0.51100000000E-03 0.  1.
         12    1    3    3    0    0 -0.80920902371E+00  0.41823456282E+01 -0.36296663994E+01  0.55965446812E+01  0.00000000000E+00 0. -1.
</event>
<event>
 7    1  0.2706925E-010  0.4778727E+02  0.7816164E-02  0.1312668E+00
        -11   -1    0    0    0    0  0.00000000000E+00  0.00000000000E+00  0.45593999997E+02  0.45594000000E+02  0.51100000000E-03 0. -1.
         11   -1    0    0    0    0 -0.00000000000E+00 -0.00000000000E+00 -0.45593999997E+02  0.45594000000E+02  0.51100000000E-03 0.  1.
    9900012    2    1    2    0    0 -0.25273876628E+02 -0.25235944155E+02 -0.24657682990E+02  0.47787273651E+02  0.20000011884E+02 0.  0.
         12    1    1    2    0    0  0.25273876628E+02  0.25235944155E+02  0.24657682990E+02  0.43400726349E+02  0.00000000000E+00 0. -1.
         11    1    3    3    0    0 -0.16057395905E+01 -0.92260455999E+01 -0.54685857739E+00  0.93806914248E+01  0.51100000000E-03 0. -1.
        -11    1    3    3    0    0 -0.10547708403E+02 -0.12118724576E+02 -0.14887792963E+02  0.21903516098E+02  0.51100000000E-03 0.  1.
         12    1    3    3    0    0 -0.13120428635E+02 -0.38911739789E+01 -0.92230314492E+01  0.16503066128E+02  0.00000000000E+00 0. -1.
</event>
<event>
 7    1  0.2706925E-010  0.4778727E+02  0.7816164E-02  0.1312668E+00
        -11   -1    0    0    0    0  0.00000000000E+00  0.00000000000E+00  0.45593999997E+02  0.45594000000E+02  0.51100000000E-03 0.  1.
         11   -1    0    0    0    0 -0.00000000000E+00 -0.00000000000E+00 -0.45593999997E+02  0.45594000000E+02  0.51100000000E-03 0. -1.
    9900012    2    1    2    0    0  0.33197232701E+02 -0.14312009964E+02  0.24015281351E+02  0.47787266981E+02  0.19999981472E+02 0.  0.
         12    1    1    2    0    0 -0.33197232701E+02  0.14312009964E+02 -0.24015281351E+02  0.43400733019E+02  0.00000000000E+00 0. -1.
         11    1    3    3    0    0  0.83666908934E+01 -0.23607829061E+01  0.23645821950E+01  0.90092209238E+01  0.51100000000E-03 0. -1.
        -11    1    3    3    0    0  0.13486194621E+02 -0.14307174048E+02  0.90003626456E+01  0.21623579783E+02  0.51100000000E-03 0.  1.
        -12    1    3    3    0    0  0.11344347187E+02  0.23559469909E+01  0.12650336511E+02  0.17154466274E+02  0.00000000000E+00 0.  1.
</event>
<event>
 7    1  0.2706925E-010  0.4778727E+02  0.7816164E-02  0.1312668E+00
        -11   -1    0    0    0    0  0.00000000000E+00  0.00000000000E+00  0.45593999997E+02  0.45594000000E+02  0.51100000000E-03 0.  1.
         11   -1    0    0    0    0 -0.00000000000E+00 -0.00000000000E+00 -0.45593999997E+02  0.45594000000E+02  0.51100000000E-03 0. -1.
    9900012    2    1    2    0    0 -0.12374186275E+02  0.25248411557E+02  0.33060866798E+02  0.47787266302E+02  0.19999978376E+02 0.  0.
         12    1    1    2    0    0  0.12374186275E+02 -0.25248411557E+02 -0.33060866798E+02  0.43400733698E+02  0.00000000000E+00 0. -1.
         11    1    3    3    0    0  0.17988598984E+01  0.17172420588E+01  0.12181558797E+02  0.12432827201E+02  0.51100000000E-03 0. -1.
        -11    1    3    3    0    0 -0.39572782394E+01  0.14015281420E+02  0.11025843527E+02  0.18266291087E+02  0.51100000000E-03 0.  1.
         12    1    3    3    0    0 -0.10215767934E+02  0.95158880787E+01  0.98534644739E+01  0.17088148014E+02  0.00000000000E+00 0. -1.
</event>
<event>
 7    1  0.2706925E-010  0.4778727E+02  0.7816164E-02  0.1312668E+00
        -11   -1    0    0    0    0  0.00000000000E+00  0.00000000000E+00  0.45593999997E+02  0.45594000000E+02  0.51100000000E-03 0. -1.
         11   -1    0    0    0    0 -0.00000000000E+00 -0.00000000000E+00 -0.45593999997E+02  0.45594000000E+02  0.51100000000E-03 0.  1.
    9900012    2    1    2    0    0  0.77266384639E+01  0.36564708968E+02  0.22066815274E+02  0.47787271663E+02  0.20000002818E+02 0.  0.
         12    1    1    2    0    0 -0.77266384639E+01 -0.36564708968E+02 -0.22066815274E+02  0.43400728337E+02  0.00000000000E+00 0. -1.
         11    1    3    3    0    0 -0.49500817042E+01  0.15151830650E+02  0.93364912819E+01  0.18472989759E+02  0.51100000000E-03 0. -1.
        -11    1    3    3    0    0  0.60896945206E+01  0.13942264413E+02  0.32367443692E+01  0.15554665882E+02  0.51100000000E-03 0.  1.
         12    1    3    3    0    0  0.65870256475E+01  0.74706139051E+01  0.94935796234E+01  0.13759616022E+02  0.00000000000E+00 0. -1.
</event>
<event>
 7    1  0.2706925E-010  0.4778727E+02  0.7816164E-02  0.1312668E+00
        -11   -1    0    0    0    0  0.00000000000E+00  0.00000000000E+00  0.45593999997E+02  0.45594000000E+02  0.51100000000E-03 0.  1.
         11   -1    0    0    0    0 -0.00000000000E+00 -0.00000000000E+00 -0.45593999997E+02  0.45594000000E+02  0.51100000000E-03 0. -1.
    9900012    2    1    2    0    0 -0.40418867735E+02 -0.11213035279E+02  0.11144792237E+02  0.47787269325E+02  0.19999992159E+02 0.  0.
         12    1    1    2    0    0  0.40418867735E+02  0.11213035279E+02 -0.11144792237E+02  0.43400730675E+02  0.00000000000E+00 0. -1.
         11    1    3    3    0    0 -0.50094285947E+01  0.19971709787E+01  0.45204607941E+01  0.70368766378E+01  0.51100000000E-03 0. -1.
        -11    1    3    3    0    0 -0.19164891158E+02 -0.12569945031E+02 -0.67604150979E+00  0.22929317556E+02  0.51100000000E-03 0.  1.
        -12    1    3    3    0    0 -0.16244547982E+02 -0.64026122677E+00  0.73003729529E+01  0.17821075131E+02  0.00000000000E+00 0.  1.
</event>
<event>
 7    1  0.2706925E-010  0.4778727E+02  0.7816164E-02  0.1312668E+00
        -11   -1    0    0    0    0  0.00000000000E+00  0.00000000000E+00  0.45593999997E+02  0.45594000000E+02  0.51100000000E-03 0. -1.
         11   -1    0    0    0    0 -0.00000000000E+00 -0.00000000000E+00 -0.45593999997E+02  0.45594000000E+02  0.51100000000E-03 0.  1.
    9900012    2    1    2    0    0  0.19458550087E+02 -0.38321727455E+02  0.60360339358E+01  0.47787266454E+02  0.19999979072E+02 0.  0.
         12    1    1    2    0    0 -0.19458550087E+02  0.38321727455E+02 -0.60360339358E+01  0.43400733546E+02  0.00000000000E+00 0. -1.
         11    1    3    3    0    0  0.11129487494E+01 -0.94112823550E+01  0.64898405241E+01  0.11486031550E+02  0.51100000000E-03 0. -1.
        -11    1    3    3    0    0  0.17285385468E+02 -0.29548921978E+02  0.11774686198E+01  0.34253609641E+02  0.51100000000E-03 0.  1.
        -12    1    3    3    0    0  0.10602158699E+01  0.63847687773E+00 -0.16312752081E+01  0.20476252632E+01  0.00000000000E+00 0.  1.
</event>
<event>
 7    1  0.2706925E-010  0.4778727E+02  0.7816164E-02  0.1312668E+00
        -11   -1    0    0    0    0  0.00000000000E+00  0.00000000000E+00  0.45593999997E+02  0.45594000000E+02  0.51100000000E-03 0.  1.
         11   -1    0    0    0    0 -0.00000000000E+00 -0.00000000000E+00 -0.45593999997E+02  0.45594000000E+02  0.51100000000E-03 0. -1.
    9900012    2    1    2    0    0 -0.94957477481E+01 -0.20566937740E+02  0.37019661572E+02  0.47787268483E+02  0.19999988321E+02 0.  0.
         12    1    1    2    0    0  0.94957477481E+01  0.20566937740E+02 -0.37019661572E+02  0.43400731517E+02  0.00000000000E+00 0. -1.
         11    1    3    3    0    0 -0.17121761650E+01 -0.15195609753E+01  0.15710308786E+02  0.15876221691E+02  0.51100000000E-03 0. -1.
        -11    1    3    3    0    0 -0.12981555379E+00 -0.13282142917E+02  0.79822103606E+01  0.15496704651E+02  0.51100000000E-03 0.  1.
         12    1    3    3    0    0 -0.76537560293E+01 -0.57652338481E+01  0.13327142426E+02  0.16414342141E+02  0.00000000000E+00 0. -1.
</event>
<event>
 7    1  0.2706925E-010  0.4778727E+02  0.7816164E-02  0.1312668E+00
        -11   -1    0    0    0    0  0.00000000000E+00  0.00000000000E+00  0.45593999997E+02  0.45594000000E+02  0.51100000000E-03 0.  1.
         11   -1    0    0    0    0 -0.00000000000E+00 -0.00000000000E+00 -0.45593999997E+02  0.45594000000E+02  0.51100000000E-03 0. -1.
    9900012    2    1    2    0    0  0.10567181345E+02  0.52363047994E+01  0.41767675940E+02  0.47787274626E+02  0.20000016330E+02 0.  0.
         12    1    1    2    0    0 -0.10567181345E+02 -0.52363047994E+01 -0.41767675940E+02  0.43400725374E+02  0.00000000000E+00 0. -1.
         11    1    3    3    0    0  0.86729302479E+01 -0.31692246218E+01  0.10580390764E+02  0.14043089859E+02  0.51100000000E-03 0. -1.
        -11    1    3    3    0    0 -0.26814904612E+01  0.30060496467E+01  0.20724861821E+02  0.21112712363E+02  0.51100000000E-03 0.  1.
        -12    1    3    3    0    0  0.45757415589E+01  0.53994797745E+01  0.10462423355E+02  0.12631472405E+02  0.00000000000E+00 0.  1.
</event>
<event>
 7    1  0.2706925E-010  0.4778727E+02  0.7816164E-02  0.1312668E+00
        -11   -1    0    0    0    0  0.00000000000E+00  0.00000000000E+00  0.45593999997E+02  0.45594000000E+02  0.51100000000E-03 0.  1.
         11   -1    0    0    0    0 -0.00000000000E+00 -0.00000000000E+00 -0.45593999997E+02  0.45594000000E+02  0.51100000000E-03 0. -1.
    9900012    2    1    2    0    0  0.13123006582E+02  0.28984343331E+01  0.41267528299E+02  0.47787272872E+02  0.20000008333E+02 0.  0.
         12    1    1    2    0    0 -0.13123006582E+02 -0.28984343331E+01 -0.41267528299E+02  0.43400727128E+02  0.00000000000E+00 0. -1.
         11    1    3    3    0    0 -0.11710132992E+01 -0.26998731845E+01  0.20826796321E+02  0.21033688041E+02  0.51100000000E-03 0. -1.
        -11    1    3    3    0    0  0.99754755141E+01  0.19366502245E+01  0.17821783967E+02  0.20515279912E+02  0.51100000000E-03 0.  1.
         12    1    3    3    0    0  0.43185443673E+01  0.36616572932E+01  0.26189480109E+01  0.62383049195E+01  0.00000000000E+00 0. -1.
</event>
<event>
 7    1  0.2706925E-010  0.4778727E+02  0.7816164E-02  0.1312668E+00
        -11   -1    0    0    0    0  0.00000000000E+00  0.00000000000E+00  0.45593999997E+02  0.45594000000E+02  0.51100000000E-03 0. -1.
         11   -1    0    0    0    0 -0.00000000000E+00 -0.00000000000E+00 -0.45593999997E+02  0.45594000000E+02  0.51100000000E-03 0.  1.
    9900012    2    1    2    0    0  0.25210053939E+02  0.62516581038E+01 -0.34770578078E+02  0.47787272488E+02  0.20000006581E+02 0.  0.
         12    1    1    2    0    0 -0.25210053939E+02 -0.62516581038E+01  0.34770578078E+02  0.43400727512E+02  0.00000000000E+00 0. -1.
         11    1    3    3    0    0  0.10939330720E+02  0.46124595492E+01 -0.29489602665E+02  0.31789627323E+02  0.51100000000E-03 0.  1.
        -11    1    3    3    0    0  0.11470892196E+02 -0.43296872119E+00 -0.49428933664E+01  0.12498040838E+02  0.51100000000E-03 0. -1.
        -12    1    3    3    0    0  0.27998310235E+01  0.20721672758E+01 -0.33808204678E+00  0.34996043276E+01  0.00000000000E+00 0.  1.
</event>
<event>
 7    1  0.2706925E-010  0.4778733E+02  0.7816164E-02  0.1312667E+00
        -11   -1    0    0    0    0  0.00000000000E+00  0.00000000000E+00  0.45593999997E+02  0.45594000000E+02  0.51100000000E-03 0.  1.
         11   -1    0    0    0    0 -0.00000000000E+00 -0.00000000000E+00 -0.45593999997E+02  0.45594000000E+02  0.51100000000E-03 0. -1.
    9900012    2    1    2    0    0  0.11552865317E+02  0.20729234561E+02  0.36337970423E+02  0.47787332298E+02  0.20000279276E+02 0.  0.
         12    1    1    2    0    0 -0.11552865317E+02 -0.20729234561E+02 -0.36337970423E+02  0.43400667702E+02  0.00000000000E+00 0. -1.
         11    1    3    3    0    0  0.14108320887E+02  0.96208369047E+01  0.13180132572E+02  0.21571303064E+02  0.51100000000E-03 0.  1.
        -11    1    3    3    0    0 -0.38055095101E+01  0.73276321216E+01  0.14494068607E+02  0.16680950818E+02  0.51100000000E-03 0. -1.
         12    1    3    3    0    0  0.12500539401E+01  0.37807655349E+01  0.86637692439E+01  0.95350784157E+01  0.00000000000E+00 0. -1.
</event>
<event>
 7    1  0.2706925E-010  0.4778727E+02  0.7816164E-02  0.1312668E+00
        -11   -1    0    0    0    0  0.00000000000E+00  0.00000000000E+00  0.45593999997E+02  0.45594000000E+02  0.51100000000E-03 0. -1.
         11   -1    0    0    0    0 -0.00000000000E+00 -0.00000000000E+00 -0.45593999997E+02  0.45594000000E+02  0.51100000000E-03 0.  1.
    9900012    2    1    2    0    0 -0.28355499399E+02  0.28950323499E+02 -0.15539236717E+02  0.47787268962E+02  0.19999990507E+02 0.  0.
         12    1    1    2    0    0  0.28355499399E+02 -0.28950323499E+02  0.15539236717E+02  0.43400731038E+02  0.00000000000E+00 0. -1.
         11    1    3    3    0    0  0.16491742028E+01 -0.20939557970E+00  0.13125941199E+01  0.21181420266E+01  0.51100000000E-03 0. -1.
        -11    1    3    3    0    0 -0.18360995236E+02  0.12992745438E+02 -0.97880234057E+01  0.24530450109E+02  0.51100000000E-03 0.  1.
         12    1    3    3    0    0 -0.11643678366E+02  0.16166973640E+02 -0.70638074308E+01  0.21138676827E+02  0.00000000000E+00 0. -1.
</event>
<event>
 7    1  0.2706925E-010  0.4778728E+02  0.7816164E-02  0.1312668E+00
        -11   -1    0    0    0    0  0.00000000000E+00  0.00000000000E+00  0.45593999997E+02  0.45594000000E+02  0.51100000000E-03 0.  1.
         11   -1    0    0    0    0 -0.00000000000E+00 -0.00000000000E+00 -0.45593999997E+02  0.45594000000E+02  0.51100000000E-03 0. -1.
    9900012    2    1    2    0    0  0.31302691452E+02 -0.18915767390E+02  0.23365732877E+02  0.47787283174E+02  0.20000055303E+02 0.  0.
         12    1    1    2    0    0 -0.31302691452E+02  0.18915767390E+02 -0.23365732877E+02  0.43400716826E+02  0.00000000000E+00 0. -1.
         11    1    3    3    0    0  0.13096832379E+02  0.12401493161E+00  0.12625006585E+02  0.18191569190E+02  0.51100000000E-03 0. -1.
        -11    1    3    3    0    0  0.12455700340E+02 -0.17560208611E+02  0.94898765891E+01  0.23527922887E+02  0.51100000000E-03 0.  1.
         12    1    3    3    0    0  0.57501587332E+01 -0.14795737112E+01  0.12508497033E+01  0.60677910976E+01  0.00000000000E+00 0. -1.
</event>
<event>
 7    1  0.2706925E-010  0.4778726E+02  0.7816164E-02  0.1312668E+00
        -11   -1    0    0    0    0  0.00000000000E+00  0.00000000000E+00  0.45593999997E+02  0.45594000000E+02  0.51100000000E-03 0.  1.
         11   -1    0    0    0    0 -0.00000000000E+00 -0.00000000000E+00 -0.45593999997E+02  0.45594000000E+02  0.51100000000E-03 0. -1.
    9900012    2    1    2    0    0  0.30340312208E+02 -0.26898303269E+02  0.15478066720E+02  0.47787264833E+02  0.19999971679E+02 0.  0.
         12    1    1    2    0    0 -0.30340312208E+02  0.26898303269E+02 -0.15478066720E+02  0.43400735167E+02  0.00000000000E+00 0. -1.
         11    1    3    3    0    0  0.73470921455E+01 -0.16079035995E+02  0.32122543485E+01  0.17967574677E+02  0.51100000000E-03 0. -1.
        -11    1    3    3    0    0  0.14767474248E+02 -0.99424074367E+01  0.12137343747E+02  0.21546342492E+02  0.51100000000E-03 0.  1.
         12    1    3    3    0    0  0.82257458141E+01 -0.87685983777E+00  0.12846862519E+00  0.82733476635E+01  0.00000000000E+00 0. -1.
</event>
<event>
 7    1  0.2706925E-010  0.4778727E+02  0.7816164E-02  0.1312668E+00
        -11   -1    0    0    0    0  0.00000000000E+00  0.00000000000E+00  0.45593999997E+02  0.45594000000E+02  0.51100000000E-03 0.  1.
         11   -1    0    0    0    0 -0.00000000000E+00 -0.00000000000E+00 -0.45593999997E+02  0.45594000000E+02  0.51100000000E-03 0. -1.
    9900012    2    1    2    0    0  0.17718125340E+02  0.10673318177E+02  0.38154575754E+02  0.47787270312E+02  0.19999996662E+02 0.  0.
         12    1    1    2    0    0 -0.17718125340E+02 -0.10673318177E+02 -0.38154575754E+02  0.43400729688E+02  0.00000000000E+00 0. -1.
         11    1    3    3    0    0  0.16530983015E+02  0.23080509911E+01  0.22098149808E+02  0.27693478005E+02  0.51100000000E-03 0. -1.
        -11    1    3    3    0    0  0.22672889586E+01  0.39652806286E+01  0.14656551588E+02  0.15351825767E+02  0.51100000000E-03 0.  1.
         12    1    3    3    0    0 -0.10801466331E+01  0.43999865571E+01  0.13998743583E+01  0.47419665404E+01  0.00000000000E+00 0. -1.
</event>
<event>
 7    1  0.2706925E-010  0.4778727E+02  0.7816164E-02  0.1312668E+00
        -11   -1    0    0    0    0  0.00000000000E+00  0.00000000000E+00  0.45593999997E+02  0.45594000000E+02  0.51100000000E-03 0.  1.
         11   -1    0    0    0    0 -0.00000000000E+00 -0.00000000000E+00 -0.45593999997E+02  0.45594000000E+02  0.51100000000E-03 0. -1.
    9900012    2    1    2    0    0  0.55525413325E+01  0.33225921777E+02  0.27364769248E+02  0.47787272020E+02  0.20000004449E+02 0.  0.
         12    1    1    2    0    0 -0.55525413325E+01 -0.33225921777E+02 -0.27364769248E+02  0.43400727980E+02  0.00000000000E+00 0. -1.
         11    1    3    3    0    0  0.70417873152E+01  0.96099018357E+01  0.47470471247E+00  0.11923184420E+02  0.51100000000E-03 0. -1.
        -11    1    3    3    0    0 -0.12744084951E+01  0.20521421856E+02  0.22389933417E+02  0.30398387962E+02  0.51100000000E-03 0.  1.
         12    1    3    3    0    0 -0.21483748759E+00  0.30945980851E+01  0.45001311185E+01  0.54656996384E+01  0.00000000000E+00 0. -1.
</event>
<event>
 7    1  0.2706925E-010  0.4778727E+02  0.7816164E-02  0.1312668E+00
        -11   -1    0    0    0    0  0.00000000000E+00  0.00000000000E+00  0.45593999997E+02  0.45594000000E+02  0.51100000000E-03 0.  1.
         11   -1    0    0    0    0 -0.00000000000E+00 -0.00000000000E+00 -0.45593999997E+02  0.45594000000E+02  0.51100000000E-03 0. -1.
    9900012    2    1    2    0    0  0.16279083242E+02  0.12736482707E+02  0.38162763958E+02  0.47787273095E+02  0.20000009351E+02 0.  0.
         12    1    1    2    0    0 -0.16279083242E+02 -0.12736482707E+02 -0.38162763958E+02  0.43400726905E+02  0.00000000000E+00 0. -1.
         11    1    3    3    0    0  0.10445573205E+02  0.34574330459E+01  0.52716025307E+01  0.12200558854E+02  0.51100000000E-03 0. -1.
        -11    1    3    3    0    0  0.39166638761E+01 -0.18671022357E+00  0.10031184179E+02  0.10770319072E+02  0.51100000000E-03 0.  1.
         12    1    3    3    0    0  0.19168461609E+01  0.94657598847E+01  0.22859977248E+02  0.24816395169E+02  0.00000000000E+00 0. -1.
</event>
<event>
 7    1  0.2706925E-010  0.4778727E+02  0.7816164E-02  0.1312668E+00
        -11   -1    0    0    0    0  0.00000000000E+00  0.00000000000E+00  0.45593999997E+02  0.45594000000E+02  0.51100000000E-03 0. -1.
         11   -1    0    0    0    0 -0.00000000000E+00 -0.00000000000E+00 -0.45593999997E+02  0.45594000000E+02  0.51100000000E-03 0.  1.
    9900012    2    1    2    0    0 -0.17251259586E+02  0.37692786837E+02 -0.12855790886E+02  0.47787268484E+02  0.19999988325E+02 0.  0.
         12    1    1    2    0    0  0.17251259586E+02 -0.37692786837E+02  0.12855790886E+02  0.43400731516E+02  0.00000000000E+00 0. -1.
         11    1    3    3    0    0 -0.64703429446E+00  0.16032246554E+02 -0.30779780690E+01  0.16337855802E+02  0.51100000000E-03 0. -1.
        -11    1    3    3    0    0 -0.15878266595E+02  0.23133754124E+02 -0.83543294094E+01  0.29276009805E+02  0.51100000000E-03 0.  1.
        -12    1    3    3    0    0 -0.72595869712E+00 -0.14732138419E+01 -0.14234834078E+01  0.21734028771E+01  0.00000000000E+00 0.  1.
</event>
<event>
 7    1  0.2706925E-010  0.4778727E+02  0.7816164E-02  0.1312668E+00
        -11   -1    0    0    0    0  0.00000000000E+00  0.00000000000E+00  0.45593999997E+02  0.45594000000E+02  0.51100000000E-03 0.  1.
         11   -1    0    0    0    0 -0.00000000000E+00 -0.00000000000E+00 -0.45593999997E+02  0.45594000000E+02  0.51100000000E-03 0. -1.
    9900012    2    1    2    0    0  0.25231806051E+01  0.22588882868E+02  0.36972953822E+02  0.47787269777E+02  0.19999994221E+02 0.  0.
         12    1    1    2    0    0 -0.25231806051E+01 -0.22588882868E+02 -0.36972953822E+02  0.43400730223E+02  0.00000000000E+00 0. -1.
         11    1    3    3    0    0 -0.17004938297E+01  0.64551373326E+01  0.81496739043E+00  0.67249274610E+01  0.51100000000E-03 0. -1.
        -11    1    3    3    0    0 -0.28274949049E+01  0.77075892789E+01  0.18866769172E+02  0.20575632169E+02  0.51100000000E-03 0.  1.
         12    1    3    3    0    0  0.70511693398E+01  0.84261562564E+01  0.17291217260E+02  0.20486710147E+02  0.00000000000E+00 0. -1.
</event>
<event>
 7    1  0.2706925E-010  0.4778727E+02  0.7816164E-02  0.1312668E+00
        -11   -1    0    0    0    0  0.00000000000E+00  0.00000000000E+00  0.45593999997E+02  0.45594000000E+02  0.51100000000E-03 0.  1.
         11   -1    0    0    0    0 -0.00000000000E+00 -0.00000000000E+00 -0.45593999997E+02  0.45594000000E+02  0.51100000000E-03 0. -1.
    9900012    2    1    2    0    0  0.19242327716E+02 -0.16656690191E+02  0.35155522233E+02  0.47787271348E+02  0.20000001384E+02 0.  0.
         12    1    1    2    0    0 -0.19242327716E+02  0.16656690191E+02 -0.35155522233E+02  0.43400728652E+02  0.00000000000E+00 0. -1.
         11    1    3    3    0    0  0.74376237809E+01 -0.56033676079E+01  0.26090943385E+02  0.27702947551E+02  0.51100000000E-03 0.  1.
        -11    1    3    3    0    0 -0.47656165026E+00 -0.33490335779E+01  0.22662902364E+01  0.40717574350E+01  0.51100000000E-03 0. -1.
         12    1    3    3    0    0  0.12281265585E+02 -0.77042890050E+01  0.67982886122E+01  0.16012566362E+02  0.00000000000E+00 0. -1.
</event>
<event>
 7    1  0.2706925E-010  0.4778728E+02  0.7816164E-02  0.1312668E+00
        -11   -1    0    0    0    0  0.00000000000E+00  0.00000000000E+00  0.45593999997E+02  0.45594000000E+02  0.51100000000E-03 0. -1.
         11   -1    0    0    0    0 -0.00000000000E+00 -0.00000000000E+00 -0.45593999997E+02  0.45594000000E+02  0.51100000000E-03 0.  1.
    9900012    2    1    2    0    0  0.18801504334E+01 -0.35420102968E+02 -0.25010082327E+02  0.47787275606E+02  0.20000020798E+02 0.  0.
         12    1    1    2    0    0 -0.18801504334E+01  0.35420102968E+02  0.25010082327E+02  0.43400724394E+02  0.00000000000E+00 0. -1.
         11    1    3    3    0    0 -0.38035010849E+01 -0.15999395383E+02 -0.15664289216E+02  0.22711610027E+02  0.51100000000E-03 0. -1.
        -11    1    3    3    0    0 -0.39234251357E-01 -0.93055420078E+01 -0.97086289794E+01  0.13448127316E+02  0.51100000000E-03 0.  1.
         12    1    3    3    0    0  0.57228857697E+01 -0.10115165578E+02  0.36283586822E+00  0.11627538263E+02  0.00000000000E+00 0. -1.
</event>
<event>
 7    1  0.2706925E-010  0.4778727E+02  0.7816164E-02  0.1312668E+00
        -11   -1    0    0    0    0  0.00000000000E+00  0.00000000000E+00  0.45593999997E+02  0.45594000000E+02  0.51100000000E-03 0.  1.
         11   -1    0    0    0    0 -0.00000000000E+00 -0.00000000000E+00 -0.45593999997E+02  0.45594000000E+02  0.51100000000E-03 0. -1.
    9900012    2    1    2    0    0  0.26013352814E+02  0.29868519940E+02  0.17742611497E+02  0.47787271080E+02  0.20000000162E+02 0.  0.
         12    1    1    2    0    0 -0.26013352814E+02 -0.29868519940E+02 -0.17742611497E+02  0.43400728920E+02  0.00000000000E+00 0. -1.
         11    1    3    3    0    0 -0.24386756073E+01  0.32203015983E+01  0.33968126435E+01  0.52778610723E+01  0.51100000000E-03 0. -1.
        -11    1    3    3    0    0  0.26599572510E+02  0.20557055608E+02  0.11435650570E+02  0.35509208626E+02  0.51100000000E-03 0.  1.
        -12    1    3    3    0    0  0.18524559109E+01  0.60911627342E+01  0.29101482839E+01  0.70002013822E+01  0.00000000000E+00 0.  1.
</event>
<event>
 7    1  0.2706925E-010  0.4778727E+02  0.7816164E-02  0.1312668E+00
        -11   -1    0    0    0    0  0.00000000000E+00  0.00000000000E+00  0.45593999997E+02  0.45594000000E+02  0.51100000000E-03 0.  1.
         11   -1    0    0    0    0 -0.00000000000E+00 -0.00000000000E+00 -0.45593999997E+02  0.45594000000E+02  0.51100000000E-03 0. -1.
    9900012    2    1    2    0    0 -0.17134826554E+02  0.24804170084E+02  0.31221374261E+02  0.47787270221E+02  0.19999996246E+02 0.  0.
         12    1    1    2    0    0  0.17134826554E+02 -0.24804170084E+02 -0.31221374261E+02  0.43400729779E+02  0.00000000000E+00 0. -1.
         11    1    3    3    0    0 -0.41413493738E+01  0.76401380403E+01  0.27599765025E+01  0.91181113431E+01  0.51100000000E-03 0. -1.
        -11    1    3    3    0    0 -0.65940214769E+01  0.43919321951E+01  0.21224540527E+02  0.22655050397E+02  0.51100000000E-03 0.  1.
        -12    1    3    3    0    0 -0.63994557036E+01  0.12772099849E+02  0.72368572313E+01  0.16014108481E+02  0.00000000000E+00 0.  1.
</event>
<event>
 7    1  0.2706925E-010  0.4778727E+02  0.7816164E-02  0.1312668E+00
        -11   -1    0    0    0    0  0.00000000000E+00  0.00000000000E+00  0.45593999997E+02  0.45594000000E+02  0.51100000000E-03 0. -1.
         11   -1    0    0    0    0 -0.00000000000E+00 -0.00000000000E+00 -0.45593999997E+02  0.45594000000E+02  0.51100000000E-03 0.  1.
    9900012    2    1    2    0    0  0.29369343442E+02  0.28026021204E+02 -0.15349497279E+02  0.47787271141E+02  0.20000000442E+02 0.  0.
         12    1    1    2    0    0 -0.29369343442E+02 -0.28026021204E+02  0.15349497279E+02  0.43400728859E+02  0.00000000000E+00 0. -1.
         11    1    3    3    0    0  0.91798399932E+01  0.13624888435E+02 -0.11083287882E+02  0.19817828280E+02  0.51100000000E-03 0.  1.
        -11    1    3    3    0    0  0.12417898066E+02  0.12906439956E+02  0.17962924515E+01  0.18000195875E+02  0.51100000000E-03 0. -1.
        -12    1    3    3    0    0  0.77716053827E+01  0.14946928135E+01 -0.60625018481E+01  0.99692469871E+01  0.00000000000E+00 0.  1.
</event>
<event>
 7    1  0.2706925E-010  0.4778727E+02  0.7816164E-02  0.1312668E+00
        -11   -1    0    0    0    0  0.00000000000E+00  0.00000000000E+00  0.45593999997E+02  0.45594000000E+02  0.51100000000E-03 0.  1.
         11   -1    0    0    0    0 -0.00000000000E+00 -0.00000000000E+00 -0.45593999997E+02  0.45594000000E+02  0.51100000000E-03 0. -1.
    9900012    2    1    2    0    0  0.25557977569E+02 -0.30482728928E+02 -0.17355584179E+02  0.47787270945E+02  0.19999999545E+02 0.  0.
         12    1    1    2    0    0 -0.25557977569E+02  0.30482728928E+02  0.17355584179E+02  0.43400729055E+02  0.00000000000E+00 0. -1.
         11    1    3    3    0    0 -0.21205052273E+00 -0.21181176613E+01 -0.68891523694E+00  0.22374074989E+01  0.51100000000E-03 0. -1.
        -11    1    3    3    0    0  0.87426998440E+01 -0.21288065677E+02 -0.13950552765E+02  0.26911604626E+02  0.51100000000E-03 0.  1.
        -12    1    3    3    0    0  0.17027328248E+02 -0.70765455900E+01 -0.27161161770E+01  0.18638258820E+02  0.00000000000E+00 0.  1.
</event>
<event>
 7    1  0.2706925E-010  0.4778727E+02  0.7816164E-02  0.1312668E+00
        -11   -1    0    0    0    0  0.00000000000E+00  0.00000000000E+00  0.45593999997E+02  0.45594000000E+02  0.51100000000E-03 0.  1.
         11   -1    0    0    0    0 -0.00000000000E+00 -0.00000000000E+00 -0.45593999997E+02  0.45594000000E+02  0.51100000000E-03 0. -1.
    9900012    2    1    2    0    0 -0.31820267575E+02 -0.12002379885E-02  0.29514300349E+02  0.47787270109E+02  0.19999995735E+02 0.  0.
         12    1    1    2    0    0  0.31820267575E+02  0.12002379885E-02 -0.29514300349E+02  0.43400729891E+02  0.00000000000E+00 0. -1.
         11    1    3    3    0    0 -0.76132946391E+01 -0.78272578219E+01  0.95396186356E+01  0.14499398065E+02  0.51100000000E-03 0. -1.
        -11    1    3    3    0    0 -0.19303939013E+02  0.91333399927E+01  0.14441182430E+02  0.25779986639E+02  0.51100000000E-03 0.  1.
        -12    1    3    3    0    0 -0.49030339228E+01 -0.13072824087E+01  0.55334992827E+01  0.75078854051E+01  0.00000000000E+00 0.  1.
</event>
<event>
 7    1  0.2706925E-010  0.4778728E+02  0.7816164E-02  0.1312668E+00
        -11   -1    0    0    0    0  0.00000000000E+00  0.00000000000E+00  0.45593999997E+02  0.45594000000E+02  0.51100000000E-03 0.  1.
         11   -1    0    0    0    0 -0.00000000000E+00 -0.00000000000E+00 -0.45593999997E+02  0.45594000000E+02  0.51100000000E-03 0. -1.
    9900012    2    1    2    0    0  0.13209287302E+02 -0.40486473804E+02  0.83655885890E+01  0.47787275299E+02  0.20000019400E+02 0.  0.
         12    1    1    2    0    0 -0.13209287302E+02  0.40486473804E+02 -0.83655885890E+01  0.43400724701E+02  0.00000000000E+00 0. -1.
         11    1    3    3    0    0  0.25124683721E+00  0.17811715263E+01  0.12435346620E+00  0.18030976193E+01  0.51100000000E-03 0. -1.
        -11    1    3    3    0    0  0.10625109103E+02 -0.18447201075E+02  0.32517343655E+01  0.21535225739E+02  0.51100000000E-03 0.  1.
         12    1    3    3    0    0  0.23329313615E+01 -0.23820444255E+02  0.49895007574E+01  0.24448951942E+02  0.00000000000E+00 0. -1.
</event>
<event>
 7    1  0.2706925E-010  0.4778726E+02  0.7816164E-02  0.1312668E+00
        -11   -1    0    0    0    0  0.00000000000E+00  0.00000000000E+00  0.45593999997E+02  0.45594000000E+02  0.51100000000E-03 0.  1.
         11   -1    0    0    0    0 -0.00000000000E+00 -0.00000000000E+00 -0.45593999997E+02  0.45594000000E+02  0.51100000000E-03 0. -1.
    9900012    2    1    2    0    0 -0.22949595897E+02 -0.35147121217E+02  0.11028146329E+02  0.47787261606E+02  0.19999956966E+02 0.  0.
         12    1    1    2    0    0  0.22949595897E+02  0.35147121217E+02 -0.11028146329E+02  0.43400738394E+02  0.00000000000E+00 0. -1.
         11    1    3    3    0    0  0.26429640960E+01 -0.52415051943E+00  0.18368854689E+00  0.27006915268E+01  0.51100000000E-03 0. -1.
        -11    1    3    3    0    0 -0.20239900227E+02 -0.29703457220E+02  0.11620101971E+02  0.37775331925E+02  0.51100000000E-03 0.  1.
        -12    1    3    3    0    0 -0.53526597660E+01 -0.49195134782E+01 -0.77564418895E+00  0.73112381537E+01  0.00000000000E+00 0.  1.
</event>
<event>
 7    1  0.2706925E-010  0.4778724E+02  0.7816164E-02  0.1312668E+00
        -11   -1    0    0    0    0  0.00000000000E+00  0.00000000000E+00  0.45593999997E+02  0.45594000000E+02  0.51100000000E-03 0.  1.
         11   -1    0    0    0    0 -0.00000000000E+00 -0.00000000000E+00 -0.45593999997E+02  0.45594000000E+02  0.51100000000E-03 0. -1.
    9900012    2    1    2    0    0  0.10961908038E+02  0.24973780024E+02 -0.33760517517E+02  0.47787243561E+02  0.19999874691E+02 0.  0.
         12    1    1    2    0    0 -0.10961908038E+02 -0.24973780024E+02  0.33760517517E+02  0.43400756439E+02  0.00000000000E+00 0. -1.
         11    1    3    3    0    0  0.15263862270E+02  0.14990086780E+02 -0.27143270185E+02  0.34560748106E+02  0.51100000000E-03 0.  1.
        -11    1    3    3    0    0 -0.38658655751E+01  0.56938838161E+01 -0.53947429233E+01  0.87446258367E+01  0.51100000000E-03 0. -1.
        -12    1    3    3    0    0 -0.43608865689E+00  0.42898094279E+01 -0.12225044083E+01  0.44818696179E+01  0.00000000000E+00 0.  1.
</event>
<event>
 7    1  0.2706925E-010  0.4778733E+02  0.7816164E-02  0.1312667E+00
        -11   -1    0    0    0    0  0.00000000000E+00  0.00000000000E+00  0.45593999997E+02  0.45594000000E+02  0.51100000000E-03 0.  1.
         11   -1    0    0    0    0 -0.00000000000E+00 -0.00000000000E+00 -0.45593999997E+02  0.45594000000E+02  0.51100000000E-03 0. -1.
    9900012    2    1    2    0    0 -0.20309465263E+02  0.37916648721E+02  0.57854522823E+01  0.47787330793E+02  0.20000272417E+02 0.  0.
         12    1    1    2    0    0  0.20309465263E+02 -0.37916648721E+02 -0.57854522823E+01  0.43400669207E+02  0.00000000000E+00 0. -1.
         11    1    3    3    0    0 -0.19930383508E+00  0.23610749464E+01  0.43749140410E+01  0.49753663230E+01  0.51100000000E-03 0. -1.
        -11    1    3    3    0    0 -0.30386595713E+01  0.91465390383E+01 -0.47859026969E+01  0.10760924368E+02  0.51100000000E-03 0.  1.
        -12    1    3    3    0    0 -0.17071501857E+02  0.26409034736E+02  0.61964409382E+01  0.32051040102E+02  0.00000000000E+00 0.  1.
</event>
<event>
 7    1  0.2706925E-010  0.4778729E+02  0.7816164E-02  0.1312668E+00
        -11   -1    0    0    0    0  0.00000000000E+00  0.00000000000E+00  0.45593999997E+02  0.45594000000E+02  0.51100000000E-03 0.  1.
         11   -1    0    0    0    0 -0.00000000000E+00 -0.00000000000E+00 -0.45593999997E+02  0.45594000000E+02  0.51100000000E-03 0. -1.
    9900012    2    1    2    0    0  0.28445203254E+02 -0.26175764920E+02  0.19731226110E+02  0.47787291007E+02  0.20000091017E+02 0.  0.
         12    1    1    2    0    0 -0.28445203254E+02  0.26175764920E+02 -0.19731226110E+02  0.43400708993E+02  0.00000000000E+00 0. -1.
         11    1    3    3    0    0  0.24748234476E+01 -0.29458810877E+01 -0.22872682895E+01  0.44759985443E+01  0.51100000000E-03 0. -1.
        -11    1    3    3    0    0  0.95332971207E+01 -0.50962705527E+01  0.13722488029E+02  0.17468898233E+02  0.51100000000E-03 0.  1.
        -12    1    3    3    0    0  0.16437082686E+02 -0.18133613279E+02  0.82960063709E+01  0.25842394229E+02  0.00000000000E+00 0.  1.
</event>
<event>
 7    1  0.2706925E-010  0.4778727E+02  0.7816164E-02  0.1312668E+00
        -11   -1    0    0    0    0  0.00000000000E+00  0.00000000000E+00  0.45593999997E+02  0.45594000000E+02  0.51100000000E-03 0.  1.
         11   -1    0    0    0    0 -0.00000000000E+00 -0.00000000000E+00 -0.45593999997E+02  0.45594000000E+02  0.51100000000E-03 0. -1.
    9900012    2    1    2    0    0  0.43030629209E+02  0.55404119379E+01  0.11367071569E+01  0.47787270540E+02  0.19999997699E+02 0.  0.
         12    1    1    2    0    0 -0.43030629209E+02 -0.55404119379E+01 -0.11367071569E+01  0.43400729460E+02  0.00000000000E+00 0. -1.
         11    1    3    3    0    0  0.19235733393E+02  0.42405654722E+01 -0.44978614330E+01  0.20204618096E+02  0.51100000000E-03 0. -1.
        -11    1    3    3    0    0  0.24244640066E+02  0.13011171255E+01  0.76980884662E+01  0.25470689900E+02  0.51100000000E-03 0.  1.
        -12    1    3    3    0    0 -0.44974424991E+00 -0.12706597819E-02 -0.20635198764E+01  0.21119625435E+01  0.00000000000E+00 0.  1.
</event>
<event>
 7    1  0.2706925E-010  0.4778727E+02  0.7816164E-02  0.1312668E+00
        -11   -1    0    0    0    0  0.00000000000E+00  0.00000000000E+00  0.45593999997E+02  0.45594000000E+02  0.51100000000E-03 0. -1.
         11   -1    0    0    0    0 -0.00000000000E+00 -0.00000000000E+00 -0.45593999997E+02  0.45594000000E+02  0.51100000000E-03 0.  1.
    9900012    2    1    2    0    0  0.38633002813E+02  0.17623652313E+02 -0.89733790162E+01  0.47787267769E+02  0.19999985065E+02 0.  0.
         12    1    1    2    0    0 -0.38633002813E+02 -0.17623652313E+02  0.89733790162E+01  0.43400732231E+02  0.00000000000E+00 0. -1.
         11    1    3    3    0    0  0.25966172366E+02  0.61880251587E+01  0.12021559606E+01  0.26720384390E+02  0.51100000000E-03 0. -1.
        -11    1    3    3    0    0  0.46504547608E+01  0.71225015648E+01 -0.17950602548E+01  0.86936183262E+01  0.51100000000E-03 0.  1.
         12    1    3    3    0    0  0.80163756864E+01  0.43131255900E+01 -0.83804747220E+01  0.12373265053E+02  0.00000000000E+00 0. -1.
</event>
<event>
 7    1  0.2706925E-010  0.4778727E+02  0.7816164E-02  0.1312668E+00
        -11   -1    0    0    0    0  0.00000000000E+00  0.00000000000E+00  0.45593999997E+02  0.45594000000E+02  0.51100000000E-03 0. -1.
         11   -1    0    0    0    0 -0.00000000000E+00 -0.00000000000E+00 -0.45593999997E+02  0.45594000000E+02  0.51100000000E-03 0.  1.
    9900012    2    1    2    0    0  0.16078761509E+02 -0.29197259707E+02  0.27795984643E+02  0.47787270648E+02  0.19999998191E+02 0.  0.
         12    1    1    2    0    0 -0.16078761509E+02  0.29197259707E+02 -0.27795984643E+02  0.43400729352E+02  0.00000000000E+00 0. -1.
         11    1    3    3    0    0 -0.87515898427E+00  0.19879902125E+01  0.24383682437E+01  0.32655241977E+01  0.51100000000E-03 0. -1.
        -11    1    3    3    0    0  0.10551891371E+02 -0.10349839694E+02  0.95729207211E+01  0.17609724716E+02  0.51100000000E-03 0.  1.
         12    1    3    3    0    0  0.64020291219E+01 -0.20835410225E+02  0.15784695678E+02  0.26912021734E+02  0.00000000000E+00 0. -1.
</event>
<event>
 7    1  0.2706925E-010  0.4778727E+02  0.7816164E-02  0.1312668E+00
        -11   -1    0    0    0    0  0.00000000000E+00  0.00000000000E+00  0.45593999997E+02  0.45594000000E+02  0.51100000000E-03 0.  1.
         11   -1    0    0    0    0 -0.00000000000E+00 -0.00000000000E+00 -0.45593999997E+02  0.45594000000E+02  0.51100000000E-03 0. -1.
    9900012    2    1    2    0    0 -0.92810028272E-01 -0.22970197218E+01  0.43339800675E+02  0.47787271482E+02  0.20000001996E+02 0.  0.
         12    1    1    2    0    0  0.92810028272E-01  0.22970197218E+01 -0.43339800675E+02  0.43400728518E+02  0.00000000000E+00 0. -1.
         11    1    3    3    0    0  0.19513592887E+01  0.92787389085E-01  0.17353928153E+01  0.26130444041E+01  0.51100000000E-03 0. -1.
        -11    1    3    3    0    0  0.35042800671E+01 -0.85918094395E+01  0.21878156339E+02  0.23764530150E+02  0.51100000000E-03 0.  1.
        -12    1    3    3    0    0 -0.55484493841E+01  0.62020023286E+01  0.19726251521E+02  0.21409696928E+02  0.00000000000E+00 0.  1.
</event>
<event>
 7    1  0.2706925E-010  0.4778727E+02  0.7816164E-02  0.1312668E+00
        -11   -1    0    0    0    0  0.00000000000E+00  0.00000000000E+00  0.45593999997E+02  0.45594000000E+02  0.51100000000E-03 0.  1.
         11   -1    0    0    0    0 -0.00000000000E+00 -0.00000000000E+00 -0.45593999997E+02  0.45594000000E+02  0.51100000000E-03 0. -1.
    9900012    2    1    2    0    0  0.88403072693E+01 -0.36167809842E+02  0.22301602984E+02  0.47787274234E+02  0.20000014541E+02 0.  0.
         12    1    1    2    0    0 -0.88403072693E+01  0.36167809842E+02 -0.22301602984E+02  0.43400725766E+02  0.00000000000E+00 0. -1.
         11    1    3    3    0    0  0.35898816631E+01 -0.11372912223E+01 -0.13540735960E+01  0.40017742619E+01  0.51100000000E-03 0. -1.
        -11    1    3    3    0    0  0.21516131070E+01 -0.32877003099E+02  0.22259169190E+02  0.39761757821E+02  0.51100000000E-03 0.  1.
        -12    1    3    3    0    0  0.30988124992E+01 -0.21535155204E+01  0.13965073904E+01  0.40237421505E+01  0.00000000000E+00 0.  1.
</event>
<event>
 7    1  0.2706925E-010  0.4778727E+02  0.7816164E-02  0.1312668E+00
        -11   -1    0    0    0    0  0.00000000000E+00  0.00000000000E+00  0.45593999997E+02  0.45594000000E+02  0.51100000000E-03 0.  1.
         11   -1    0    0    0    0 -0.00000000000E+00 -0.00000000000E+00 -0.45593999997E+02  0.45594000000E+02  0.51100000000E-03 0. -1.
    9900012    2    1    2    0    0 -0.13862347321E+00 -0.36253739058E+02  0.23859391146E+02  0.47787270076E+02  0.19999995582E+02 0.  0.
         12    1    1    2    0    0  0.13862347321E+00  0.36253739058E+02 -0.23859391146E+02  0.43400729924E+02  0.00000000000E+00 0. -1.
         11    1    3    3    0    0  0.20444459343E+01 -0.58425071066E+01  0.14895355836E+01  0.63665818917E+01  0.51100000000E-03 0. -1.
        -11    1    3    3    0    0  0.39426962265E+01 -0.22509342800E+02  0.86282388391E+01  0.24426663148E+02  0.51100000000E-03 0.  1.
        -12    1    3    3    0    0 -0.61257656340E+01 -0.79018891515E+01  0.13741616723E+02  0.16994025036E+02  0.00000000000E+00 0.  1.
</event>
<event>
 7    1  0.2706925E-010  0.4778727E+02  0.7816164E-02  0.1312668E+00
        -11   -1    0    0    0    0  0.00000000000E+00  0.00000000000E+00  0.45593999997E+02  0.45594000000E+02  0.51100000000E-03 0. -1.
         11   -1    0    0    0    0 -0.00000000000E+00 -0.00000000000E+00 -0.45593999997E+02  0.45594000000E+02  0.51100000000E-03 0.  1.
    9900012    2    1    2    0    0  0.34201201195E+02 -0.17974374770E+02 -0.19769239232E+02  0.47787272687E+02  0.20000007488E+02 0.  0.
         12    1    1    2    0    0 -0.34201201195E+02  0.17974374770E+02  0.19769239232E+02  0.43400727313E+02  0.00000000000E+00 0. -1.
         11    1    3    3    0    0 -0.15373257736E+01  0.95695490540E+00 -0.23932846283E+01  0.30011572432E+01  0.51100000000E-03 0. -1.
        -11    1    3    3    0    0  0.28428069953E+02 -0.18192915490E+02 -0.12618846447E+02  0.36032938004E+02  0.51100000000E-03 0.  1.
         12    1    3    3    0    0  0.73104570152E+01 -0.73841418537E+00 -0.47571081567E+01  0.87531774399E+01  0.00000000000E+00 0. -1.
</event>
<event>
 7    1  0.2706925E-010  0.4778724E+02  0.7816164E-02  0.1312668E+00
        -11   -1    0    0    0    0  0.00000000000E+00  0.00000000000E+00  0.45593999997E+02  0.45594000000E+02  0.51100000000E-03 0. -1.
         11   -1    0    0    0    0 -0.00000000000E+00 -0.00000000000E+00 -0.45593999997E+02  0.45594000000E+02  0.51100000000E-03 0.  1.
    9900012    2    1    2    0    0  0.27303873309E+02  0.28398569826E+02  0.18211145079E+02  0.47787238821E+02  0.19999853079E+02 0.  0.
         12    1    1    2    0    0 -0.27303873309E+02 -0.28398569826E+02 -0.18211145079E+02  0.43400761179E+02  0.00000000000E+00 0. -1.
         11    1    3    3    0    0  0.16063353066E+02  0.14415084606E+02  0.20069129933E+01  0.21676108413E+02  0.51100000000E-03 0. -1.
        -11    1    3    3    0    0  0.12742684194E+02  0.11249505352E+02  0.11712552180E+02  0.20642462304E+02  0.51100000000E-03 0.  1.
         12    1    3    3    0    0 -0.15021639509E+01  0.27339798690E+01  0.44916799059E+01  0.54686681044E+01  0.00000000000E+00 0. -1.
</event>
<event>
 7    1  0.2706925E-010  0.4778728E+02  0.7816164E-02  0.1312668E+00
        -11   -1    0    0    0    0  0.00000000000E+00  0.00000000000E+00  0.45593999997E+02  0.45594000000E+02  0.51100000000E-03 0.  1.
         11   -1    0    0    0    0 -0.00000000000E+00 -0.00000000000E+00 -0.45593999997E+02  0.45594000000E+02  0.51100000000E-03 0. -1.
    9900012    2    1    2    0    0  0.99782773408E-01  0.15403017590E+02  0.40575361686E+02  0.47787275543E+02  0.20000020510E+02 0.  0.
         12    1    1    2    0    0 -0.99782773408E-01 -0.15403017590E+02 -0.40575361686E+02  0.43400724457E+02  0.00000000000E+00 0. -1.
         11    1    3    3    0    0 -0.42929647297E+01  0.14127605408E+02  0.17825699503E+02  0.23146799860E+02  0.51100000000E-03 0. -1.
        -11    1    3    3    0    0  0.97213198558E+00 -0.34219407608E+01  0.69787444004E+01  0.78331087593E+01  0.51100000000E-03 0.  1.
        -12    1    3    3    0    0  0.34206155175E+01  0.46973529425E+01  0.15770917783E+02  0.16807366923E+02  0.00000000000E+00 0.  1.
</event>
<event>
 7    1  0.2706925E-010  0.4778727E+02  0.7816164E-02  0.1312668E+00
        -11   -1    0    0    0    0  0.00000000000E+00  0.00000000000E+00  0.45593999997E+02  0.45594000000E+02  0.51100000000E-03 0.  1.
         11   -1    0    0    0    0 -0.00000000000E+00 -0.00000000000E+00 -0.45593999997E+02  0.45594000000E+02  0.51100000000E-03 0. -1.
    9900012    2    1    2    0    0 -0.25829625890E+00 -0.19199317685E+02  0.38922264389E+02  0.47787272107E+02  0.20000004843E+02 0.  0.
         12    1    1    2    0    0  0.25829625890E+00  0.19199317685E+02 -0.38922264389E+02  0.43400727893E+02  0.00000000000E+00 0. -1.
         11    1    3    3    0    0 -0.91865538591E+01 -0.13664915594E+02  0.21280095324E+02  0.26906600441E+02  0.51100000000E-03 0. -1.
        -11    1    3    3    0    0  0.74007910945E+01 -0.58899623934E+01  0.13795664293E+02  0.16726736662E+02  0.51100000000E-03 0.  1.
        -12    1    3    3    0    0  0.15274665058E+01  0.35556030318E+00  0.38465047715E+01  0.41539350034E+01  0.00000000000E+00 0.  1.
</event>
<event>
 7    1  0.2706925E-010  0.4778728E+02  0.7816164E-02  0.1312668E+00
        -11   -1    0    0    0    0  0.00000000000E+00  0.00000000000E+00  0.45593999997E+02  0.45594000000E+02  0.51100000000E-03 0.  1.
         11   -1    0    0    0    0 -0.00000000000E+00 -0.00000000000E+00 -0.45593999997E+02  0.45594000000E+02  0.51100000000E-03 0. -1.
    9900012    2    1    2    0    0 -0.20792200075E+02 -0.51976499730E+01  0.37739783978E+02  0.47787280607E+02  0.20000043598E+02 0.  0.
         12    1    1    2    0    0  0.20792200075E+02  0.51976499730E+01 -0.37739783978E+02  0.43400719393E+02  0.00000000000E+00 0. -1.
         11    1    3    3    0    0 -0.12266509566E+01  0.21173598652E+01 -0.12905327361E+01  0.27664707430E+01  0.51100000000E-03 0. -1.
        -11    1    3    3    0    0 -0.20049339688E+02 -0.70160790274E+01  0.34932716093E+02  0.40883933773E+02  0.51100000000E-03 0.  1.
         12    1    3    3    0    0  0.48379056957E+00 -0.29893081072E+00  0.40976006203E+01  0.41368760905E+01  0.00000000000E+00 0. -1.
</event>
<event>
 7    1  0.2706925E-010  0.4778727E+02  0.7816164E-02  0.1312668E+00
        -11   -1    0    0    0    0  0.00000000000E+00  0.00000000000E+00  0.45593999997E+02  0.45594000000E+02  0.51100000000E-03 0.  1.
         11   -1    0    0    0    0 -0.00000000000E+00 -0.00000000000E+00 -0.45593999997E+02  0.45594000000E+02  0.51100000000E-03 0. -1.
    9900012    2    1    2    0    0 -0.14640146691E+02  0.24376842276E+02  0.32788088537E+02  0.47787273227E+02  0.20000009953E+02 0.  0.
         12    1    1    2    0    0  0.14640146691E+02 -0.24376842276E+02 -0.32788088537E+02  0.43400726773E+02  0.00000000000E+00 0. -1.
         11    1    3    3    0    0 -0.10860988924E+02  0.69511584165E+01  0.23215537262E+02  0.26556371258E+02  0.51100000000E-03 0. -1.
        -11    1    3    3    0    0 -0.49544810430E+01  0.16944978442E+02  0.86388130409E+01  0.19654726348E+02  0.51100000000E-03 0.  1.
         12    1    3    3    0    0  0.11753232755E+01  0.48070541717E+00  0.93373823374E+00  0.15761756213E+01  0.00000000000E+00 0. -1.
</event>
<event>
 7    1  0.2706925E-010  0.4778727E+02  0.7816164E-02  0.1312668E+00
        -11   -1    0    0    0    0  0.00000000000E+00  0.00000000000E+00  0.45593999997E+02  0.45594000000E+02  0.51100000000E-03 0.  1.
         11   -1    0    0    0    0 -0.00000000000E+00 -0.00000000000E+00 -0.45593999997E+02  0.45594000000E+02  0.51100000000E-03 0. -1.
    9900012    2    1    2    0    0 -0.12094449340E+02  0.41463089052E+02 -0.42614396342E+01  0.47787270440E+02  0.19999997246E+02 0.  0.
         12    1    1    2    0    0  0.12094449340E+02 -0.41463089052E+02  0.42614396342E+01  0.43400729560E+02  0.00000000000E+00 0. -1.
         11    1    3    3    0    0  0.33343862110E+01  0.26616482921E+01 -0.14812887161E+01  0.45162727504E+01  0.51100000000E-03 0. -1.
        -11    1    3    3    0    0 -0.14202605485E+02  0.38802182151E+02 -0.40352166933E+01  0.41516337944E+02  0.51100000000E-03 0.  1.
        -12    1    3    3    0    0 -0.12262300661E+01 -0.74139129373E-03  0.12550657752E+01  0.17546597462E+01  0.00000000000E+00 0.  1.
</event>
<event>
 7    1  0.2706925E-010  0.4778731E+02  0.7816164E-02  0.1312668E+00
        -11   -1    0    0    0    0  0.00000000000E+00  0.00000000000E+00  0.45593999997E+02  0.45594000000E+02  0.51100000000E-03 0.  1.
         11   -1    0    0    0    0 -0.00000000000E+00 -0.00000000000E+00 -0.45593999997E+02  0.45594000000E+02  0.51100000000E-03 0. -1.
    9900012    2    1    2    0    0  0.19024304353E+02  0.29208171424E+02  0.25856887152E+02  0.47787308217E+02  0.20000169484E+02 0.  0.
         12    1    1    2    0    0 -0.19024304353E+02 -0.29208171424E+02 -0.25856887152E+02  0.43400691783E+02  0.00000000000E+00 0. -1.
         11    1    3    3    0    0 -0.14145200889E+01 -0.30281333949E+00 -0.79083473566E+00  0.16486305956E+01  0.51100000000E-03 0. -1.
        -11    1    3    3    0    0  0.10802183799E+02  0.12829137483E+02  0.19175879067E+02  0.25475248411E+02  0.51100000000E-03 0.  1.
        -12    1    3    3    0    0  0.96366406429E+01  0.16681847281E+02  0.74718428215E+01  0.20663429210E+02  0.00000000000E+00 0.  1.
</event>
<event>
 7    1  0.2706925E-010  0.4778727E+02  0.7816164E-02  0.1312668E+00
        -11   -1    0    0    0    0  0.00000000000E+00  0.00000000000E+00  0.45593999997E+02  0.45594000000E+02  0.51100000000E-03 0. -1.
         11   -1    0    0    0    0 -0.00000000000E+00 -0.00000000000E+00 -0.45593999997E+02  0.45594000000E+02  0.51100000000E-03 0.  1.
    9900012    2    1    2    0    0  0.12634828755E+02 -0.39924735569E+02  0.11401761147E+02  0.47787267688E+02  0.19999984698E+02 0.  0.
         12    1    1    2    0    0 -0.12634828755E+02  0.39924735569E+02 -0.11401761147E+02  0.43400732312E+02  0.00000000000E+00 0. -1.
         11    1    3    3    0    0  0.15366414534E+01 -0.34391784069E+01 -0.40871976968E+01  0.55582731441E+01  0.51100000000E-03 0. -1.
        -11    1    3    3    0    0  0.11765485143E+02 -0.23996085550E+02  0.95180745381E+01  0.28369570063E+02  0.51100000000E-03 0.  1.
         12    1    3    3    0    0 -0.66729784131E+00 -0.12489471612E+02  0.59708843062E+01  0.13859424481E+02  0.00000000000E+00 0. -1.
</event>
<event>
 7    1  0.2706925E-010  0.4778727E+02  0.7816164E-02  0.1312668E+00
        -11   -1    0    0    0    0  0.00000000000E+00  0.00000000000E+00  0.45593999997E+02  0.45594000000E+02  0.51100000000E-03 0.  1.
         11   -1    0    0    0    0 -0.00000000000E+00 -0.00000000000E+00 -0.45593999997E+02  0.45594000000E+02  0.51100000000E-03 0. -1.
    9900012    2    1    2    0    0  0.12870429982E+02  0.32963829009E+02  0.25126911705E+02  0.47787266335E+02  0.19999978526E+02 0.  0.
         12    1    1    2    0    0 -0.12870429982E+02 -0.32963829009E+02 -0.25126911705E+02  0.43400733665E+02  0.00000000000E+00 0. -1.
         11    1    3    3    0    0  0.18211623289E+01  0.15570195505E+02  0.19930625822E+02  0.25357000340E+02  0.51100000000E-03 0. -1.
        -11    1    3    3    0    0  0.57551897697E+01  0.14884404922E+02  0.36320989135E+01  0.16366424837E+02  0.51100000000E-03 0.  1.
         12    1    3    3    0    0  0.52940778833E+01  0.25092285822E+01  0.15641869688E+01  0.60638411577E+01  0.00000000000E+00 0. -1.
</event>
<event>
 7    1  0.2706925E-010  0.4778727E+02  0.7816164E-02  0.1312668E+00
        -11   -1    0    0    0    0  0.00000000000E+00  0.00000000000E+00  0.45593999997E+02  0.45594000000E+02  0.51100000000E-03 0.  1.
         11   -1    0    0    0    0 -0.00000000000E+00 -0.00000000000E+00 -0.45593999997E+02  0.45594000000E+02  0.51100000000E-03 0. -1.
    9900012    2    1    2    0    0 -0.15920114090E+02  0.39680183552E+02 -0.74603192562E+01  0.47787270020E+02  0.19999995330E+02 0.  0.
         12    1    1    2    0    0  0.15920114090E+02 -0.39680183552E+02  0.74603192562E+01  0.43400729980E+02  0.00000000000E+00 0. -1.
         11    1    3    3    0    0  0.19637786422E+01  0.13364775068E+02  0.17755042742E+00  0.13509447198E+02  0.51100000000E-03 0. -1.
        -11    1    3    3    0    0 -0.27420096655E+01  0.11717457484E+02 -0.42102420446E+00  0.12041374030E+02  0.51100000000E-03 0.  1.
         12    1    3    3    0    0 -0.15141883067E+02  0.14597951000E+02 -0.72168454792E+01  0.22236448792E+02  0.00000000000E+00 0. -1.
</event>
<event>
 7    1  0.2706925E-010  0.4778727E+02  0.7816164E-02  0.1312668E+00
        -11   -1    0    0    0    0  0.00000000000E+00  0.00000000000E+00  0.45593999997E+02  0.45594000000E+02  0.51100000000E-03 0. -1.
         11   -1    0    0    0    0 -0.00000000000E+00 -0.00000000000E+00 -0.45593999997E+02  0.45594000000E+02  0.51100000000E-03 0.  1.
    9900012    2    1    2    0    0  0.38866852265E+02 -0.16403948042E+02 -0.10193210295E+02  0.47787271291E+02  0.20000001124E+02 0.  0.
         12    1    1    2    0    0 -0.38866852265E+02  0.16403948042E+02  0.10193210295E+02  0.43400728709E+02  0.00000000000E+00 0. -1.
         11    1    3    3    0    0  0.99820028732E+01 -0.32968847458E+01 -0.72090872497E+00  0.10537055568E+02  0.51100000000E-03 0.  1.
        -11    1    3    3    0    0  0.82409666085E+01 -0.56030487594E+01  0.47939842298E+01  0.11058479602E+02  0.51100000000E-03 0. -1.
        -12    1    3    3    0    0  0.20643882784E+02 -0.75040145364E+01 -0.14266285799E+02  0.26191736121E+02  0.00000000000E+00 0.  1.
</event>
<event>
 7    1  0.2706925E-010  0.4778727E+02  0.7816164E-02  0.1312668E+00
        -11   -1    0    0    0    0  0.00000000000E+00  0.00000000000E+00  0.45593999997E+02  0.45594000000E+02  0.51100000000E-03 0. -1.
         11   -1    0    0    0    0 -0.00000000000E+00 -0.00000000000E+00 -0.45593999997E+02  0.45594000000E+02  0.51100000000E-03 0.  1.
    9900012    2    1    2    0    0 -0.33749058456E+02  0.79407441405E+01 -0.26106872940E+02  0.47787272139E+02  0.20000004989E+02 0.  0.
         12    1    1    2    0    0  0.33749058456E+02 -0.79407441405E+01  0.26106872940E+02  0.43400727861E+02  0.00000000000E+00 0. -1.
         11    1    3    3    0    0 -0.80089456873E+01  0.69257045144E+01 -0.69881349353E+01  0.12686316415E+02  0.51100000000E-03 0. -1.
        -11    1    3    3    0    0 -0.50071607970E+01  0.60153602820E+01 -0.30592605882E+01  0.84032906755E+01  0.51100000000E-03 0.  1.
        -12    1    3    3    0    0 -0.20732951972E+02 -0.50003206560E+01 -0.16059477417E+02  0.26697665048E+02  0.00000000000E+00 0.  1.
</event>
<event>
 7    1  0.2706925E-010  0.4778727E+02  0.7816164E-02  0.1312668E+00
        -11   -1    0    0    0    0  0.00000000000E+00  0.00000000000E+00  0.45593999997E+02  0.45594000000E+02  0.51100000000E-03 0.  1.
         11   -1    0    0    0    0 -0.00000000000E+00 -0.00000000000E+00 -0.45593999997E+02  0.45594000000E+02  0.51100000000E-03 0. -1.
    9900012    2    1    2    0    0  0.81212080049E+01 -0.70669464408E+01  0.42044349828E+02  0.47787273002E+02  0.20000008927E+02 0.  0.
         12    1    1    2    0    0 -0.81212080049E+01  0.70669464408E+01 -0.42044349828E+02  0.43400726998E+02  0.00000000000E+00 0. -1.
         11    1    3    3    0    0  0.78120296076E+01  0.16703177815E+01  0.85570525381E+01  0.11706447646E+02  0.51100000000E-03 0. -1.
        -11    1    3    3    0    0 -0.55654342759E+00 -0.90541671791E+01  0.14718217982E+02  0.17289118680E+02  0.51100000000E-03 0.  1.
        -12    1    3    3    0    0  0.86572182487E+00  0.31690295678E+00  0.18769079308E+02  0.18791706677E+02  0.00000000000E+00 0.  1.
</event>
<event>
 7    1  0.2706925E-010  0.4778727E+02  0.7816164E-02  0.1312668E+00
        -11   -1    0    0    0    0  0.00000000000E+00  0.00000000000E+00  0.45593999997E+02  0.45594000000E+02  0.51100000000E-03 0. -1.
         11   -1    0    0    0    0 -0.00000000000E+00 -0.00000000000E+00 -0.45593999997E+02  0.45594000000E+02  0.51100000000E-03 0.  1.
    9900012    2    1    2    0    0  0.10135767046E+02 -0.38498807603E+01 -0.42024607368E+02  0.47787274431E+02  0.20000015440E+02 0.  0.
         12    1    1    2    0    0 -0.10135767046E+02  0.38498807603E+01  0.42024607368E+02  0.43400725569E+02  0.00000000000E+00 0. -1.
         11    1    3    3    0    0  0.90177536398E+01 -0.89678812805E+00 -0.70073855913E+01  0.11455459953E+02  0.51100000000E-03 0. -1.
        -11    1    3    3    0    0  0.13991533684E+00 -0.43152297864E+01 -0.67359058889E+01  0.80008257584E+01  0.51100000000E-03 0.  1.
         12    1    3    3    0    0  0.97809806918E+00  0.13621371542E+01 -0.28281315888E+02  0.28330988719E+02  0.00000000000E+00 0. -1.
</event>
<event>
 7    1  0.2706925E-010  0.4778727E+02  0.7816164E-02  0.1312668E+00
        -11   -1    0    0    0    0  0.00000000000E+00  0.00000000000E+00  0.45593999997E+02  0.45594000000E+02  0.51100000000E-03 0.  1.
         11   -1    0    0    0    0 -0.00000000000E+00 -0.00000000000E+00 -0.45593999997E+02  0.45594000000E+02  0.51100000000E-03 0. -1.
    9900012    2    1    2    0    0  0.41736575586E+02 -0.83835734006E+00 -0.11873448838E+02  0.47787269914E+02  0.19999994847E+02 0.  0.
         12    1    1    2    0    0 -0.41736575586E+02  0.83835734006E+00  0.11873448838E+02  0.43400730086E+02  0.00000000000E+00 0. -1.
         11    1    3    3    0    0 -0.52616027042E+00  0.13873484821E+01  0.18012799879E+00  0.14946661159E+01  0.51100000000E-03 0. -1.
        -11    1    3    3    0    0  0.42682450565E+02 -0.39544337614E+01 -0.11998331114E+02  0.44512796839E+02  0.51100000000E-03 0.  1.
        -12    1    3    3    0    0 -0.41971470861E+00  0.17287279393E+01 -0.55245722394E-01  0.17798069599E+01  0.00000000000E+00 0.  1.
</event>
<event>
 7    1  0.2706925E-010  0.4778726E+02  0.7816164E-02  0.1312668E+00
        -11   -1    0    0    0    0  0.00000000000E+00  0.00000000000E+00  0.45593999997E+02  0.45594000000E+02  0.51100000000E-03 0.  1.
         11   -1    0    0    0    0 -0.00000000000E+00 -0.00000000000E+00 -0.45593999997E+02  0.45594000000E+02  0.51100000000E-03 0. -1.
    9900012    2    1    2    0    0 -0.43668861711E+01 -0.41903683028E+02 -0.10422862601E+02  0.47787257945E+02  0.19999940273E+02 0.  0.
         12    1    1    2    0    0  0.43668861711E+01  0.41903683028E+02  0.10422862601E+02  0.43400742055E+02  0.00000000000E+00 0. -1.
         11    1    3    3    0    0  0.50778324687E+01 -0.20465721976E+02  0.50498693318E+00  0.21092301218E+02  0.51100000000E-03 0. -1.
        -11    1    3    3    0    0 -0.77454820921E+01 -0.16954456525E+02 -0.54610259559E+01  0.19423410968E+02  0.51100000000E-03 0.  1.
        -12    1    3    3    0    0 -0.16992365478E+01 -0.44835045268E+01 -0.54668235778E+01  0.72715457585E+01  0.00000000000E+00 0.  1.
</event>
<event>
 7    1  0.2706925E-010  0.4778726E+02  0.7816164E-02  0.1312668E+00
        -11   -1    0    0    0    0  0.00000000000E+00  0.00000000000E+00  0.45593999997E+02  0.45594000000E+02  0.51100000000E-03 0.  1.
         11   -1    0    0    0    0 -0.00000000000E+00 -0.00000000000E+00 -0.45593999997E+02  0.45594000000E+02  0.51100000000E-03 0. -1.
    9900012    2    1    2    0    0 -0.20615962176E+02  0.27064148586E+02  0.26946946153E+02  0.47787263346E+02  0.19999964899E+02 0.  0.
         12    1    1    2    0    0  0.20615962176E+02 -0.27064148586E+02 -0.26946946153E+02  0.43400736654E+02  0.00000000000E+00 0. -1.
         11    1    3    3    0    0 -0.23866356619E+01  0.90502535802E+00 -0.25844173748E-01  0.25526004121E+01  0.51100000000E-03 0.  1.
        -11    1    3    3    0    0 -0.18279438395E+02  0.12979461565E+02  0.12532454041E+02  0.25683977401E+02  0.51100000000E-03 0. -1.
        -12    1    3    3    0    0  0.50111881699E-01  0.13179661663E+02  0.14440336286E+02  0.19550685533E+02  0.00000000000E+00 0.  1.
</event>
<event>
 7    1  0.2706925E-010  0.4778727E+02  0.7816164E-02  0.1312668E+00
        -11   -1    0    0    0    0  0.00000000000E+00  0.00000000000E+00  0.45593999997E+02  0.45594000000E+02  0.51100000000E-03 0. -1.
         11   -1    0    0    0    0 -0.00000000000E+00 -0.00000000000E+00 -0.45593999997E+02  0.45594000000E+02  0.51100000000E-03 0.  1.
    9900012    2    1    2    0    0  0.90193462566E+01 -0.20209976773E+02 -0.37334050530E+02  0.47787273082E+02  0.20000009289E+02 0.  0.
         12    1    1    2    0    0 -0.90193462566E+01  0.20209976773E+02  0.37334050530E+02  0.43400726918E+02  0.00000000000E+00 0. -1.
         11    1    3    3    0    0  0.52177154596E+01 -0.15113879355E+01 -0.17961753203E+02  0.18765218531E+02  0.51100000000E-03 0. -1.
        -11    1    3    3    0    0  0.22112404400E+01 -0.18528648259E+02 -0.19954446490E+02  0.27319962034E+02  0.51100000000E-03 0.  1.
        -12    1    3    3    0    0  0.15903903570E+01 -0.16994057896E+00  0.58214916321E+00  0.17020925170E+01  0.00000000000E+00 0.  1.
</event>
<event>
 7    1  0.2706925E-010  0.4778728E+02  0.7816164E-02  0.1312668E+00
        -11   -1    0    0    0    0  0.00000000000E+00  0.00000000000E+00  0.45593999997E+02  0.45594000000E+02  0.51100000000E-03 0.  1.
         11   -1    0    0    0    0 -0.00000000000E+00 -0.00000000000E+00 -0.45593999997E+02  0.45594000000E+02  0.51100000000E-03 0. -1.
    9900012    2    1    2    0    0 -0.38980701914E+02  0.23930468175E+01  0.18931480325E+02  0.47787277172E+02  0.20000027936E+02 0.  0.
         12    1    1    2    0    0  0.38980701914E+02 -0.23930468175E+01 -0.18931480325E+02  0.43400722828E+02  0.00000000000E+00 0. -1.
         11    1    3    3    0    0 -0.21686086497E+02  0.62042067795E+01  0.10960012223E+02  0.25077886624E+02  0.51100000000E-03 0. -1.
        -11    1    3    3    0    0 -0.28013669925E+00 -0.12951613680E+01  0.51031187859E+01  0.52723563180E+01  0.51100000000E-03 0.  1.
        -12    1    3    3    0    0 -0.17014478717E+02 -0.25159985940E+01  0.28683493161E+01  0.17437034230E+02  0.00000000000E+00 0.  1.
</event>
<event>
 7    1  0.2706925E-010  0.4778725E+02  0.7816164E-02  0.1312668E+00
        -11   -1    0    0    0    0  0.00000000000E+00  0.00000000000E+00  0.45593999997E+02  0.45594000000E+02  0.51100000000E-03 0.  1.
         11   -1    0    0    0    0 -0.00000000000E+00 -0.00000000000E+00 -0.45593999997E+02  0.45594000000E+02  0.51100000000E-03 0. -1.
    9900012    2    1    2    0    0 -0.46147207350E+01  0.43024365260E+02  0.33515704958E+01  0.47787254865E+02  0.19999926232E+02 0.  0.
         12    1    1    2    0    0  0.46147207350E+01 -0.43024365260E+02 -0.33515704958E+01  0.43400745135E+02  0.00000000000E+00 0. -1.
         11    1    3    3    0    0  0.41437005588E+00  0.78622591441E+01 -0.61657034574E+01  0.10000136038E+02  0.51100000000E-03 0. -1.
        -11    1    3    3    0    0 -0.29867035138E+01  0.67017908986E+01  0.50473343214E+01  0.89056152590E+01  0.51100000000E-03 0.  1.
         12    1    3    3    0    0 -0.20423872771E+01  0.28460315217E+02  0.44699396319E+01  0.28881503568E+02  0.00000000000E+00 0. -1.
</event>
<event>
 7    1  0.2706925E-010  0.4778727E+02  0.7816164E-02  0.1312668E+00
        -11   -1    0    0    0    0  0.00000000000E+00  0.00000000000E+00  0.45593999997E+02  0.45594000000E+02  0.51100000000E-03 0. -1.
         11   -1    0    0    0    0 -0.00000000000E+00 -0.00000000000E+00 -0.45593999997E+02  0.45594000000E+02  0.51100000000E-03 0.  1.
    9900012    2    1    2    0    0 -0.24711118274E+02 -0.34137726226E+02 -0.10373021938E+02  0.47787270717E+02  0.19999998505E+02 0.  0.
         12    1    1    2    0    0  0.24711118274E+02  0.34137726226E+02  0.10373021938E+02  0.43400729283E+02  0.00000000000E+00 0. -1.
         11    1    3    3    0    0 -0.94426448774E+01 -0.16389894399E+02  0.19444764402E+01  0.19015077428E+02  0.51100000000E-03 0. -1.
        -11    1    3    3    0    0 -0.29288869584E+00 -0.25823189408E+01 -0.60056091422E+01  0.65438135923E+01  0.51100000000E-03 0.  1.
        -12    1    3    3    0    0 -0.14975584700E+02 -0.15165512886E+02 -0.63118892359E+01  0.22228379696E+02  0.00000000000E+00 0.  1.
</event>
<event>
 7    1  0.2706925E-010  0.4778727E+02  0.7816164E-02  0.1312668E+00
        -11   -1    0    0    0    0  0.00000000000E+00  0.00000000000E+00  0.45593999997E+02  0.45594000000E+02  0.51100000000E-03 0. -1.
         11   -1    0    0    0    0 -0.00000000000E+00 -0.00000000000E+00 -0.45593999997E+02  0.45594000000E+02  0.51100000000E-03 0.  1.
    9900012    2    1    2    0    0  0.26400579616E+02  0.24523185417E+02 -0.24191857877E+02  0.47787271728E+02  0.20000003115E+02 0.  0.
         12    1    1    2    0    0 -0.26400579616E+02 -0.24523185417E+02  0.24191857877E+02  0.43400728272E+02  0.00000000000E+00 0. -1.
         11    1    3    3    0    0  0.12034800472E+02  0.27203294641E+01 -0.10605485889E+02  0.16270001414E+02  0.51100000000E-03 0.  1.
        -11    1    3    3    0    0  0.22189560579E+01  0.12903032206E+02 -0.40975217040E+01  0.13718662124E+02  0.51100000000E-03 0. -1.
         12    1    3    3    0    0  0.12146823085E+02  0.88998237468E+01 -0.94888502843E+01  0.17798608190E+02  0.00000000000E+00 0. -1.
</event>
<event>
 7    1  0.2706925E-010  0.4778727E+02  0.7816164E-02  0.1312668E+00
        -11   -1    0    0    0    0  0.00000000000E+00  0.00000000000E+00  0.45593999997E+02  0.45594000000E+02  0.51100000000E-03 0.  1.
         11   -1    0    0    0    0 -0.00000000000E+00 -0.00000000000E+00 -0.45593999997E+02  0.45594000000E+02  0.51100000000E-03 0. -1.
    9900012    2    1    2    0    0  0.33590351325E+02  0.92141829367E+01  0.25892284440E+02  0.47787271171E+02  0.20000000577E+02 0.  0.
         12    1    1    2    0    0 -0.33590351325E+02 -0.92141829367E+01 -0.25892284440E+02  0.43400728829E+02  0.00000000000E+00 0. -1.
         11    1    3    3    0    0  0.93493145794E+01  0.11569882378E+02  0.10973011081E+02  0.18484556629E+02  0.51100000000E-03 0. -1.
        -11    1    3    3    0    0  0.21161401564E+02 -0.25011295562E+01  0.10098814140E+02  0.23580640629E+02  0.51100000000E-03 0.  1.
         12    1    3    3    0    0  0.30796351820E+01  0.14543011532E+00  0.48204592193E+01  0.57220739123E+01  0.00000000000E+00 0. -1.
</event>
<event>
 7    1  0.2706925E-010  0.4778726E+02  0.7816164E-02  0.1312668E+00
        -11   -1    0    0    0    0  0.00000000000E+00  0.00000000000E+00  0.45593999997E+02  0.45594000000E+02  0.51100000000E-03 0.  1.
         11   -1    0    0    0    0 -0.00000000000E+00 -0.00000000000E+00 -0.45593999997E+02  0.45594000000E+02  0.51100000000E-03 0. -1.
    9900012    2    1    2    0    0 -0.15980071981E+02 -0.98161401860E+01  0.39139552817E+02  0.47787263792E+02  0.19999966934E+02 0.  0.
         12    1    1    2    0    0  0.15980071981E+02  0.98161401860E+01 -0.39139552817E+02  0.43400736208E+02  0.00000000000E+00 0. -1.
         11    1    3    3    0    0  0.42921891472E+00 -0.15255590509E+00 -0.38977128044E+00  0.59951988550E+00  0.51100000000E-03 0. -1.
        -11    1    3    3    0    0 -0.82063108311E+01  0.37073237068E+01  0.83301418497E+01  0.12266990259E+02  0.51100000000E-03 0.  1.
        -12    1    3    3    0    0 -0.82029800642E+01 -0.13370907988E+02  0.31199182248E+02  0.34920753647E+02  0.00000000000E+00 0.  1.
</event>
<event>
 7    1  0.2706925E-010  0.4778727E+02  0.7816164E-02  0.1312668E+00
        -11   -1    0    0    0    0  0.00000000000E+00  0.00000000000E+00  0.45593999997E+02  0.45594000000E+02  0.51100000000E-03 0. -1.
         11   -1    0    0    0    0 -0.00000000000E+00 -0.00000000000E+00 -0.45593999997E+02  0.45594000000E+02  0.51100000000E-03 0.  1.
    9900012    2    1    2    0    0 -0.29346753827E+02  0.21431854879E+02 -0.23729030618E+02  0.47787271230E+02  0.20000000845E+02 0.  0.
         12    1    1    2    0    0  0.29346753827E+02 -0.21431854879E+02  0.23729030618E+02  0.43400728770E+02  0.00000000000E+00 0. -1.
         11    1    3    3    0    0  0.17650056803E+01  0.25433998868E+01  0.94502635926E+00  0.32368508023E+01  0.51100000000E-03 0. -1.
        -11    1    3    3    0    0 -0.18572512443E+02  0.97378437641E+01 -0.18066177494E+02  0.27679425375E+02  0.51100000000E-03 0.  1.
         12    1    3    3    0    0 -0.12539247064E+02  0.91506112279E+01 -0.66078794832E+01  0.16870995052E+02  0.00000000000E+00 0. -1.
</event>
<event>
 7    1  0.2706925E-010  0.4778727E+02  0.7816164E-02  0.1312668E+00
        -11   -1    0    0    0    0  0.00000000000E+00  0.00000000000E+00  0.45593999997E+02  0.45594000000E+02  0.51100000000E-03 0.  1.
         11   -1    0    0    0    0 -0.00000000000E+00 -0.00000000000E+00 -0.45593999997E+02  0.45594000000E+02  0.51100000000E-03 0. -1.
    9900012    2    1    2    0    0 -0.25946672381E+02 -0.17828210580E+01  0.34745000106E+02  0.47787270847E+02  0.19999999102E+02 0.  0.
         12    1    1    2    0    0  0.25946672381E+02  0.17828210580E+01 -0.34745000106E+02  0.43400729153E+02  0.00000000000E+00 0. -1.
         11    1    3    3    0    0 -0.34582802602E+01 -0.65200061865E+00 -0.94910773273E+00  0.36449434720E+01  0.51100000000E-03 0. -1.
        -11    1    3    3    0    0 -0.14336066823E+02  0.22197057781E+01  0.30836402309E+02  0.34078345226E+02  0.51100000000E-03 0.  1.
        -12    1    3    3    0    0 -0.81523252978E+01 -0.33505262174E+01  0.48577055301E+01  0.10063982150E+02  0.00000000000E+00 0.  1.
</event>
<event>
 7    1  0.2706925E-010  0.4778727E+02  0.7816164E-02  0.1312668E+00
        -11   -1    0    0    0    0  0.00000000000E+00  0.00000000000E+00  0.45593999997E+02  0.45594000000E+02  0.51100000000E-03 0. -1.
         11   -1    0    0    0    0 -0.00000000000E+00 -0.00000000000E+00 -0.45593999997E+02  0.45594000000E+02  0.51100000000E-03 0.  1.
    9900012    2    1    2    0    0 -0.41971215169E+02  0.16843382847E+01  0.10918034544E+02  0.47787269862E+02  0.19999994608E+02 0.  0.
         12    1    1    2    0    0  0.41971215169E+02 -0.16843382847E+01 -0.10918034544E+02  0.43400730138E+02  0.00000000000E+00 0. -1.
         11    1    3    3    0    0 -0.23586763555E+02  0.25967438782E+00  0.15446010346E+01  0.23638710591E+02  0.51100000000E-03 0.  1.
        -11    1    3    3    0    0 -0.19953020013E+02 -0.24972839798E+00  0.85785393258E+01  0.21720421477E+02  0.51100000000E-03 0. -1.
        -12    1    3    3    0    0  0.15685683993E+01  0.16743922949E+01  0.79489418337E+00  0.24281377933E+01  0.00000000000E+00 0.  1.
</event>
<event>
 7    1  0.2706925E-010  0.4778727E+02  0.7816164E-02  0.1312668E+00
        -11   -1    0    0    0    0  0.00000000000E+00  0.00000000000E+00  0.45593999997E+02  0.45594000000E+02  0.51100000000E-03 0.  1.
         11   -1    0    0    0    0 -0.00000000000E+00 -0.00000000000E+00 -0.45593999997E+02  0.45594000000E+02  0.51100000000E-03 0. -1.
    9900012    2    1    2    0    0 -0.38547993359E+01  0.31357873535E+02  0.29756467733E+02  0.47787273249E+02  0.20000010053E+02 0.  0.
         12    1    1    2    0    0  0.38547993359E+01 -0.31357873535E+02 -0.29756467733E+02  0.43400726751E+02  0.00000000000E+00 0. -1.
         11    1    3    3    0    0 -0.60493207290E+01  0.19590874103E+02  0.88807459640E+01  0.22344222487E+02  0.51100000000E-03 0. -1.
        -11    1    3    3    0    0  0.51459180574E+01  0.89438935894E+01  0.13265724253E+02  0.16806342416E+02  0.51100000000E-03 0.  1.
         12    1    3    3    0    0 -0.29513966643E+01  0.28231058428E+01  0.76099975163E+01  0.86367083468E+01  0.00000000000E+00 0. -1.
</event>
<event>
 7    1  0.2706925E-010  0.4778727E+02  0.7816164E-02  0.1312668E+00
        -11   -1    0    0    0    0  0.00000000000E+00  0.00000000000E+00  0.45593999997E+02  0.45594000000E+02  0.51100000000E-03 0.  1.
         11   -1    0    0    0    0 -0.00000000000E+00 -0.00000000000E+00 -0.45593999997E+02  0.45594000000E+02  0.51100000000E-03 0. -1.
    9900012    2    1    2    0    0 -0.17411015931E+02 -0.20584922625E+02  0.34010888603E+02  0.47787273522E+02  0.20000011298E+02 0.  0.
         12    1    1    2    0    0  0.17411015931E+02  0.20584922625E+02 -0.34010888603E+02  0.43400726478E+02  0.00000000000E+00 0. -1.
         11    1    3    3    0    0  0.13847621978E+01  0.21154202502E+01 -0.29554877273E+00  0.25455684076E+01  0.51100000000E-03 0. -1.
        -11    1    3    3    0    0 -0.11930126881E+02 -0.14754056326E+02  0.22841664203E+02  0.29694304661E+02  0.51100000000E-03 0.  1.
         12    1    3    3    0    0 -0.68656512470E+01 -0.79462865488E+01  0.11464773173E+02  0.15547400454E+02  0.00000000000E+00 0. -1.
</event>
<event>
 7    1  0.2706925E-010  0.4778728E+02  0.7816164E-02  0.1312668E+00
        -11   -1    0    0    0    0  0.00000000000E+00  0.00000000000E+00  0.45593999997E+02  0.45594000000E+02  0.51100000000E-03 0. -1.
         11   -1    0    0    0    0 -0.00000000000E+00 -0.00000000000E+00 -0.45593999997E+02  0.45594000000E+02  0.51100000000E-03 0.  1.
    9900012    2    1    2    0    0  0.41008014463E+02  0.47375159646E+01 -0.13398561462E+02  0.47787277000E+02  0.20000027152E+02 0.  0.
         12    1    1    2    0    0 -0.41008014463E+02 -0.47375159646E+01  0.13398561462E+02  0.43400723000E+02  0.00000000000E+00 0. -1.
         11    1    3    3    0    0  0.76722367180E+01 -0.13900142113E+01 -0.34520798509E+01  0.85271455554E+01  0.51100000000E-03 0. -1.
        -11    1    3    3    0    0  0.26369525444E+02  0.34287161166E+01 -0.14720668726E+02  0.30394177968E+02  0.51100000000E-03 0.  1.
         12    1    3    3    0    0  0.69662523006E+01  0.26988140592E+01  0.47741871140E+01  0.88659534761E+01  0.00000000000E+00 0. -1.
</event>
<event>
 7    1  0.2706925E-010  0.4778727E+02  0.7816164E-02  0.1312668E+00
        -11   -1    0    0    0    0  0.00000000000E+00  0.00000000000E+00  0.45593999997E+02  0.45594000000E+02  0.51100000000E-03 0.  1.
         11   -1    0    0    0    0 -0.00000000000E+00 -0.00000000000E+00 -0.45593999997E+02  0.45594000000E+02  0.51100000000E-03 0. -1.
    9900012    2    1    2    0    0 -0.26582611589E+02  0.99047630643E+01  0.32846365987E+02  0.47787270412E+02  0.19999997117E+02 0.  0.
         12    1    1    2    0    0  0.26582611589E+02 -0.99047630643E+01 -0.32846365987E+02  0.43400729588E+02  0.00000000000E+00 0. -1.
         11    1    3    3    0    0 -0.17395424795E+02 -0.21993883708E+01  0.14184227577E+02  0.22552836301E+02  0.51100000000E-03 0. -1.
        -11    1    3    3    0    0 -0.85611462823E+01  0.97774802604E+01  0.10450133541E+02  0.16676259688E+02  0.51100000000E-03 0.  1.
         12    1    3    3    0    0 -0.62604051090E+00  0.23266711748E+01  0.82120048692E+01  0.85581744226E+01  0.00000000000E+00 0. -1.
</event>
<event>
 7    1  0.2706925E-010  0.4778727E+02  0.7816164E-02  0.1312668E+00
        -11   -1    0    0    0    0  0.00000000000E+00  0.00000000000E+00  0.45593999997E+02  0.45594000000E+02  0.51100000000E-03 0.  1.
         11   -1    0    0    0    0 -0.00000000000E+00 -0.00000000000E+00 -0.45593999997E+02  0.45594000000E+02  0.51100000000E-03 0. -1.
    9900012    2    1    2    0    0 -0.32031653858E+02  0.27981987705E+02  0.86373964790E+01  0.47787273016E+02  0.20000008989E+02 0.  0.
         12    1    1    2    0    0  0.32031653858E+02 -0.27981987705E+02 -0.86373964790E+01  0.43400726984E+02  0.00000000000E+00 0. -1.
         11    1    3    3    0    0 -0.91078271233E+00 -0.71140771427E+00  0.48484260325E+00  0.12532751877E+01  0.51100000000E-03 0. -1.
        -11    1    3    3    0    0 -0.24290335267E+02  0.22695357332E+02 -0.14974209430E+01  0.33276747160E+02  0.51100000000E-03 0.  1.
        -12    1    3    3    0    0 -0.68305358782E+01  0.59980380882E+01  0.96499748187E+01  0.13257250669E+02  0.00000000000E+00 0.  1.
</event>
<event>
 7    1  0.2706925E-010  0.4778727E+02  0.7816164E-02  0.1312668E+00
        -11   -1    0    0    0    0  0.00000000000E+00  0.00000000000E+00  0.45593999997E+02  0.45594000000E+02  0.51100000000E-03 0.  1.
         11   -1    0    0    0    0 -0.00000000000E+00 -0.00000000000E+00 -0.45593999997E+02  0.45594000000E+02  0.51100000000E-03 0. -1.
    9900012    2    1    2    0    0  0.36058724638E+02  0.23906659361E+02 -0.34443159347E+01  0.47787270783E+02  0.19999998806E+02 0.  0.
         12    1    1    2    0    0 -0.36058724638E+02 -0.23906659361E+02  0.34443159347E+01  0.43400729217E+02  0.00000000000E+00 0. -1.
         11    1    3    3    0    0 -0.13214415140E+01 -0.96922388979E+00 -0.12208090490E+01  0.20435208878E+01  0.51100000000E-03 0. -1.
        -11    1    3    3    0    0  0.36417054147E+02  0.23606058553E+02 -0.50732357811E+00  0.43401672902E+02  0.51100000000E-03 0.  1.
        -12    1    3    3    0    0  0.96311200526E+00  0.12698246976E+01 -0.17161833075E+01  0.23420769932E+01  0.00000000000E+00 0.  1.
</event>
<event>
 7    1  0.2706925E-010  0.4778728E+02  0.7816164E-02  0.1312668E+00
        -11   -1    0    0    0    0  0.00000000000E+00  0.00000000000E+00  0.45593999997E+02  0.45594000000E+02  0.51100000000E-03 0. -1.
         11   -1    0    0    0    0 -0.00000000000E+00 -0.00000000000E+00 -0.45593999997E+02  0.45594000000E+02  0.51100000000E-03 0.  1.
    9900012    2    1    2    0    0  0.10131391113E+02 -0.33342842175E+02 -0.25869527189E+02  0.47787278264E+02  0.20000032918E+02 0.  0.
         12    1    1    2    0    0 -0.10131391113E+02  0.33342842175E+02  0.25869527189E+02  0.43400721736E+02  0.00000000000E+00 0. -1.
         11    1    3    3    0    0  0.99655704312E+01 -0.15141315193E+02 -0.53334021907E+01  0.18894898755E+02  0.51100000000E-03 0. -1.
        -11    1    3    3    0    0 -0.12869311755E+01 -0.26748743022E+00  0.31466852445E+00  0.13515760864E+01  0.51100000000E-03 0.  1.
         12    1    3    3    0    0  0.14527518571E+01 -0.17934039552E+02 -0.20850793523E+02  0.27540803423E+02  0.00000000000E+00 0. -1.
</event>
<event>
 7    1  0.2706925E-010  0.4778729E+02  0.7816164E-02  0.1312668E+00
        -11   -1    0    0    0    0  0.00000000000E+00  0.00000000000E+00  0.45593999997E+02  0.45594000000E+02  0.51100000000E-03 0.  1.
         11   -1    0    0    0    0 -0.00000000000E+00 -0.00000000000E+00 -0.45593999997E+02  0.45594000000E+02  0.51100000000E-03 0. -1.
    9900012    2    1    2    0    0  0.10649994800E+02  0.28767677124E+02  0.30702116472E+02  0.47787290418E+02  0.20000088333E+02 0.  0.
         12    1    1    2    0    0 -0.10649994800E+02 -0.28767677124E+02 -0.30702116472E+02  0.43400709582E+02  0.00000000000E+00 0. -1.
         11    1    3    3    0    0  0.10817697470E+02  0.14478436534E+02  0.11052416438E+02  0.21184985541E+02  0.51100000000E-03 0. -1.
        -11    1    3    3    0    0  0.53289042671E+01  0.73632322029E+01  0.10107906401E+02  0.13593534538E+02  0.51100000000E-03 0.  1.
         12    1    3    3    0    0 -0.54966069368E+01  0.69260083876E+01  0.95417936328E+01  0.13008770339E+02  0.00000000000E+00 0. -1.
</event>
<event>
 7    1  0.2706925E-010  0.4778726E+02  0.7816164E-02  0.1312668E+00
        -11   -1    0    0    0    0  0.00000000000E+00  0.00000000000E+00  0.45593999997E+02  0.45594000000E+02  0.51100000000E-03 0.  1.
         11   -1    0    0    0    0 -0.00000000000E+00 -0.00000000000E+00 -0.45593999997E+02  0.45594000000E+02  0.51100000000E-03 0. -1.
    9900012    2    1    2    0    0  0.39289694904E+02  0.15473793089E+01  0.18372519283E+02  0.47787262988E+02  0.19999963268E+02 0.  0.
         12    1    1    2    0    0 -0.39289694904E+02 -0.15473793089E+01 -0.18372519283E+02  0.43400737012E+02  0.00000000000E+00 0. -1.
         11    1    3    3    0    0  0.16384083792E+02 -0.42102794193E-01 -0.13081298023E+01  0.16436276287E+02  0.51100000000E-03 0. -1.
        -11    1    3    3    0    0  0.68663816330E+01 -0.16975868734E+01  0.22163278104E+01  0.74122268683E+01  0.51100000000E-03 0.  1.
         12    1    3    3    0    0  0.16039229479E+02  0.32870689764E+01  0.17464321275E+02  0.23938759833E+02  0.00000000000E+00 0. -1.
</event>
<event>
 7    1  0.2706925E-010  0.4778728E+02  0.7816164E-02  0.1312668E+00
        -11   -1    0    0    0    0  0.00000000000E+00  0.00000000000E+00  0.45593999997E+02  0.45594000000E+02  0.51100000000E-03 0.  1.
         11   -1    0    0    0    0 -0.00000000000E+00 -0.00000000000E+00 -0.45593999997E+02  0.45594000000E+02  0.51100000000E-03 0. -1.
    9900012    2    1    2    0    0  0.30100693253E+02 -0.86992761943E+01  0.30031539883E+02  0.47787279634E+02  0.20000039161E+02 0.  0.
         12    1    1    2    0    0 -0.30100693253E+02  0.86992761943E+01 -0.30031539883E+02  0.43400720366E+02  0.00000000000E+00 0. -1.
         11    1    3    3    0    0  0.74228420373E+01 -0.36160142585E+01  0.84253410465E+01  0.11796631512E+02  0.51100000000E-03 0.  1.
        -11    1    3    3    0    0  0.49914039606E+01 -0.79487768403E+01  0.13207093111E+02  0.16202607057E+02  0.51100000000E-03 0. -1.
        -12    1    3    3    0    0  0.17686447255E+02  0.28655149044E+01  0.83991057257E+01  0.19788041064E+02  0.00000000000E+00 0.  1.
</event>
<event>
 7    1  0.2706925E-010  0.4778727E+02  0.7816164E-02  0.1312668E+00
        -11   -1    0    0    0    0  0.00000000000E+00  0.00000000000E+00  0.45593999997E+02  0.45594000000E+02  0.51100000000E-03 0.  1.
         11   -1    0    0    0    0 -0.00000000000E+00 -0.00000000000E+00 -0.45593999997E+02  0.45594000000E+02  0.51100000000E-03 0. -1.
    9900012    2    1    2    0    0 -0.38231993314E+02 -0.25289616325E+01  0.20384856451E+02  0.47787270372E+02  0.19999996932E+02 0.  0.
         12    1    1    2    0    0  0.38231993314E+02  0.25289616325E+01 -0.20384856451E+02  0.43400729628E+02  0.00000000000E+00 0. -1.
         11    1    3    3    0    0 -0.80141876002E+01  0.61834812594E+01  0.48156960728E+01  0.11209530423E+02  0.51100000000E-03 0. -1.
        -11    1    3    3    0    0 -0.16284718230E+02 -0.86259358452E+01  0.12621242857E+02  0.22335948347E+02  0.51100000000E-03 0.  1.
        -12    1    3    3    0    0 -0.13933087485E+02 -0.86507046651E-01  0.29479175213E+01  0.14241791602E+02  0.00000000000E+00 0.  1.
</event>
<event>
 7    1  0.2706925E-010  0.4778727E+02  0.7816164E-02  0.1312668E+00
        -11   -1    0    0    0    0  0.00000000000E+00  0.00000000000E+00  0.45593999997E+02  0.45594000000E+02  0.51100000000E-03 0.  1.
         11   -1    0    0    0    0 -0.00000000000E+00 -0.00000000000E+00 -0.45593999997E+02  0.45594000000E+02  0.51100000000E-03 0. -1.
    9900012    2    1    2    0    0  0.16661630517E+02  0.28717978688E+02  0.27951578506E+02  0.47787274517E+02  0.20000015834E+02 0.  0.
         12    1    1    2    0    0 -0.16661630517E+02 -0.28717978688E+02 -0.27951578506E+02  0.43400725483E+02  0.00000000000E+00 0. -1.
         11    1    3    3    0    0 -0.29366855403E+01  0.12306758576E+01  0.16712388770E+01  0.35960707271E+01  0.51100000000E-03 0. -1.
        -11    1    3    3    0    0  0.18285827050E+02  0.25252514362E+02  0.19113864542E+02  0.36570490433E+02  0.51100000000E-03 0.  1.
        -12    1    3    3    0    0  0.13124890072E+01  0.22347884684E+01  0.71664750878E+01  0.76207133574E+01  0.00000000000E+00 0.  1.
</event>
<event>
 7    1  0.2706925E-010  0.4778727E+02  0.7816164E-02  0.1312668E+00
        -11   -1    0    0    0    0  0.00000000000E+00  0.00000000000E+00  0.45593999997E+02  0.45594000000E+02  0.51100000000E-03 0.  1.
         11   -1    0    0    0    0 -0.00000000000E+00 -0.00000000000E+00 -0.45593999997E+02  0.45594000000E+02  0.51100000000E-03 0. -1.
    9900012    2    1    2    0    0 -0.35123783058E+02 -0.25400285790E+02  0.21837582736E+01  0.47787268961E+02  0.19999990501E+02 0.  0.
         12    1    1    2    0    0  0.35123783058E+02  0.25400285790E+02 -0.21837582736E+01  0.43400731039E+02  0.00000000000E+00 0. -1.
         11    1    3    3    0    0 -0.36801407641E+01 -0.40534105486E+01  0.46987371371E+01  0.72146866920E+01  0.51100000000E-03 0. -1.
        -11    1    3    3    0    0 -0.27276495555E+02 -0.11389067757E+02 -0.33793528722E+00  0.29560654165E+02  0.51100000000E-03 0.  1.
        -12    1    3    3    0    0 -0.41671467388E+01 -0.99578074838E+01 -0.21770435763E+01  0.11011928104E+02  0.00000000000E+00 0.  1.
</event>
<event>
 7    1  0.2706925E-010  0.4778727E+02  0.7816164E-02  0.1312668E+00
        -11   -1    0    0    0    0  0.00000000000E+00  0.00000000000E+00  0.45593999997E+02  0.45594000000E+02  0.51100000000E-03 0.  1.
         11   -1    0    0    0    0 -0.00000000000E+00 -0.00000000000E+00 -0.45593999997E+02  0.45594000000E+02  0.51100000000E-03 0. -1.
    9900012    2    1    2    0    0  0.34272793803E+02 -0.22617375258E+02 -0.14051797853E+02  0.47787273261E+02  0.20000010106E+02 0.  0.
         12    1    1    2    0    0 -0.34272793803E+02  0.22617375258E+02  0.14051797853E+02  0.43400726739E+02  0.00000000000E+00 0. -1.
         11    1    3    3    0    0  0.20289632030E+02 -0.13485632972E+02 -0.13573491605E+02  0.27888548531E+02  0.51100000000E-03 0. -1.
        -11    1    3    3    0    0  0.57631744485E+01  0.18709109126E+01  0.76997908645E+00  0.61079747397E+01  0.51100000000E-03 0.  1.
         12    1    3    3    0    0  0.82199873239E+01 -0.11002653198E+02 -0.12482853340E+01  0.13790749990E+02  0.00000000000E+00 0. -1.
</event>
<event>
 7    1  0.2706925E-010  0.4778727E+02  0.7816164E-02  0.1312668E+00
        -11   -1    0    0    0    0  0.00000000000E+00  0.00000000000E+00  0.45593999997E+02  0.45594000000E+02  0.51100000000E-03 0.  1.
         11   -1    0    0    0    0 -0.00000000000E+00 -0.00000000000E+00 -0.45593999997E+02  0.45594000000E+02  0.51100000000E-03 0. -1.
    9900012    2    1    2    0    0 -0.46855941716E+01 -0.22604382484E+02  0.36752007899E+02  0.47787274374E+02  0.20000015182E+02 0.  0.
         12    1    1    2    0    0  0.46855941716E+01  0.22604382484E+02 -0.36752007899E+02  0.43400725626E+02  0.00000000000E+00 0. -1.
         11    1    3    3    0    0 -0.87913163183E+01 -0.69135126170E+01  0.12271859586E+02  0.16603687460E+02  0.51100000000E-03 0. -1.
        -11    1    3    3    0    0  0.26732513565E+01 -0.15388063229E+02  0.15218463575E+02  0.21806888742E+02  0.51100000000E-03 0.  1.
         12    1    3    3    0    0  0.14324707901E+01 -0.30280663806E+00  0.92616847385E+01  0.93766981726E+01  0.00000000000E+00 0. -1.
</event>
<event>
 7    1  0.2706925E-010  0.4778727E+02  0.7816164E-02  0.1312668E+00
        -11   -1    0    0    0    0  0.00000000000E+00  0.00000000000E+00  0.45593999997E+02  0.45594000000E+02  0.51100000000E-03 0. -1.
         11   -1    0    0    0    0 -0.00000000000E+00 -0.00000000000E+00 -0.45593999997E+02  0.45594000000E+02  0.51100000000E-03 0.  1.
    9900012    2    1    2    0    0  0.41755219725E+02  0.54850372586E+01 -0.10489952105E+02  0.47787273011E+02  0.20000008965E+02 0.  0.
         12    1    1    2    0    0 -0.41755219725E+02 -0.54850372586E+01  0.10489952105E+02  0.43400726989E+02  0.00000000000E+00 0. -1.
         11    1    3    3    0    0  0.69641653940E+01  0.19596372935E+01 -0.79938473140E+01  0.10781529256E+02  0.51100000000E-03 0.  1.
        -11    1    3    3    0    0  0.20530919345E+02  0.74617241839E+01  0.76064029584E+00  0.21858054599E+02  0.51100000000E-03 0. -1.
        -12    1    3    3    0    0  0.14260134987E+02 -0.39363242188E+01 -0.32567450866E+01  0.15147689156E+02  0.00000000000E+00 0.  1.
</event>
<event>
 7    1  0.2706925E-010  0.4778727E+02  0.7816164E-02  0.1312668E+00
        -11   -1    0    0    0    0  0.00000000000E+00  0.00000000000E+00  0.45593999997E+02  0.45594000000E+02  0.51100000000E-03 0. -1.
         11   -1    0    0    0    0 -0.00000000000E+00 -0.00000000000E+00 -0.45593999997E+02  0.45594000000E+02  0.51100000000E-03 0.  1.
    9900012    2    1    2    0    0 -0.21891759436E+02  0.25044733694E+02 -0.27877153734E+02  0.47787268240E+02  0.19999987211E+02 0.  0.
         12    1    1    2    0    0  0.21891759436E+02 -0.25044733694E+02  0.27877153734E+02  0.43400731760E+02  0.00000000000E+00 0. -1.
         11    1    3    3    0    0 -0.60171975310E+01  0.15633937098E+01  0.31170972092E+00  0.62247915009E+01  0.51100000000E-03 0. -1.
        -11    1    3    3    0    0 -0.16367818863E+02  0.21617860584E+02 -0.28784670497E+02  0.39544843488E+02  0.51100000000E-03 0.  1.
         12    1    3    3    0    0  0.49325695809E+00  0.18634794008E+01  0.59580704234E+00  0.20176332510E+01  0.00000000000E+00 0. -1.
</event>
<event>
 7    1  0.2706925E-010  0.4778727E+02  0.7816164E-02  0.1312668E+00
        -11   -1    0    0    0    0  0.00000000000E+00  0.00000000000E+00  0.45593999997E+02  0.45594000000E+02  0.51100000000E-03 0.  1.
         11   -1    0    0    0    0 -0.00000000000E+00 -0.00000000000E+00 -0.45593999997E+02  0.45594000000E+02  0.51100000000E-03 0. -1.
    9900012    2    1    2    0    0  0.37179099845E+01  0.12963198268E+02  0.41252346516E+02  0.47787268934E+02  0.19999990379E+02 0.  0.
         12    1    1    2    0    0 -0.37179099845E+01 -0.12963198268E+02 -0.41252346516E+02  0.43400731066E+02  0.00000000000E+00 0. -1.
         11    1    3    3    0    0 -0.19194972166E+01  0.34566739240E+01  0.16021757210E+00  0.39571118399E+01  0.51100000000E-03 0. -1.
        -11    1    3    3    0    0  0.40144666837E+01  0.11179081366E+02  0.38735591659E+02  0.40515847078E+02  0.51100000000E-03 0.  1.
         12    1    3    3    0    0  0.16229405174E+01 -0.16725570225E+01  0.23565372841E+01  0.33143100169E+01  0.00000000000E+00 0. -1.
</event>
<event>
 7    1  0.2706925E-010  0.4778727E+02  0.7816164E-02  0.1312668E+00
        -11   -1    0    0    0    0  0.00000000000E+00  0.00000000000E+00  0.45593999997E+02  0.45594000000E+02  0.51100000000E-03 0.  1.
         11   -1    0    0    0    0 -0.00000000000E+00 -0.00000000000E+00 -0.45593999997E+02  0.45594000000E+02  0.51100000000E-03 0. -1.
    9900012    2    1    2    0    0  0.35631273375E+02  0.21192090695E+02  0.12842549143E+02  0.47787269374E+02  0.19999992385E+02 0.  0.
         12    1    1    2    0    0 -0.35631273375E+02 -0.21192090695E+02 -0.12842549143E+02  0.43400730626E+02  0.00000000000E+00 0. -1.
         11    1    3    3    0    0  0.11714246715E+01 -0.15533342527E+01  0.18428064700E+01  0.26797423399E+01  0.51100000000E-03 0. -1.
        -11    1    3    3    0    0  0.28960433716E+02  0.24462148575E+02  0.10432988305E+02  0.39318579313E+02  0.51100000000E-03 0.  1.
        -12    1    3    3    0    0  0.54994149869E+01 -0.17167236267E+01  0.56675436821E+00  0.57889477216E+01  0.00000000000E+00 0.  1.
</event>
<event>
 7    1  0.2706925E-010  0.4778727E+02  0.7816164E-02  0.1312668E+00
        -11   -1    0    0    0    0  0.00000000000E+00  0.00000000000E+00  0.45593999997E+02  0.45594000000E+02  0.51100000000E-03 0.  1.
         11   -1    0    0    0    0 -0.00000000000E+00 -0.00000000000E+00 -0.45593999997E+02  0.45594000000E+02  0.51100000000E-03 0. -1.
    9900012    2    1    2    0    0 -0.31361060562E+01 -0.43219599396E+02 -0.24195571060E+01  0.47787272014E+02  0.20000004421E+02 0.  0.
         12    1    1    2    0    0  0.31361060562E+01  0.43219599396E+02  0.24195571060E+01  0.43400727986E+02  0.00000000000E+00 0. -1.
         11    1    3    3    0    0 -0.96446589071E+00  0.10738509883E+01  0.16333589622E+01  0.21797275426E+01  0.51100000000E-03 0. -1.
        -11    1    3    3    0    0 -0.57477575965E+01 -0.29859947595E+02 -0.44518795510E+01  0.30732270003E+02  0.51100000000E-03 0.  1.
         12    1    3    3    0    0  0.35761174310E+01 -0.14433502789E+02  0.39896348284E+00  0.14875274469E+02  0.00000000000E+00 0. -1.
</event>
<event>
 7    1  0.2706925E-010  0.4778727E+02  0.7816164E-02  0.1312668E+00
        -11   -1    0    0    0    0  0.00000000000E+00  0.00000000000E+00  0.45593999997E+02  0.45594000000E+02  0.51100000000E-03 0.  1.
         11   -1    0    0    0    0 -0.00000000000E+00 -0.00000000000E+00 -0.45593999997E+02  0.45594000000E+02  0.51100000000E-03 0. -1.
    9900012    2    1    2    0    0  0.12217867798E+02  0.94331043422E+01  0.40563078377E+02  0.47787273295E+02  0.20000010262E+02 0.  0.
         12    1    1    2    0    0 -0.12217867798E+02 -0.94331043422E+01 -0.40563078377E+02  0.43400726705E+02  0.00000000000E+00 0. -1.
         11    1    3    3    0    0  0.55041443938E+01  0.14781977415E+02  0.23436609928E+02  0.28250259238E+02  0.51100000000E-03 0. -1.
        -11    1    3    3    0    0  0.53690875072E+01 -0.45692851527E+01  0.16337817628E+02  0.17794093193E+02  0.51100000000E-03 0.  1.
         12    1    3    3    0    0  0.13446358971E+01 -0.77958792022E+00  0.78865082131E+00  0.17429208643E+01  0.00000000000E+00 0. -1.
</event>
<event>
 7    1  0.2706925E-010  0.4778727E+02  0.7816164E-02  0.1312668E+00
        -11   -1    0    0    0    0  0.00000000000E+00  0.00000000000E+00  0.45593999997E+02  0.45594000000E+02  0.51100000000E-03 0.  1.
         11   -1    0    0    0    0 -0.00000000000E+00 -0.00000000000E+00 -0.45593999997E+02  0.45594000000E+02  0.51100000000E-03 0. -1.
    9900012    2    1    2    0    0 -0.13999337510E+02 -0.40688401952E+02  0.56653076739E+01  0.47787271721E+02  0.20000003084E+02 0.  0.
         12    1    1    2    0    0  0.13999337510E+02  0.40688401952E+02 -0.56653076739E+01  0.43400728279E+02  0.00000000000E+00 0. -1.
         11    1    3    3    0    0 -0.43360988794E+01 -0.28245732889E+01  0.74794313718E+00  0.52287079622E+01  0.51100000000E-03 0. -1.
        -11    1    3    3    0    0 -0.14064172253E+02 -0.25884725289E+02  0.44053414668E+01  0.29786355570E+02  0.51100000000E-03 0.  1.
        -12    1    3    3    0    0  0.44009336219E+01 -0.11979103374E+02  0.51202306994E+00  0.12772208188E+02  0.00000000000E+00 0.  1.
</event>
<event>
 7    1  0.2706925E-010  0.4778727E+02  0.7816164E-02  0.1312668E+00
        -11   -1    0    0    0    0  0.00000000000E+00  0.00000000000E+00  0.45593999997E+02  0.45594000000E+02  0.51100000000E-03 0. -1.
         11   -1    0    0    0    0 -0.00000000000E+00 -0.00000000000E+00 -0.45593999997E+02  0.45594000000E+02  0.51100000000E-03 0.  1.
    9900012    2    1    2    0    0 -0.26186111476E+02  0.14578611418E+02 -0.31390681841E+02  0.47787271301E+02  0.20000001171E+02 0.  0.
         12    1    1    2    0    0  0.26186111476E+02 -0.14578611418E+02  0.31390681841E+02  0.43400728699E+02  0.00000000000E+00 0. -1.
         11    1    3    3    0    0  0.99030862122E+00 -0.19145495059E+01 -0.60054469908E+01  0.63805646142E+01  0.51100000000E-03 0. -1.
        -11    1    3    3    0    0 -0.21210619716E+02  0.14909051409E+02 -0.17031875057E+02  0.31020234861E+02  0.51100000000E-03 0.  1.
        -12    1    3    3    0    0 -0.59658003818E+01  0.15841095159E+01 -0.83533597934E+01  0.10386471826E+02  0.00000000000E+00 0.  1.
</event>
<event>
 7    1  0.2706925E-010  0.4778727E+02  0.7816164E-02  0.1312668E+00
        -11   -1    0    0    0    0  0.00000000000E+00  0.00000000000E+00  0.45593999997E+02  0.45594000000E+02  0.51100000000E-03 0.  1.
         11   -1    0    0    0    0 -0.00000000000E+00 -0.00000000000E+00 -0.45593999997E+02  0.45594000000E+02  0.51100000000E-03 0. -1.
    9900012    2    1    2    0    0 -0.31063850845E+01 -0.36418424172E+02  0.23402393084E+02  0.47787271325E+02  0.20000001280E+02 0.  0.
         12    1    1    2    0    0  0.31063850845E+01  0.36418424172E+02 -0.23402393084E+02  0.43400728675E+02  0.00000000000E+00 0. -1.
         11    1    3    3    0    0 -0.14279249173E+01  0.82295803724E+00  0.19666622208E+01  0.25659286919E+01  0.51100000000E-03 0. -1.
        -11    1    3    3    0    0  0.33484714684E+01 -0.26794129875E+02  0.19863259857E+02  0.33521437160E+02  0.51100000000E-03 0.  1.
        -12    1    3    3    0    0 -0.50269316356E+01 -0.10447252334E+02  0.15724710064E+01  0.11699905473E+02  0.00000000000E+00 0.  1.
</event>
<event>
 7    1  0.2706925E-010  0.4778724E+02  0.7816164E-02  0.1312668E+00
        -11   -1    0    0    0    0  0.00000000000E+00  0.00000000000E+00  0.45593999997E+02  0.45594000000E+02  0.51100000000E-03 0. -1.
         11   -1    0    0    0    0 -0.00000000000E+00 -0.00000000000E+00 -0.45593999997E+02  0.45594000000E+02  0.51100000000E-03 0.  1.
    9900012    2    1    2    0    0  0.13255361983E+01 -0.42939145146E+02 -0.61723851949E+01  0.47787244579E+02  0.19999879333E+02 0.  0.
         12    1    1    2    0    0 -0.13255361983E+01  0.42939145146E+02  0.61723851949E+01  0.43400755421E+02  0.00000000000E+00 0. -1.
         11    1    3    3    0    0 -0.35432906857E+01 -0.14214085241E+01 -0.13355930167E+01  0.40446409041E+01  0.51100000000E-03 0. -1.
        -11    1    3    3    0    0  0.36307338886E+01 -0.34275959732E+02 -0.85476424608E+01  0.35511770387E+02  0.51100000000E-03 0.  1.
        -12    1    3    3    0    0  0.12380929954E+01 -0.72417768908E+01  0.37108502826E+01  0.82308332884E+01  0.00000000000E+00 0.  1.
</event>
<event>
 7    1  0.2706925E-010  0.4778727E+02  0.7816164E-02  0.1312668E+00
        -11   -1    0    0    0    0  0.00000000000E+00  0.00000000000E+00  0.45593999997E+02  0.45594000000E+02  0.51100000000E-03 0.  1.
         11   -1    0    0    0    0 -0.00000000000E+00 -0.00000000000E+00 -0.45593999997E+02  0.45594000000E+02  0.51100000000E-03 0. -1.
    9900012    2    1    2    0    0 -0.10092420717E+02  0.20842602779E+02  0.36706298019E+02  0.47787270043E+02  0.19999995432E+02 0.  0.
         12    1    1    2    0    0  0.10092420717E+02 -0.20842602779E+02 -0.36706298019E+02  0.43400729957E+02  0.00000000000E+00 0. -1.
         11    1    3    3    0    0  0.24732886807E+01  0.56915014714E+01  0.40856390510E+01  0.74298581826E+01  0.51100000000E-03 0. -1.
        -11    1    3    3    0    0  0.27251052806E+01  0.39852664001E+01  0.66364640869E+01  0.82067778639E+01  0.51100000000E-03 0.  1.
         12    1    3    3    0    0 -0.15290814678E+02  0.11165834908E+02  0.25984194882E+02  0.32150633996E+02  0.00000000000E+00 0. -1.
</event>
<event>
 7    1  0.2706925E-010  0.4778727E+02  0.7816164E-02  0.1312668E+00
        -11   -1    0    0    0    0  0.00000000000E+00  0.00000000000E+00  0.45593999997E+02  0.45594000000E+02  0.51100000000E-03 0.  1.
         11   -1    0    0    0    0 -0.00000000000E+00 -0.00000000000E+00 -0.45593999997E+02  0.45594000000E+02  0.51100000000E-03 0. -1.
    9900012    2    1    2    0    0  0.17574546501E+01  0.37676123653E+02  0.21471941142E+02  0.47787271933E+02  0.20000004049E+02 0.  0.
         12    1    1    2    0    0 -0.17574546501E+01 -0.37676123653E+02 -0.21471941142E+02  0.43400728067E+02  0.00000000000E+00 0. -1.
         11    1    3    3    0    0  0.66746610703E+01  0.80060457581E+01  0.28417045778E+00  0.10427301770E+02  0.51100000000E-03 0. -1.
        -11    1    3    3    0    0 -0.43548062458E+01  0.17763537290E+02  0.92715475503E+01  0.20505345370E+02  0.51100000000E-03 0.  1.
        -12    1    3    3    0    0 -0.56240017444E+00  0.11906540604E+02  0.11916223134E+02  0.16854624793E+02  0.00000000000E+00 0.  1.
</event>
<event>
 7    1  0.2706925E-010  0.4778727E+02  0.7816164E-02  0.1312668E+00
        -11   -1    0    0    0    0  0.00000000000E+00  0.00000000000E+00  0.45593999997E+02  0.45594000000E+02  0.51100000000E-03 0.  1.
         11   -1    0    0    0    0 -0.00000000000E+00 -0.00000000000E+00 -0.45593999997E+02  0.45594000000E+02  0.51100000000E-03 0. -1.
    9900012    2    1    2    0    0  0.49207666744E+00 -0.36032677791E+02  0.24187335669E+02  0.47787271723E+02  0.20000003093E+02 0.  0.
         12    1    1    2    0    0 -0.49207666744E+00  0.36032677791E+02 -0.24187335669E+02  0.43400728277E+02  0.00000000000E+00 0. -1.
         11    1    3    3    0    0  0.40726739898E+01 -0.16309457864E+02  0.24048245378E+01  0.16981409558E+02  0.51100000000E-03 0. -1.
        -11    1    3    3    0    0 -0.16488256398E+01 -0.19752870932E+02  0.19362285273E+02  0.27709071210E+02  0.51100000000E-03 0.  1.
         12    1    3    3    0    0 -0.19317716825E+01  0.29651005618E-01  0.24202258583E+01  0.30967909553E+01  0.00000000000E+00 0. -1.
</event>
<event>
 7    1  0.2706925E-010  0.4778725E+02  0.7816164E-02  0.1312668E+00
        -11   -1    0    0    0    0  0.00000000000E+00  0.00000000000E+00  0.45593999997E+02  0.45594000000E+02  0.51100000000E-03 0.  1.
         11   -1    0    0    0    0 -0.00000000000E+00 -0.00000000000E+00 -0.45593999997E+02  0.45594000000E+02  0.51100000000E-03 0. -1.
    9900012    2    1    2    0    0 -0.15137659392E+02  0.35231651748E+02  0.20327500317E+02  0.47787247865E+02  0.19999894316E+02 0.  0.
         12    1    1    2    0    0  0.15137659392E+02 -0.35231651748E+02 -0.20327500317E+02  0.43400752135E+02  0.00000000000E+00 0. -1.
         11    1    3    3    0    0  0.15955836813E+01  0.39616794922E+01 -0.19081201212E+01  0.46777894717E+01  0.51100000000E-03 0. -1.
        -11    1    3    3    0    0 -0.17174189324E+02  0.23540461860E+02  0.18472281962E+02  0.34501178598E+02  0.51100000000E-03 0.  1.
         12    1    3    3    0    0  0.44094625057E+00  0.77295103954E+01  0.37633384762E+01  0.86082797954E+01  0.00000000000E+00 0. -1.
</event>
<event>
 7    1  0.2706925E-010  0.4778727E+02  0.7816164E-02  0.1312668E+00
        -11   -1    0    0    0    0  0.00000000000E+00  0.00000000000E+00  0.45593999997E+02  0.45594000000E+02  0.51100000000E-03 0.  1.
         11   -1    0    0    0    0 -0.00000000000E+00 -0.00000000000E+00 -0.45593999997E+02  0.45594000000E+02  0.51100000000E-03 0. -1.
    9900012    2    1    2    0    0 -0.11884330383E+02 -0.32226027638E+02  0.26530533241E+02  0.47787270052E+02  0.19999995474E+02 0.  0.
         12    1    1    2    0    0  0.11884330383E+02  0.32226027638E+02 -0.26530533241E+02  0.43400729948E+02  0.00000000000E+00 0. -1.
         11    1    3    3    0    0 -0.13848072558E+02 -0.12527941035E+02  0.12345829771E+02  0.22386110273E+02  0.51100000000E-03 0. -1.
        -11    1    3    3    0    0  0.45454651892E+01 -0.94477460356E+01  0.75707698027E+01  0.12932042167E+02  0.51100000000E-03 0.  1.
         12    1    3    3    0    0 -0.25817230146E+01 -0.10250340567E+02  0.66139336669E+01  0.12469117612E+02  0.00000000000E+00 0. -1.
</event>
<event>
 7    1  0.2706925E-010  0.4778727E+02  0.7816164E-02  0.1312668E+00
        -11   -1    0    0    0    0  0.00000000000E+00  0.00000000000E+00  0.45593999997E+02  0.45594000000E+02  0.51100000000E-03 0.  1.
         11   -1    0    0    0    0 -0.00000000000E+00 -0.00000000000E+00 -0.45593999997E+02  0.45594000000E+02  0.51100000000E-03 0. -1.
    9900012    2    1    2    0    0 -0.36007232073E+02  0.25707596244E+01  0.24093430845E+02  0.47787274471E+02  0.20000015622E+02 0.  0.
         12    1    1    2    0    0  0.36007232073E+02 -0.25707596244E+01 -0.24093430845E+02  0.43400725529E+02  0.00000000000E+00 0. -1.
         11    1    3    3    0    0 -0.41374303852E+01  0.60059437276E+00 -0.45211818045E+00  0.42051700208E+01  0.51100000000E-03 0. -1.
        -11    1    3    3    0    0 -0.18743880340E+02  0.87401278088E+01  0.10472576827E+02  0.23181840953E+02  0.51100000000E-03 0.  1.
        -12    1    3    3    0    0 -0.13125921348E+02 -0.67699625572E+01  0.14072972199E+02  0.20400263497E+02  0.00000000000E+00 0.  1.
</event>
<event>
 7    1  0.2706925E-010  0.4778726E+02  0.7816164E-02  0.1312668E+00
        -11   -1    0    0    0    0  0.00000000000E+00  0.00000000000E+00  0.45593999997E+02  0.45594000000E+02  0.51100000000E-03 0.  1.
         11   -1    0    0    0    0 -0.00000000000E+00 -0.00000000000E+00 -0.45593999997E+02  0.45594000000E+02  0.51100000000E-03 0. -1.
    9900012    2    1    2    0    0  0.13333662238E+02 -0.28974112078E+02  0.29433621731E+02  0.47787264896E+02  0.19999971966E+02 0.  0.
         12    1    1    2    0    0 -0.13333662238E+02  0.28974112078E+02 -0.29433621731E+02  0.43400735104E+02  0.00000000000E+00 0. -1.
         11    1    3    3    0    0  0.77914173625E+01 -0.16578988169E+02  0.92531502052E+01  0.20522909691E+02  0.51100000000E-03 0. -1.
        -11    1    3    3    0    0 -0.96589094816E+00  0.21712278471E+01  0.24716938695E+01  0.34287674948E+01  0.51100000000E-03 0.  1.
        -12    1    3    3    0    0  0.65081358234E+01 -0.14566351756E+02  0.17708777657E+02  0.23835587710E+02  0.00000000000E+00 0.  1.
</event>
<event>
 7    1  0.2706925E-010  0.4778727E+02  0.7816164E-02  0.1312668E+00
        -11   -1    0    0    0    0  0.00000000000E+00  0.00000000000E+00  0.45593999997E+02  0.45594000000E+02  0.51100000000E-03 0.  1.
         11   -1    0    0    0    0 -0.00000000000E+00 -0.00000000000E+00 -0.45593999997E+02  0.45594000000E+02  0.51100000000E-03 0. -1.
    9900012    2    1    2    0    0 -0.14946177293E+02 -0.87999485903E+01  0.39784366808E+02  0.47787272435E+02  0.20000006338E+02 0.  0.
         12    1    1    2    0    0  0.14946177293E+02  0.87999485903E+01 -0.39784366808E+02  0.43400727565E+02  0.00000000000E+00 0. -1.
         11    1    3    3    0    0 -0.98124716475E+00 -0.62041163162E+01  0.39216343891E+01  0.74049390144E+01  0.51100000000E-03 0.  1.
        -11    1    3    3    0    0 -0.12651569090E+02  0.28437219265E+01  0.24956736807E+02  0.28124502967E+02  0.51100000000E-03 0. -1.
         12    1    3    3    0    0 -0.13133610383E+01 -0.54395542005E+01  0.10905995613E+02  0.12257830453E+02  0.00000000000E+00 0. -1.
</event>
<event>
 7    1  0.2706925E-010  0.4778721E+02  0.7816164E-02  0.1312668E+00
        -11   -1    0    0    0    0  0.00000000000E+00  0.00000000000E+00  0.45593999997E+02  0.45594000000E+02  0.51100000000E-03 0.  1.
         11   -1    0    0    0    0 -0.00000000000E+00 -0.00000000000E+00 -0.45593999997E+02  0.45594000000E+02  0.51100000000E-03 0. -1.
    9900012    2    1    2    0    0  0.34107159812E+02 -0.26693352082E+02 -0.27919273850E+01  0.47787213666E+02  0.19999738389E+02 0.  0.
         12    1    1    2    0    0 -0.34107159812E+02  0.26693352082E+02  0.27919273850E+01  0.43400786334E+02  0.00000000000E+00 0. -1.
         11    1    3    3    0    0  0.22573903809E+02 -0.97942565771E+01 -0.13582195502E+01  0.24644540079E+02  0.51100000000E-03 0. -1.
        -11    1    3    3    0    0  0.56147940531E+01 -0.11071829348E+02  0.42013060572E+01  0.13105811315E+02  0.51100000000E-03 0.  1.
         12    1    3    3    0    0  0.59184619501E+01 -0.58272661573E+01 -0.56350138920E+01  0.10036862273E+02  0.00000000000E+00 0. -1.
</event>
<event>
 7    1  0.2706925E-010  0.4778727E+02  0.7816164E-02  0.1312668E+00
        -11   -1    0    0    0    0  0.00000000000E+00  0.00000000000E+00  0.45593999997E+02  0.45594000000E+02  0.51100000000E-03 0. -1.
         11   -1    0    0    0    0 -0.00000000000E+00 -0.00000000000E+00 -0.45593999997E+02  0.45594000000E+02  0.51100000000E-03 0.  1.
    9900012    2    1    2    0    0  0.19960392548E+01  0.43354542730E+02 -0.15098831891E+00  0.47787270219E+02  0.19999996236E+02 0.  0.
         12    1    1    2    0    0 -0.19960392548E+01 -0.43354542730E+02  0.15098831891E+00  0.43400729781E+02  0.00000000000E+00 0. -1.
         11    1    3    3    0    0  0.42136526011E+01  0.24725323823E+02  0.69290771995E+01  0.26021310834E+02  0.51100000000E-03 0. -1.
        -11    1    3    3    0    0 -0.21939053868E+01  0.12171023100E+02 -0.25519885205E+00  0.12369808037E+02  0.51100000000E-03 0.  1.
         12    1    3    3    0    0 -0.23707959474E-01  0.64581958069E+01 -0.68248666663E+01  0.93961513483E+01  0.00000000000E+00 0. -1.
</event>
<event>
 7    1  0.2706925E-010  0.4778728E+02  0.7816164E-02  0.1312668E+00
        -11   -1    0    0    0    0  0.00000000000E+00  0.00000000000E+00  0.45593999997E+02  0.45594000000E+02  0.51100000000E-03 0.  1.
         11   -1    0    0    0    0 -0.00000000000E+00 -0.00000000000E+00 -0.45593999997E+02  0.45594000000E+02  0.51100000000E-03 0. -1.
    9900012    2    1    2    0    0 -0.13178105598E+02 -0.22684820324E+02  0.34573969076E+02  0.47787275606E+02  0.20000020796E+02 0.  0.
         12    1    1    2    0    0  0.13178105598E+02  0.22684820324E+02 -0.34573969076E+02  0.43400724394E+02  0.00000000000E+00 0. -1.
         11    1    3    3    0    0  0.28031794706E+01 -0.13518573847E+02  0.10145954472E+02  0.17133302262E+02  0.51100000000E-03 0. -1.
        -11    1    3    3    0    0 -0.11245210865E+02 -0.69292270301E+01  0.16231050705E+02  0.20926441692E+02  0.51100000000E-03 0.  1.
         12    1    3    3    0    0 -0.47360742031E+01 -0.22370194471E+01  0.81969638986E+01  0.97275316509E+01  0.00000000000E+00 0. -1.
</event>
<event>
 7    1  0.2706925E-010  0.4778727E+02  0.7816164E-02  0.1312668E+00
        -11   -1    0    0    0    0  0.00000000000E+00  0.00000000000E+00  0.45593999997E+02  0.45594000000E+02  0.51100000000E-03 0.  1.
         11   -1    0    0    0    0 -0.00000000000E+00 -0.00000000000E+00 -0.45593999997E+02  0.45594000000E+02  0.51100000000E-03 0. -1.
    9900012    2    1    2    0    0  0.16604563066E+02  0.39450871256E+02  0.71791678356E+01  0.47787271800E+02  0.20000003444E+02 0.  0.
         12    1    1    2    0    0 -0.16604563066E+02 -0.39450871256E+02 -0.71791678356E+01  0.43400728200E+02  0.00000000000E+00 0. -1.
         11    1    3    3    0    0  0.12256989009E+02  0.82860478169E+01  0.31980885177E+01  0.15136714915E+02  0.51100000000E-03 0. -1.
        -11    1    3    3    0    0 -0.15137197584E+01  0.16462388709E+02  0.11513091292E+01  0.16571876854E+02  0.51100000000E-03 0.  1.
        -12    1    3    3    0    0  0.58612938149E+01  0.14702434731E+02  0.28297701887E+01  0.16078680030E+02  0.00000000000E+00 0.  1.
</event>
<event>
 7    1  0.2706925E-010  0.4778727E+02  0.7816164E-02  0.1312668E+00
        -11   -1    0    0    0    0  0.00000000000E+00  0.00000000000E+00  0.45593999997E+02  0.45594000000E+02  0.51100000000E-03 0.  1.
         11   -1    0    0    0    0 -0.00000000000E+00 -0.00000000000E+00 -0.45593999997E+02  0.45594000000E+02  0.51100000000E-03 0. -1.
    9900012    2    1    2    0    0 -0.13705780031E+02  0.26670553694E+02  0.31376048410E+02  0.47787271268E+02  0.20000001019E+02 0.  0.
         12    1    1    2    0    0  0.13705780031E+02 -0.26670553694E+02 -0.31376048410E+02  0.43400728732E+02  0.00000000000E+00 0. -1.
         11    1    3    3    0    0 -0.23717631948E+01  0.10060987268E+02  0.35226434533E+01  0.10920519338E+02  0.51100000000E-03 0. -1.
        -11    1    3    3    0    0 -0.10440113134E+02  0.39076738402E+01  0.15774119873E+02  0.19315505044E+02  0.51100000000E-03 0.  1.
        -12    1    3    3    0    0 -0.89390370312E+00  0.12701892586E+02  0.12079285084E+02  0.17551246886E+02  0.00000000000E+00 0.  1.
</event>
<event>
 7    1  0.2706925E-010  0.4778727E+02  0.7816164E-02  0.1312668E+00
        -11   -1    0    0    0    0  0.00000000000E+00  0.00000000000E+00  0.45593999997E+02  0.45594000000E+02  0.51100000000E-03 0. -1.
         11   -1    0    0    0    0 -0.00000000000E+00 -0.00000000000E+00 -0.45593999997E+02  0.45594000000E+02  0.51100000000E-03 0.  1.
    9900012    2    1    2    0    0  0.25032129470E+02  0.22922430268E+02 -0.27047699731E+02  0.47787269868E+02  0.19999994638E+02 0.  0.
         12    1    1    2    0    0 -0.25032129470E+02 -0.22922430268E+02  0.27047699731E+02  0.43400730132E+02  0.00000000000E+00 0. -1.
         11    1    3    3    0    0 -0.27295530061E+01  0.42503216185E+00 -0.26963359013E+00  0.27755746226E+01  0.51100000000E-03 0. -1.
        -11    1    3    3    0    0  0.20834649362E+02  0.13544089377E+02 -0.17910125616E+02  0.30631643295E+02  0.51100000000E-03 0.  1.
         12    1    3    3    0    0  0.69270331146E+01  0.89533087288E+01 -0.88679405249E+01  0.14380051951E+02  0.00000000000E+00 0. -1.
</event>
<event>
 7    1  0.2706925E-010  0.4778727E+02  0.7816164E-02  0.1312668E+00
        -11   -1    0    0    0    0  0.00000000000E+00  0.00000000000E+00  0.45593999997E+02  0.45594000000E+02  0.51100000000E-03 0.  1.
         11   -1    0    0    0    0 -0.00000000000E+00 -0.00000000000E+00 -0.45593999997E+02  0.45594000000E+02  0.51100000000E-03 0. -1.
    9900012    2    1    2    0    0 -0.16675276401E+02 -0.35153397486E+01  0.39914920236E+02  0.47787270582E+02  0.19999997890E+02 0.  0.
         12    1    1    2    0    0  0.16675276401E+02  0.35153397486E+01 -0.39914920236E+02  0.43400729418E+02  0.00000000000E+00 0. -1.
         11    1    3    3    0    0 -0.11967815943E+02  0.40994927915E+01  0.15791780788E+02  0.20234001095E+02  0.51100000000E-03 0. -1.
        -11    1    3    3    0    0  0.26474786615E+01 -0.46564249994E+01  0.88348101566E+01  0.10331762086E+02  0.51100000000E-03 0.  1.
         12    1    3    3    0    0 -0.73549391201E+01 -0.29584075407E+01  0.15288329291E+02  0.17221507401E+02  0.00000000000E+00 0. -1.
</event>
<event>
 7    1  0.2706925E-010  0.4778727E+02  0.7816164E-02  0.1312668E+00
        -11   -1    0    0    0    0  0.00000000000E+00  0.00000000000E+00  0.45593999997E+02  0.45594000000E+02  0.51100000000E-03 0.  1.
         11   -1    0    0    0    0 -0.00000000000E+00 -0.00000000000E+00 -0.45593999997E+02  0.45594000000E+02  0.51100000000E-03 0. -1.
    9900012    2    1    2    0    0  0.35289777722E+02 -0.20805103996E+02  0.14331882297E+02  0.47787267124E+02  0.19999982127E+02 0.  0.
         12    1    1    2    0    0 -0.35289777722E+02  0.20805103996E+02 -0.14331882297E+02  0.43400732876E+02  0.00000000000E+00 0. -1.
         11    1    3    3    0    0  0.18931142101E+02 -0.10419537804E+02  0.15954734365E+02  0.26860909482E+02  0.51100000000E-03 0.  1.
        -11    1    3    3    0    0  0.15066268279E+02 -0.59000088491E+01 -0.92801435295E+00  0.16206904552E+02  0.51100000000E-03 0. -1.
         12    1    3    3    0    0  0.12923673431E+01 -0.44855573423E+01 -0.69483771490E+00  0.47194530902E+01  0.00000000000E+00 0. -1.
</event>
<event>
 7    1  0.2706925E-010  0.4778727E+02  0.7816164E-02  0.1312668E+00
        -11   -1    0    0    0    0  0.00000000000E+00  0.00000000000E+00  0.45593999997E+02  0.45594000000E+02  0.51100000000E-03 0.  1.
         11   -1    0    0    0    0 -0.00000000000E+00 -0.00000000000E+00 -0.45593999997E+02  0.45594000000E+02  0.51100000000E-03 0. -1.
    9900012    2    1    2    0    0 -0.32285015016E+02 -0.19730428089E+02  0.21260551970E+02  0.47787273540E+02  0.20000011379E+02 0.  0.
         12    1    1    2    0    0  0.32285015016E+02  0.19730428089E+02 -0.21260551970E+02  0.43400726460E+02  0.00000000000E+00 0. -1.
         11    1    3    3    0    0  0.10347141652E+00 -0.28876854483E+01 -0.18248981841E+00  0.28952955596E+01  0.51100000000E-03 0. -1.
        -11    1    3    3    0    0 -0.13545367411E+01  0.78901562576E+00  0.56459297825E+01  0.58595084103E+01  0.51100000000E-03 0.  1.
        -12    1    3    3    0    0 -0.31033949691E+02 -0.17631758267E+02  0.15797112006E+02  0.39032469570E+02  0.00000000000E+00 0.  1.
</event>
<event>
 7    1  0.2706925E-010  0.4778727E+02  0.7816164E-02  0.1312668E+00
        -11   -1    0    0    0    0  0.00000000000E+00  0.00000000000E+00  0.45593999997E+02  0.45594000000E+02  0.51100000000E-03 0.  1.
         11   -1    0    0    0    0 -0.00000000000E+00 -0.00000000000E+00 -0.45593999997E+02  0.45594000000E+02  0.51100000000E-03 0. -1.
    9900012    2    1    2    0    0 -0.19688717319E+02 -0.22468642590E+02  0.31482344819E+02  0.47787268153E+02  0.19999986819E+02 0.  0.
         12    1    1    2    0    0  0.19688717319E+02  0.22468642590E+02 -0.31482344819E+02  0.43400731847E+02  0.00000000000E+00 0. -1.
         11    1    3    3    0    0 -0.15192968845E+02 -0.11559378475E+02  0.78220001673E+01  0.20630783309E+02  0.51100000000E-03 0. -1.
        -11    1    3    3    0    0 -0.29973375310E+01 -0.10293607357E+02  0.15561157525E+02  0.18896878273E+02  0.51100000000E-03 0.  1.
         12    1    3    3    0    0 -0.14984109431E+01 -0.61565675775E+00  0.80991871270E+01  0.82596065715E+01  0.00000000000E+00 0. -1.
</event>
<event>
 7    1  0.2706925E-010  0.4778727E+02  0.7816164E-02  0.1312668E+00
        -11   -1    0    0    0    0  0.00000000000E+00  0.00000000000E+00  0.45593999997E+02  0.45594000000E+02  0.51100000000E-03 0. -1.
         11   -1    0    0    0    0 -0.00000000000E+00 -0.00000000000E+00 -0.45593999997E+02  0.45594000000E+02  0.51100000000E-03 0.  1.
    9900012    2    1    2    0    0  0.29976576338E+02 -0.30668071688E+02 -0.66706333789E+01  0.47787273051E+02  0.20000009150E+02 0.  0.
         12    1    1    2    0    0 -0.29976576338E+02  0.30668071688E+02  0.66706333789E+01  0.43400726949E+02  0.00000000000E+00 0. -1.
         11    1    3    3    0    0  0.23607220193E+02 -0.18991850729E+02 -0.79526421305E+01  0.31324682863E+02  0.51100000000E-03 0. -1.
        -11    1    3    3    0    0 -0.17371046535E+01 -0.13711420877E+01 -0.19600980665E+01  0.29562726351E+01  0.51100000000E-03 0.  1.
        -12    1    3    3    0    0  0.81064607980E+01 -0.10305078872E+02  0.32421068181E+01  0.13506317553E+02  0.00000000000E+00 0.  1.
</event>
<event>
 7    1  0.2706925E-010  0.4778727E+02  0.7816164E-02  0.1312668E+00
        -11   -1    0    0    0    0  0.00000000000E+00  0.00000000000E+00  0.45593999997E+02  0.45594000000E+02  0.51100000000E-03 0.  1.
         11   -1    0    0    0    0 -0.00000000000E+00 -0.00000000000E+00 -0.45593999997E+02  0.45594000000E+02  0.51100000000E-03 0. -1.
    9900012    2    1    2    0    0  0.13674856982E+02  0.40507105318E+02  0.74696603928E+01  0.47787272804E+02  0.20000008024E+02 0.  0.
         12    1    1    2    0    0 -0.13674856982E+02 -0.40507105318E+02 -0.74696603928E+01  0.43400727196E+02  0.00000000000E+00 0. -1.
         11    1    3    3    0    0  0.55398002250E+00  0.15724656750E+01 -0.18241554340E+01  0.24712518028E+01  0.51100000000E-03 0. -1.
        -11    1    3    3    0    0  0.14702373326E+02  0.33794827111E+02  0.29101476306E+01  0.36969163912E+02  0.51100000000E-03 0.  1.
        -12    1    3    3    0    0 -0.15814963672E+01  0.51398125329E+01  0.63836681962E+01  0.83468570895E+01  0.00000000000E+00 0.  1.
</event>
<event>
 7    1  0.2706925E-010  0.4778727E+02  0.7816164E-02  0.1312668E+00
        -11   -1    0    0    0    0  0.00000000000E+00  0.00000000000E+00  0.45593999997E+02  0.45594000000E+02  0.51100000000E-03 0.  1.
         11   -1    0    0    0    0 -0.00000000000E+00 -0.00000000000E+00 -0.45593999997E+02  0.45594000000E+02  0.51100000000E-03 0. -1.
    9900012    2    1    2    0    0  0.78237441702E+01  0.27250719072E+01  0.42602655551E+02  0.47787271322E+02  0.20000001267E+02 0.  0.
         12    1    1    2    0    0 -0.78237441702E+01 -0.27250719072E+01 -0.42602655551E+02  0.43400728678E+02  0.00000000000E+00 0. -1.
         11    1    3    3    0    0  0.13129417217E+01  0.51047136546E+01  0.21792708770E+02  0.22421063161E+02  0.51100000000E-03 0. -1.
        -11    1    3    3    0    0  0.63997979071E+01  0.32198194123E+01  0.17380390763E+02  0.18799006188E+02  0.51100000000E-03 0.  1.
         12    1    3    3    0    0  0.11100454139E+00 -0.55994611597E+01  0.34295560178E+01  0.65672019739E+01  0.00000000000E+00 0. -1.
</event>
<event>
 7    1  0.2706925E-010  0.4778729E+02  0.7816164E-02  0.1312668E+00
        -11   -1    0    0    0    0  0.00000000000E+00  0.00000000000E+00  0.45593999997E+02  0.45594000000E+02  0.51100000000E-03 0.  1.
         11   -1    0    0    0    0 -0.00000000000E+00 -0.00000000000E+00 -0.45593999997E+02  0.45594000000E+02  0.51100000000E-03 0. -1.
    9900012    2    1    2    0    0 -0.37838130206E+02  0.74550474326E+01  0.19907787680E+02  0.47787287563E+02  0.20000075316E+02 0.  0.
         12    1    1    2    0    0  0.37838130206E+02 -0.74550474326E+01 -0.19907787680E+02  0.43400712437E+02  0.00000000000E+00 0. -1.
         11    1    3    3    0    0 -0.25883952689E+02  0.11981825586E+02  0.11734899003E+02  0.30842357336E+02  0.51100000000E-03 0. -1.
        -11    1    3    3    0    0 -0.11309058989E+02 -0.55872814315E+01  0.89624544037E+01  0.15473788102E+02  0.51100000000E-03 0.  1.
         12    1    3    3    0    0 -0.64511852801E+00  0.10605032780E+01 -0.78956572633E+00  0.14711421257E+01  0.00000000000E+00 0. -1.
</event>
<event>
 7    1  0.2706925E-010  0.4778727E+02  0.7816164E-02  0.1312668E+00
        -11   -1    0    0    0    0  0.00000000000E+00  0.00000000000E+00  0.45593999997E+02  0.45594000000E+02  0.51100000000E-03 0.  1.
         11   -1    0    0    0    0 -0.00000000000E+00 -0.00000000000E+00 -0.45593999997E+02  0.45594000000E+02  0.51100000000E-03 0. -1.
    9900012    2    1    2    0    0  0.17538205847E+02 -0.38653191736E+01  0.39510678572E+02  0.47787273303E+02  0.20000010296E+02 0.  0.
         12    1    1    2    0    0 -0.17538205847E+02  0.38653191736E+01 -0.39510678572E+02  0.43400726697E+02  0.00000000000E+00 0. -1.
         11    1    3    3    0    0 -0.20682673295E+01  0.32395505232E+01  0.43648180416E+01  0.58158450922E+01  0.51100000000E-03 0. -1.
        -11    1    3    3    0    0  0.13376047135E+02 -0.15574943504E+01  0.27655771587E+02  0.30760138621E+02  0.51100000000E-03 0.  1.
         12    1    3    3    0    0  0.62304260417E+01 -0.55473753465E+01  0.74900889429E+01  0.11211289590E+02  0.00000000000E+00 0. -1.
</event>
<event>
 7    1  0.2706925E-010  0.4778727E+02  0.7816164E-02  0.1312668E+00
        -11   -1    0    0    0    0  0.00000000000E+00  0.00000000000E+00  0.45593999997E+02  0.45594000000E+02  0.51100000000E-03 0.  1.
         11   -1    0    0    0    0 -0.00000000000E+00 -0.00000000000E+00 -0.45593999997E+02  0.45594000000E+02  0.51100000000E-03 0. -1.
    9900012    2    1    2    0    0  0.16695537771E+02  0.33958463530E+02  0.21253355325E+02  0.47787270290E+02  0.19999996561E+02 0.  0.
         12    1    1    2    0    0 -0.16695537771E+02 -0.33958463530E+02 -0.21253355325E+02  0.43400729710E+02  0.00000000000E+00 0. -1.
         11    1    3    3    0    0 -0.50411694388E+00 -0.11404267780E+01  0.23883305940E+01  0.26942216718E+01  0.51100000000E-03 0. -1.
        -11    1    3    3    0    0  0.18757101697E+02  0.34309514692E+02  0.18687013531E+02  0.43337929547E+02  0.51100000000E-03 0.  1.
         12    1    3    3    0    0 -0.15574469825E+01  0.78937561646E+00  0.17801119965E+00  0.17551190713E+01  0.00000000000E+00 0. -1.
</event>
<event>
 7    1  0.2706925E-010  0.4778726E+02  0.7816164E-02  0.1312668E+00
        -11   -1    0    0    0    0  0.00000000000E+00  0.00000000000E+00  0.45593999997E+02  0.45594000000E+02  0.51100000000E-03 0. -1.
         11   -1    0    0    0    0 -0.00000000000E+00 -0.00000000000E+00 -0.45593999997E+02  0.45594000000E+02  0.51100000000E-03 0.  1.
    9900012    2    1    2    0    0 -0.20386578752E+02  0.25153221333E+02 -0.28902029944E+02  0.47787257246E+02  0.19999937089E+02 0.  0.
         12    1    1    2    0    0  0.20386578752E+02 -0.25153221333E+02  0.28902029944E+02  0.43400742754E+02  0.00000000000E+00 0. -1.
         11    1    3    3    0    0 -0.74318729967E+01  0.11518063668E+02 -0.13382680537E+02  0.19157104831E+02  0.51100000000E-03 0.  1.
        -11    1    3    3    0    0  0.16306848809E+01 -0.20569498165E+01 -0.19613405482E+01  0.32767411762E+01  0.51100000000E-03 0. -1.
        -12    1    3    3    0    0 -0.14585390637E+02  0.15692107481E+02 -0.13558008860E+02  0.25353411239E+02  0.00000000000E+00 0.  1.
</event>
<event>
 7    1  0.2706925E-010  0.4778727E+02  0.7816164E-02  0.1312668E+00
        -11   -1    0    0    0    0  0.00000000000E+00  0.00000000000E+00  0.45593999997E+02  0.45594000000E+02  0.51100000000E-03 0.  1.
         11   -1    0    0    0    0 -0.00000000000E+00 -0.00000000000E+00 -0.45593999997E+02  0.45594000000E+02  0.51100000000E-03 0. -1.
    9900012    2    1    2    0    0 -0.34060919737E+02 -0.76240002948E+01  0.25794414286E+02  0.47787269105E+02  0.19999991159E+02 0.  0.
         12    1    1    2    0    0  0.34060919737E+02  0.76240002948E+01 -0.25794414286E+02  0.43400730895E+02  0.00000000000E+00 0. -1.
         11    1    3    3    0    0 -0.42738469195E+01  0.15864462688E+00  0.18619545396E+01  0.46645268332E+01  0.51100000000E-03 0. -1.
        -11    1    3    3    0    0 -0.28727329462E+02 -0.11455683792E+02  0.24229761189E+02  0.39288337668E+02  0.51100000000E-03 0.  1.
        -12    1    3    3    0    0 -0.10597433556E+01  0.36730388702E+01 -0.29730144276E+00  0.38344046043E+01  0.00000000000E+00 0.  1.
</event>
<event>
 7    1  0.2706925E-010  0.4778727E+02  0.7816164E-02  0.1312668E+00
        -11   -1    0    0    0    0  0.00000000000E+00  0.00000000000E+00  0.45593999997E+02  0.45594000000E+02  0.51100000000E-03 0.  1.
         11   -1    0    0    0    0 -0.00000000000E+00 -0.00000000000E+00 -0.45593999997E+02  0.45594000000E+02  0.51100000000E-03 0. -1.
    9900012    2    1    2    0    0 -0.41102426097E+02  0.85347267217E+01  0.11016918921E+02  0.47787268511E+02  0.19999988450E+02 0.  0.
         12    1    1    2    0    0  0.41102426097E+02 -0.85347267217E+01 -0.11016918921E+02  0.43400731489E+02  0.00000000000E+00 0. -1.
         11    1    3    3    0    0 -0.91884511989E+01 -0.36929319404E+01  0.81456454173E+01  0.12822516183E+02  0.51100000000E-03 0. -1.
        -11    1    3    3    0    0 -0.21890641383E+02  0.11526610569E+02  0.29614881174E+01  0.24916527517E+02  0.51100000000E-03 0.  1.
         12    1    3    3    0    0 -0.10023333514E+02  0.70104809293E+00 -0.90214613284E-01  0.10048224810E+02  0.00000000000E+00 0. -1.
</event>
<event>
 7    1  0.2706925E-010  0.4778727E+02  0.7816164E-02  0.1312668E+00
        -11   -1    0    0    0    0  0.00000000000E+00  0.00000000000E+00  0.45593999997E+02  0.45594000000E+02  0.51100000000E-03 0. -1.
         11   -1    0    0    0    0 -0.00000000000E+00 -0.00000000000E+00 -0.45593999997E+02  0.45594000000E+02  0.51100000000E-03 0.  1.
    9900012    2    1    2    0    0 -0.29965682599E+02  0.19742529210E+02 -0.24411345516E+02  0.47787269785E+02  0.19999994259E+02 0.  0.
         12    1    1    2    0    0  0.29965682599E+02 -0.19742529210E+02  0.24411345516E+02  0.43400730215E+02  0.00000000000E+00 0. -1.
         11    1    3    3    0    0 -0.61278253996E+01  0.28084360777E+01 -0.13052788183E+01  0.68659529845E+01  0.51100000000E-03 0. -1.
        -11    1    3    3    0    0 -0.15899831581E+01 -0.17846903329E+01  0.15083033342E+01  0.28263307019E+01  0.51100000000E-03 0.  1.
        -12    1    3    3    0    0 -0.22247874042E+02  0.18718783466E+02 -0.24614370032E+02  0.38094986099E+02  0.00000000000E+00 0.  1.
</event>
<event>
 7    1  0.2706925E-010  0.4778727E+02  0.7816164E-02  0.1312668E+00
        -11   -1    0    0    0    0  0.00000000000E+00  0.00000000000E+00  0.45593999997E+02  0.45594000000E+02  0.51100000000E-03 0. -1.
         11   -1    0    0    0    0 -0.00000000000E+00 -0.00000000000E+00 -0.45593999997E+02  0.45594000000E+02  0.51100000000E-03 0.  1.
    9900012    2    1    2    0    0 -0.36612960557E+02  0.20420274845E+02  0.11230611718E+02  0.47787272528E+02  0.20000006766E+02 0.  0.
         12    1    1    2    0    0  0.36612960557E+02 -0.20420274845E+02 -0.11230611718E+02  0.43400727472E+02  0.00000000000E+00 0. -1.
         11    1    3    3    0    0 -0.27700292739E+02  0.20388176386E+02  0.47689008987E+01  0.34723570816E+02  0.51100000000E-03 0. -1.
        -11    1    3    3    0    0 -0.23572531234E+01  0.28341730802E+01  0.40396929506E+00  0.37084189069E+01  0.51100000000E-03 0.  1.
         12    1    3    3    0    0 -0.65554146947E+01 -0.28020746211E+01  0.60577415238E+01  0.93552828055E+01  0.00000000000E+00 0. -1.
</event>
<event>
 7    1  0.2706925E-010  0.4778727E+02  0.7816164E-02  0.1312668E+00
        -11   -1    0    0    0    0  0.00000000000E+00  0.00000000000E+00  0.45593999997E+02  0.45594000000E+02  0.51100000000E-03 0.  1.
         11   -1    0    0    0    0 -0.00000000000E+00 -0.00000000000E+00 -0.45593999997E+02  0.45594000000E+02  0.51100000000E-03 0. -1.
    9900012    2    1    2    0    0  0.16168609180E+02  0.20850763726E+01  0.40222526511E+02  0.47787272987E+02  0.20000008858E+02 0.  0.
         12    1    1    2    0    0 -0.16168609180E+02 -0.20850763726E+01 -0.40222526511E+02  0.43400727013E+02  0.00000000000E+00 0. -1.
         11    1    3    3    0    0  0.49814073944E+01  0.26869142180E+01  0.78888039803E+01  0.97091274657E+01  0.51100000000E-03 0. -1.
        -11    1    3    3    0    0 -0.67561993497E+00  0.49763397413E+01  0.17850117239E+02  0.18543114766E+02  0.51100000000E-03 0.  1.
        -12    1    3    3    0    0  0.11862821721E+02 -0.55781775867E+01  0.14483605292E+02  0.19535030755E+02  0.00000000000E+00 0.  1.
</event>
<event>
 7    1  0.2706925E-010  0.4778727E+02  0.7816164E-02  0.1312668E+00
        -11   -1    0    0    0    0  0.00000000000E+00  0.00000000000E+00  0.45593999997E+02  0.45594000000E+02  0.51100000000E-03 0.  1.
         11   -1    0    0    0    0 -0.00000000000E+00 -0.00000000000E+00 -0.45593999997E+02  0.45594000000E+02  0.51100000000E-03 0. -1.
    9900012    2    1    2    0    0 -0.86793125522E+01 -0.23815054759E+02  0.35229759474E+02  0.47787271294E+02  0.20000001140E+02 0.  0.
         12    1    1    2    0    0  0.86793125522E+01  0.23815054759E+02 -0.35229759474E+02  0.43400728706E+02  0.00000000000E+00 0. -1.
         11    1    3    3    0    0 -0.37943288381E+01  0.22321979159E+01  0.54003464145E+01  0.69673079827E+01  0.51100000000E-03 0. -1.
        -11    1    3    3    0    0 -0.24288541613E+01 -0.17763531027E+01  0.60287348583E+01  0.67379824231E+01  0.51100000000E-03 0.  1.
         12    1    3    3    0    0 -0.24561295528E+01 -0.24270899573E+02  0.23800678201E+02  0.34081980889E+02  0.00000000000E+00 0. -1.
</event>
<event>
 7    1  0.2706925E-010  0.4778727E+02  0.7816164E-02  0.1312668E+00
        -11   -1    0    0    0    0  0.00000000000E+00  0.00000000000E+00  0.45593999997E+02  0.45594000000E+02  0.51100000000E-03 0. -1.
         11   -1    0    0    0    0 -0.00000000000E+00 -0.00000000000E+00 -0.45593999997E+02  0.45594000000E+02  0.51100000000E-03 0.  1.
    9900012    2    1    2    0    0 -0.34257438808E+02  0.13283812400E+02 -0.23099598354E+02  0.47787271553E+02  0.20000002320E+02 0.  0.
         12    1    1    2    0    0  0.34257438808E+02 -0.13283812400E+02  0.23099598354E+02  0.43400728447E+02  0.00000000000E+00 0. -1.
         11    1    3    3    0    0 -0.20380136862E+01  0.16255451425E+01  0.24107244951E+01  0.35507026977E+01  0.51100000000E-03 0. -1.
        -11    1    3    3    0    0 -0.25837564704E+02  0.64025877912E+01 -0.14032599124E+02  0.30091306364E+02  0.51100000000E-03 0.  1.
        -12    1    3    3    0    0 -0.63818604182E+01  0.52556794666E+01 -0.11477723725E+02  0.14145262492E+02  0.00000000000E+00 0.  1.
</event>
<event>
 7    1  0.2706925E-010  0.4778727E+02  0.7816164E-02  0.1312668E+00
        -11   -1    0    0    0    0  0.00000000000E+00  0.00000000000E+00  0.45593999997E+02  0.45594000000E+02  0.51100000000E-03 0.  1.
         11   -1    0    0    0    0 -0.00000000000E+00 -0.00000000000E+00 -0.45593999997E+02  0.45594000000E+02  0.51100000000E-03 0. -1.
    9900012    2    1    2    0    0 -0.36702261877E+02  0.18176272357E+02 -0.14359329022E+02  0.47787271508E+02  0.20000002115E+02 0.  0.
         12    1    1    2    0    0  0.36702261877E+02 -0.18176272357E+02  0.14359329022E+02  0.43400728492E+02  0.00000000000E+00 0. -1.
         11    1    3    3    0    0 -0.18019521205E+02  0.13827932258E+02  0.82743761418E+00  0.22728825492E+02  0.51100000000E-03 0. -1.
        -11    1    3    3    0    0 -0.14600026906E+02  0.24500249721E+01 -0.87289210526E+01  0.17185967271E+02  0.51100000000E-03 0.  1.
         12    1    3    3    0    0 -0.40827137657E+01  0.18983151261E+01 -0.64578455838E+01  0.78724787453E+01  0.00000000000E+00 0. -1.
</event>
<event>
 7    1  0.2706925E-010  0.4778727E+02  0.7816164E-02  0.1312668E+00
        -11   -1    0    0    0    0  0.00000000000E+00  0.00000000000E+00  0.45593999997E+02  0.45594000000E+02  0.51100000000E-03 0.  1.
         11   -1    0    0    0    0 -0.00000000000E+00 -0.00000000000E+00 -0.45593999997E+02  0.45594000000E+02  0.51100000000E-03 0. -1.
    9900012    2    1    2    0    0 -0.91299847093E+01  0.25830178704E+02  0.33661081423E+02  0.47787272411E+02  0.20000006232E+02 0.  0.
         12    1    1    2    0    0  0.91299847093E+01 -0.25830178704E+02 -0.33661081423E+02  0.43400727589E+02  0.00000000000E+00 0. -1.
         11    1    3    3    0    0 -0.12157860376E+00 -0.32259462202E+01  0.27603140671E+01  0.42474515162E+01  0.51100000000E-03 0. -1.
        -11    1    3    3    0    0 -0.93765883724E+01  0.28524828736E+02  0.30210151217E+02  0.42593890416E+02  0.51100000000E-03 0.  1.
         12    1    3    3    0    0  0.36818226679E+00  0.53129618861E+00  0.69061613848E+00  0.94593047965E+00  0.00000000000E+00 0. -1.
</event>
<event>
 7    1  0.2706925E-010  0.4778727E+02  0.7816164E-02  0.1312668E+00
        -11   -1    0    0    0    0  0.00000000000E+00  0.00000000000E+00  0.45593999997E+02  0.45594000000E+02  0.51100000000E-03 0. -1.
         11   -1    0    0    0    0 -0.00000000000E+00 -0.00000000000E+00 -0.45593999997E+02  0.45594000000E+02  0.51100000000E-03 0.  1.
    9900012    2    1    2    0    0 -0.34310315065E+02  0.38617538097E+01 -0.26296619783E+02  0.47787273343E+02  0.20000010480E+02 0.  0.
         12    1    1    2    0    0  0.34310315065E+02 -0.38617538097E+01  0.26296619783E+02  0.43400726657E+02  0.00000000000E+00 0. -1.
         11    1    3    3    0    0 -0.18946318629E+02  0.53613378846E+01 -0.20584450563E+02  0.28485549648E+02  0.51100000000E-03 0. -1.
        -11    1    3    3    0    0  0.70711733888E+00 -0.16894569464E+00  0.14765844606E+01  0.16458613274E+01  0.51100000000E-03 0.  1.
        -12    1    3    3    0    0 -0.16071113775E+02 -0.13306383802E+01 -0.71887536800E+01  0.17655862367E+02  0.00000000000E+00 0.  1.
</event>
<event>
 7    1  0.2706925E-010  0.4778727E+02  0.7816164E-02  0.1312668E+00
        -11   -1    0    0    0    0  0.00000000000E+00  0.00000000000E+00  0.45593999997E+02  0.45594000000E+02  0.51100000000E-03 0.  1.
         11   -1    0    0    0    0 -0.00000000000E+00 -0.00000000000E+00 -0.45593999997E+02  0.45594000000E+02  0.51100000000E-03 0. -1.
    9900012    2    1    2    0    0 -0.11145727280E+02  0.11438873206E+02  0.40355275307E+02  0.47787270722E+02  0.19999998528E+02 0.  0.
         12    1    1    2    0    0  0.11145727280E+02 -0.11438873206E+02 -0.40355275307E+02  0.43400729278E+02  0.00000000000E+00 0. -1.
         11    1    3    3    0    0 -0.72599082217E+01  0.16046110991E+01  0.28307884727E+01  0.79557782652E+01  0.51100000000E-03 0. -1.
        -11    1    3    3    0    0 -0.59697311144E+01  0.71279705963E+01  0.21132231742E+02  0.23087158185E+02  0.51100000000E-03 0.  1.
         12    1    3    3    0    0  0.20839120558E+01  0.27062915106E+01  0.16392255092E+02  0.16744334272E+02  0.00000000000E+00 0. -1.
</event>
<event>
 7    1  0.2706925E-010  0.4778727E+02  0.7816164E-02  0.1312668E+00
        -11   -1    0    0    0    0  0.00000000000E+00  0.00000000000E+00  0.45593999997E+02  0.45594000000E+02  0.51100000000E-03 0.  1.
         11   -1    0    0    0    0 -0.00000000000E+00 -0.00000000000E+00 -0.45593999997E+02  0.45594000000E+02  0.51100000000E-03 0. -1.
    9900012    2    1    2    0    0 -0.33992705879E+02  0.21373682870E+02  0.16470726158E+02  0.47787271981E+02  0.20000004269E+02 0.  0.
         12    1    1    2    0    0  0.33992705879E+02 -0.21373682870E+02 -0.16470726158E+02  0.43400728019E+02  0.00000000000E+00 0. -1.
         11    1    3    3    0    0  0.48240160784E+00  0.25120234849E+01  0.66118363349E+01  0.70893831382E+01  0.51100000000E-03 0. -1.
        -11    1    3    3    0    0 -0.17356856220E+02  0.73250216549E+01  0.44300643931E+01  0.19353084273E+02  0.51100000000E-03 0.  1.
         12    1    3    3    0    0 -0.17118251267E+02  0.11536637730E+02  0.54288254302E+01  0.21344804570E+02  0.00000000000E+00 0. -1.
</event>
<event>
 7    1  0.2706925E-010  0.4778727E+02  0.7816164E-02  0.1312668E+00
        -11   -1    0    0    0    0  0.00000000000E+00  0.00000000000E+00  0.45593999997E+02  0.45594000000E+02  0.51100000000E-03 0.  1.
         11   -1    0    0    0    0 -0.00000000000E+00 -0.00000000000E+00 -0.45593999997E+02  0.45594000000E+02  0.51100000000E-03 0. -1.
    9900012    2    1    2    0    0 -0.14405384918E+02 -0.12662401465E+01  0.40920714893E+02  0.47787269751E+02  0.19999994105E+02 0.  0.
         12    1    1    2    0    0  0.14405384918E+02  0.12662401465E+01 -0.40920714893E+02  0.43400730249E+02  0.00000000000E+00 0. -1.
         11    1    3    3    0    0 -0.95446866494E+01 -0.45925975946E+01  0.13170285383E+02  0.16901166032E+02  0.51100000000E-03 0. -1.
        -11    1    3    3    0    0 -0.64236379571E+01  0.68588232070E+01  0.22361104276E+02  0.24255423416E+02  0.51100000000E-03 0.  1.
         12    1    3    3    0    0  0.15629396889E+01 -0.35324657590E+01  0.53893252339E+01  0.66306803035E+01  0.00000000000E+00 0. -1.
</event>
<event>
 7    1  0.2706925E-010  0.4778727E+02  0.7816164E-02  0.1312668E+00
        -11   -1    0    0    0    0  0.00000000000E+00  0.00000000000E+00  0.45593999997E+02  0.45594000000E+02  0.51100000000E-03 0.  1.
         11   -1    0    0    0    0 -0.00000000000E+00 -0.00000000000E+00 -0.45593999997E+02  0.45594000000E+02  0.51100000000E-03 0. -1.
    9900012    2    1    2    0    0  0.95967019929E+01 -0.28516371651E+02  0.31278477415E+02  0.47787270851E+02  0.19999999116E+02 0.  0.
         12    1    1    2    0    0 -0.95967019929E+01  0.28516371651E+02 -0.31278477415E+02  0.43400729149E+02  0.00000000000E+00 0. -1.
         11    1    3    3    0    0  0.13845547596E+01 -0.15840421416E+00 -0.20866794789E+01  0.25092459597E+01  0.51100000000E-03 0. -1.
        -11    1    3    3    0    0  0.24700028376E+01 -0.78840611233E+01  0.15248890627E+02  0.17343240741E+02  0.51100000000E-03 0.  1.
         12    1    3    3    0    0  0.57421443957E+01 -0.20473906313E+02  0.18116266268E+02  0.27934784149E+02  0.00000000000E+00 0. -1.
</event>
<event>
 7    1  0.2706925E-010  0.4778727E+02  0.7816164E-02  0.1312668E+00
        -11   -1    0    0    0    0  0.00000000000E+00  0.00000000000E+00  0.45593999997E+02  0.45594000000E+02  0.51100000000E-03 0. -1.
         11   -1    0    0    0    0 -0.00000000000E+00 -0.00000000000E+00 -0.45593999997E+02  0.45594000000E+02  0.51100000000E-03 0.  1.
    9900012    2    1    2    0    0 -0.39967168232E+02 -0.16900860395E+02  0.78080863059E+00  0.47787270966E+02  0.19999999643E+02 0.  0.
         12    1    1    2    0    0  0.39967168232E+02  0.16900860395E+02 -0.78080863059E+00  0.43400729034E+02  0.00000000000E+00 0. -1.
         11    1    3    3    0    0 -0.66661266147E+01 -0.54158975228E+01  0.22638462968E+01  0.88822401643E+01  0.51100000000E-03 0. -1.
        -11    1    3    3    0    0 -0.21086306067E+02 -0.11585037504E+02 -0.76171259712E+01  0.25236204268E+02  0.51100000000E-03 0.  1.
        -12    1    3    3    0    0 -0.12214735550E+02  0.10007463172E+00  0.61340883051E+01  0.13668826534E+02  0.00000000000E+00 0.  1.
</event>
<event>
 7    1  0.2706925E-010  0.4778730E+02  0.7816164E-02  0.1312668E+00
        -11   -1    0    0    0    0  0.00000000000E+00  0.00000000000E+00  0.45593999997E+02  0.45594000000E+02  0.51100000000E-03 0.  1.
         11   -1    0    0    0    0 -0.00000000000E+00 -0.00000000000E+00 -0.45593999997E+02  0.45594000000E+02  0.51100000000E-03 0. -1.
    9900012    2    1    2    0    0 -0.15484887434E+02 -0.89037803305E+01  0.39554546466E+02  0.47787295061E+02  0.20000109502E+02 0.  0.
         12    1    1    2    0    0  0.15484887434E+02  0.89037803305E+01 -0.39554546466E+02  0.43400704939E+02  0.00000000000E+00 0. -1.
         11    1    3    3    0    0 -0.11445363395E+02 -0.12902047654E+01  0.12793225403E+02  0.17214168236E+02  0.51100000000E-03 0. -1.
        -11    1    3    3    0    0 -0.45329089864E+01 -0.97919884812E+01  0.26101822578E+02  0.28244210813E+02  0.51100000000E-03 0.  1.
         12    1    3    3    0    0  0.49338494761E+00  0.21784129162E+01  0.65949848570E+00  0.23289160123E+01  0.00000000000E+00 0. -1.
</event>
<event>
 7    1  0.2706925E-010  0.4778722E+02  0.7816164E-02  0.1312668E+00
        -11   -1    0    0    0    0  0.00000000000E+00  0.00000000000E+00  0.45593999997E+02  0.45594000000E+02  0.51100000000E-03 0.  1.
         11   -1    0    0    0    0 -0.00000000000E+00 -0.00000000000E+00 -0.45593999997E+02  0.45594000000E+02  0.51100000000E-03 0. -1.
    9900012    2    1    2    0    0  0.11962605108E+01 -0.22092009033E+02  0.37338182615E+02  0.47787219093E+02  0.19999763132E+02 0.  0.
         12    1    1    2    0    0 -0.11962605108E+01  0.22092009033E+02 -0.37338182615E+02  0.43400780907E+02  0.00000000000E+00 0. -1.
         11    1    3    3    0    0  0.42826850373E+01 -0.70737987115E+01  0.22389643761E+02  0.23867889880E+02  0.51100000000E-03 0. -1.
        -11    1    3    3    0    0 -0.14044520849E+01 -0.44108547126E+01  0.11879518843E+02  0.12749552665E+02  0.51100000000E-03 0.  1.
         12    1    3    3    0    0 -0.16819724416E+01 -0.10607355609E+02  0.30690200115E+01  0.11169776548E+02  0.00000000000E+00 0. -1.
</event>
<event>
 7    1  0.2706925E-010  0.4778727E+02  0.7816164E-02  0.1312668E+00
        -11   -1    0    0    0    0  0.00000000000E+00  0.00000000000E+00  0.45593999997E+02  0.45594000000E+02  0.51100000000E-03 0.  1.
         11   -1    0    0    0    0 -0.00000000000E+00 -0.00000000000E+00 -0.45593999997E+02  0.45594000000E+02  0.51100000000E-03 0. -1.
    9900012    2    1    2    0    0  0.40789531988E+02 -0.14738801287E+02  0.16141917875E+01  0.47787265003E+02  0.19999972453E+02 0.  0.
         12    1    1    2    0    0 -0.40789531988E+02  0.14738801287E+02 -0.16141917875E+01  0.43400734997E+02  0.00000000000E+00 0. -1.
         11    1    3    3    0    0  0.12734397336E+02 -0.11376867263E+02 -0.56237731301E+01  0.17978454014E+02  0.51100000000E-03 0. -1.
        -11    1    3    3    0    0  0.14448444278E+02 -0.13056862306E+00  0.96489300941E+00  0.14481215729E+02  0.51100000000E-03 0.  1.
         12    1    3    3    0    0  0.13606690374E+02 -0.32313654007E+01  0.62730719082E+01  0.15327595260E+02  0.00000000000E+00 0. -1.
</event>
<event>
 7    1  0.2706925E-010  0.4778727E+02  0.7816164E-02  0.1312668E+00
        -11   -1    0    0    0    0  0.00000000000E+00  0.00000000000E+00  0.45593999997E+02  0.45594000000E+02  0.51100000000E-03 0.  1.
         11   -1    0    0    0    0 -0.00000000000E+00 -0.00000000000E+00 -0.45593999997E+02  0.45594000000E+02  0.51100000000E-03 0. -1.
    9900012    2    1    2    0    0 -0.70860464890E+01 -0.15279479669E+02  0.39999359189E+02  0.47787270866E+02  0.19999999189E+02 0.  0.
         12    1    1    2    0    0  0.70860464890E+01  0.15279479669E+02 -0.39999359189E+02  0.43400729134E+02  0.00000000000E+00 0. -1.
         11    1    3    3    0    0 -0.62636371340E+01  0.25603065352E+01  0.16224189447E+02  0.17578755450E+02  0.51100000000E-03 0. -1.
        -11    1    3    3    0    0  0.20222353117E+01 -0.10863257968E+02  0.13018701327E+02  0.17075900968E+02  0.51100000000E-03 0.  1.
         12    1    3    3    0    0 -0.28446446666E+01 -0.69765282360E+01  0.10756468414E+02  0.13132614448E+02  0.00000000000E+00 0. -1.
</event>
<event>
 7    1  0.2706925E-010  0.4778727E+02  0.7816164E-02  0.1312668E+00
        -11   -1    0    0    0    0  0.00000000000E+00  0.00000000000E+00  0.45593999997E+02  0.45594000000E+02  0.51100000000E-03 0. -1.
         11   -1    0    0    0    0 -0.00000000000E+00 -0.00000000000E+00 -0.45593999997E+02  0.45594000000E+02  0.51100000000E-03 0.  1.
    9900012    2    1    2    0    0 -0.22684539656E+01  0.42726208924E+02 -0.72765752708E+01  0.47787270051E+02  0.19999995473E+02 0.  0.
         12    1    1    2    0    0  0.22684539656E+01 -0.42726208924E+02  0.72765752708E+01  0.43400729949E+02  0.00000000000E+00 0. -1.
         11    1    3    3    0    0 -0.34066245346E+01  0.19368927111E+02 -0.32744017384E+01  0.19936954009E+02  0.51100000000E-03 0. -1.
        -11    1    3    3    0    0  0.18858611916E+01 -0.16024573625E+01  0.36139520087E+00  0.25009895612E+01  0.51100000000E-03 0.  1.
        -12    1    3    3    0    0 -0.74769062267E+00  0.24959739176E+02 -0.43635687332E+01  0.25349326482E+02  0.00000000000E+00 0.  1.
</event>
<event>
 7    1  0.2706925E-010  0.4778727E+02  0.7816164E-02  0.1312668E+00
        -11   -1    0    0    0    0  0.00000000000E+00  0.00000000000E+00  0.45593999997E+02  0.45594000000E+02  0.51100000000E-03 0.  1.
         11   -1    0    0    0    0 -0.00000000000E+00 -0.00000000000E+00 -0.45593999997E+02  0.45594000000E+02  0.51100000000E-03 0. -1.
    9900012    2    1    2    0    0 -0.89726417424E+01  0.11286322666E+02  0.40935727440E+02  0.47787272354E+02  0.20000005972E+02 0.  0.
         12    1    1    2    0    0  0.89726417424E+01 -0.11286322666E+02 -0.40935727440E+02  0.43400727646E+02  0.00000000000E+00 0. -1.
         11    1    3    3    0    0  0.18953014915E+01 -0.28375682941E+01  0.20387203562E+01  0.39749644677E+01  0.51100000000E-03 0. -1.
        -11    1    3    3    0    0 -0.10551584896E+02  0.95847050261E+01  0.35106168766E+02  0.37889914224E+02  0.51100000000E-03 0.  1.
        -12    1    3    3    0    0 -0.31635833777E+00  0.45391859336E+01  0.37908383180E+01  0.59223936623E+01  0.00000000000E+00 0.  1.
</event>
<event>
 7    1  0.2706925E-010  0.4778727E+02  0.7816164E-02  0.1312668E+00
        -11   -1    0    0    0    0  0.00000000000E+00  0.00000000000E+00  0.45593999997E+02  0.45594000000E+02  0.51100000000E-03 0.  1.
         11   -1    0    0    0    0 -0.00000000000E+00 -0.00000000000E+00 -0.45593999997E+02  0.45594000000E+02  0.51100000000E-03 0. -1.
    9900012    2    1    2    0    0 -0.29436537226E+01  0.20215288404E+01  0.43253577102E+02  0.47787267193E+02  0.19999982438E+02 0.  0.
         12    1    1    2    0    0  0.29436537226E+01 -0.20215288404E+01 -0.43253577102E+02  0.43400732807E+02  0.00000000000E+00 0. -1.
         11    1    3    3    0    0  0.19718733153E+01 -0.45203190883E+01  0.28524938567E+02  0.28948120656E+02  0.51100000000E-03 0. -1.
        -11    1    3    3    0    0 -0.47374693984E+01  0.32748246622E+01  0.26763961419E+01  0.63506841709E+01  0.51100000000E-03 0.  1.
         12    1    3    3    0    0 -0.17805763956E+00  0.32670232665E+01  0.12052242394E+02  0.12488462366E+02  0.00000000000E+00 0. -1.
</event>
<event>
 7    1  0.2706925E-010  0.4778727E+02  0.7816164E-02  0.1312668E+00
        -11   -1    0    0    0    0  0.00000000000E+00  0.00000000000E+00  0.45593999997E+02  0.45594000000E+02  0.51100000000E-03 0.  1.
         11   -1    0    0    0    0 -0.00000000000E+00 -0.00000000000E+00 -0.45593999997E+02  0.45594000000E+02  0.51100000000E-03 0. -1.
    9900012    2    1    2    0    0 -0.14194446234E+02  0.35301298571E+02  0.20879648815E+02  0.47787265912E+02  0.19999976601E+02 0.  0.
         12    1    1    2    0    0  0.14194446234E+02 -0.35301298571E+02 -0.20879648815E+02  0.43400734088E+02  0.00000000000E+00 0. -1.
         11    1    3    3    0    0 -0.16161758571E+01 -0.14832674545E+01 -0.15276667966E+01  0.26731765459E+01  0.51100000000E-03 0.  1.
        -11    1    3    3    0    0 -0.81675943946E+01  0.23403779936E+02  0.11657487125E+02  0.27392398943E+02  0.51100000000E-03 0. -1.
        -12    1    3    3    0    0 -0.44106759825E+01  0.13380786089E+02  0.10749828487E+02  0.17721690424E+02  0.00000000000E+00 0.  1.
</event>
<event>
 7    1  0.2706925E-010  0.4778727E+02  0.7816164E-02  0.1312668E+00
        -11   -1    0    0    0    0  0.00000000000E+00  0.00000000000E+00  0.45593999997E+02  0.45594000000E+02  0.51100000000E-03 0.  1.
         11   -1    0    0    0    0 -0.00000000000E+00 -0.00000000000E+00 -0.45593999997E+02  0.45594000000E+02  0.51100000000E-03 0. -1.
    9900012    2    1    2    0    0 -0.25887175825E+02 -0.15991457450E+02  0.30947544543E+02  0.47787273085E+02  0.20000009302E+02 0.  0.
         12    1    1    2    0    0  0.25887175825E+02  0.15991457450E+02 -0.30947544543E+02  0.43400726915E+02  0.00000000000E+00 0. -1.
         11    1    3    3    0    0 -0.15450567439E+02  0.14935524275E+00  0.16065058064E+02  0.22289648539E+02  0.51100000000E-03 0. -1.
        -11    1    3    3    0    0 -0.10209699165E+02 -0.11377404564E+02  0.13829306527E+02  0.20613903341E+02  0.51100000000E-03 0.  1.
         12    1    3    3    0    0 -0.22690922057E+00 -0.47634081280E+01  0.10531799526E+01  0.48837212043E+01  0.00000000000E+00 0. -1.
</event>
<event>
 7    1  0.2706925E-010  0.4778728E+02  0.7816164E-02  0.1312668E+00
        -11   -1    0    0    0    0  0.00000000000E+00  0.00000000000E+00  0.45593999997E+02  0.45594000000E+02  0.51100000000E-03 0.  1.
         11   -1    0    0    0    0 -0.00000000000E+00 -0.00000000000E+00 -0.45593999997E+02  0.45594000000E+02  0.51100000000E-03 0. -1.
    9900012    2    1    2    0    0  0.13666497358E+02 -0.29941345382E+02  0.28290729432E+02  0.47787277827E+02  0.20000030923E+02 0.  0.
         12    1    1    2    0    0 -0.13666497358E+02  0.29941345382E+02 -0.28290729432E+02  0.43400722173E+02  0.00000000000E+00 0. -1.
         11    1    3    3    0    0  0.61100699905E+01 -0.10512936161E+02  0.21226184240E+01  0.12343431097E+02  0.51100000000E-03 0. -1.
        -11    1    3    3    0    0  0.79147059331E+00 -0.16416337710E+02  0.19225493299E+02  0.25293124804E+02  0.51100000000E-03 0.  1.
         12    1    3    3    0    0  0.67649567747E+01 -0.30120715117E+01  0.69426177099E+01  0.10150721926E+02  0.00000000000E+00 0. -1.
</event>
<event>
 7    1  0.2706925E-010  0.4778727E+02  0.7816164E-02  0.1312668E+00
        -11   -1    0    0    0    0  0.00000000000E+00  0.00000000000E+00  0.45593999997E+02  0.45594000000E+02  0.51100000000E-03 0.  1.
         11   -1    0    0    0    0 -0.00000000000E+00 -0.00000000000E+00 -0.45593999997E+02  0.45594000000E+02  0.51100000000E-03 0. -1.
    9900012    2    1    2    0    0  0.14479865527E+02 -0.27526823270E+02  0.30269306912E+02  0.47787269062E+02  0.19999990960E+02 0.  0.
         12    1    1    2    0    0 -0.14479865527E+02  0.27526823270E+02 -0.30269306912E+02  0.43400730938E+02  0.00000000000E+00 0. -1.
         11    1    3    3    0    0  0.13090214132E+01 -0.26757903019E+01 -0.88027009668E+00  0.31061658848E+01  0.51100000000E-03 0. -1.
        -11    1    3    3    0    0  0.12339919297E+02 -0.21445419664E+02  0.16793427019E+02  0.29903157427E+02  0.51100000000E-03 0.  1.
        -12    1    3    3    0    0  0.83092481649E+00 -0.34056133042E+01  0.14356149990E+02  0.14777945749E+02  0.00000000000E+00 0.  1.
</event>
<event>
 7    1  0.2706925E-010  0.4778727E+02  0.7816164E-02  0.1312668E+00
        -11   -1    0    0    0    0  0.00000000000E+00  0.00000000000E+00  0.45593999997E+02  0.45594000000E+02  0.51100000000E-03 0.  1.
         11   -1    0    0    0    0 -0.00000000000E+00 -0.00000000000E+00 -0.45593999997E+02  0.45594000000E+02  0.51100000000E-03 0. -1.
    9900012    2    1    2    0    0  0.27801609776E+02  0.18823485540E+02  0.27502187332E+02  0.47787269337E+02  0.19999992216E+02 0.  0.
         12    1    1    2    0    0 -0.27801609776E+02 -0.18823485540E+02 -0.27502187332E+02  0.43400730663E+02  0.00000000000E+00 0. -1.
         11    1    3    3    0    0  0.97825915666E+01  0.76464426614E+01  0.17631829954E+02  0.21564985762E+02  0.51100000000E-03 0. -1.
        -11    1    3    3    0    0  0.17810846930E+02  0.12746621086E+02  0.70871258422E+01  0.23020207871E+02  0.51100000000E-03 0.  1.
        -12    1    3    3    0    0  0.20817127929E+00 -0.15695782072E+01  0.27832315362E+01  0.32020757040E+01  0.00000000000E+00 0.  1.
</event>
<event>
 7    1  0.2706925E-010  0.4778726E+02  0.7816164E-02  0.1312668E+00
        -11   -1    0    0    0    0  0.00000000000E+00  0.00000000000E+00  0.45593999997E+02  0.45594000000E+02  0.51100000000E-03 0. -1.
         11   -1    0    0    0    0 -0.00000000000E+00 -0.00000000000E+00 -0.45593999997E+02  0.45594000000E+02  0.51100000000E-03 0.  1.
    9900012    2    1    2    0    0  0.32385730376E+02  0.28703382380E+02  0.33021799305E+01  0.47787261707E+02  0.19999957429E+02 0.  0.
         12    1    1    2    0    0 -0.32385730376E+02 -0.28703382380E+02 -0.33021799305E+01  0.43400738293E+02  0.00000000000E+00 0. -1.
         11    1    3    3    0    0  0.23595864962E+02  0.91666551836E+01  0.23523768066E+01  0.25422944115E+02  0.51100000000E-03 0. -1.
        -11    1    3    3    0    0  0.78844569440E+01  0.18637393259E+02  0.24618430965E+01  0.20385724429E+02  0.51100000000E-03 0.  1.
         12    1    3    3    0    0  0.90540846924E+00  0.89933393787E+00 -0.15120399726E+01  0.19785931635E+01  0.00000000000E+00 0. -1.
</event>
<event>
 7    1  0.2706925E-010  0.4778727E+02  0.7816164E-02  0.1312668E+00
        -11   -1    0    0    0    0  0.00000000000E+00  0.00000000000E+00  0.45593999997E+02  0.45594000000E+02  0.51100000000E-03 0.  1.
         11   -1    0    0    0    0 -0.00000000000E+00 -0.00000000000E+00 -0.45593999997E+02  0.45594000000E+02  0.51100000000E-03 0. -1.
    9900012    2    1    2    0    0  0.21683131624E+02 -0.60143827239E+01  0.37111885087E+02  0.47787274069E+02  0.20000013792E+02 0.  0.
         12    1    1    2    0    0 -0.21683131624E+02  0.60143827239E+01 -0.37111885087E+02  0.43400725931E+02  0.00000000000E+00 0. -1.
         11    1    3    3    0    0  0.31589155746E+01  0.19548771012E+01  0.18609059959E+02  0.18976232632E+02  0.51100000000E-03 0. -1.
        -11    1    3    3    0    0 -0.22765042731E+00 -0.23115090949E+01  0.32050300361E+01  0.39581708914E+01  0.51100000000E-03 0.  1.
         12    1    3    3    0    0  0.18751866477E+02 -0.56577507302E+01  0.15297795092E+02  0.24852870546E+02  0.00000000000E+00 0. -1.
</event>
<event>
 7    1  0.2706925E-010  0.4778727E+02  0.7816164E-02  0.1312668E+00
        -11   -1    0    0    0    0  0.00000000000E+00  0.00000000000E+00  0.45593999997E+02  0.45594000000E+02  0.51100000000E-03 0.  1.
         11   -1    0    0    0    0 -0.00000000000E+00 -0.00000000000E+00 -0.45593999997E+02  0.45594000000E+02  0.51100000000E-03 0. -1.
    9900012    2    1    2    0    0 -0.24485002256E+02 -0.35819426613E+02 -0.10375916658E+01  0.47787271264E+02  0.20000001002E+02 0.  0.
         12    1    1    2    0    0  0.24485002256E+02  0.35819426613E+02  0.10375916658E+01  0.43400728736E+02  0.00000000000E+00 0. -1.
         11    1    3    3    0    0 -0.92438739791E+01 -0.31598147804E+01 -0.32767407611E+01  0.10303915075E+02  0.51100000000E-03 0. -1.
        -11    1    3    3    0    0 -0.16329976664E+02 -0.29740298844E+02  0.53686949241E+00  0.33932900588E+02  0.51100000000E-03 0.  1.
        -12    1    3    3    0    0  0.10888483873E+01 -0.29193129878E+01  0.17022796029E+01  0.35504556015E+01  0.00000000000E+00 0.  1.
</event>
<event>
 7    1  0.2706925E-010  0.4778727E+02  0.7816164E-02  0.1312668E+00
        -11   -1    0    0    0    0  0.00000000000E+00  0.00000000000E+00  0.45593999997E+02  0.45594000000E+02  0.51100000000E-03 0.  1.
         11   -1    0    0    0    0 -0.00000000000E+00 -0.00000000000E+00 -0.45593999997E+02  0.45594000000E+02  0.51100000000E-03 0. -1.
    9900012    2    1    2    0    0  0.15051812924E+02  0.13832461973E+02  0.38284849059E+02  0.47787265628E+02  0.19999975306E+02 0.  0.
         12    1    1    2    0    0 -0.15051812924E+02 -0.13832461973E+02 -0.38284849059E+02  0.43400734372E+02  0.00000000000E+00 0. -1.
         11    1    3    3    0    0  0.16016097302E+02  0.42870821815E+01  0.25791027434E+02  0.30660586146E+02  0.51100000000E-03 0. -1.
        -11    1    3    3    0    0  0.20255152504E+01  0.81604235300E+01  0.86314348033E+01  0.12049767269E+02  0.51100000000E-03 0.  1.
         12    1    3    3    0    0 -0.29897996286E+01  0.13849562618E+01  0.38623868211E+01  0.50769122133E+01  0.00000000000E+00 0. -1.
</event>
<event>
 7    1  0.2706925E-010  0.4778727E+02  0.7816164E-02  0.1312668E+00
        -11   -1    0    0    0    0  0.00000000000E+00  0.00000000000E+00  0.45593999997E+02  0.45594000000E+02  0.51100000000E-03 0.  1.
         11   -1    0    0    0    0 -0.00000000000E+00 -0.00000000000E+00 -0.45593999997E+02  0.45594000000E+02  0.51100000000E-03 0. -1.
    9900012    2    1    2    0    0  0.18968533726E+02 -0.16688258942E+02  0.35289096128E+02  0.47787267705E+02  0.19999984772E+02 0.  0.
         12    1    1    2    0    0 -0.18968533726E+02  0.16688258942E+02 -0.35289096128E+02  0.43400732295E+02  0.00000000000E+00 0. -1.
         11    1    3    3    0    0  0.14795490656E+02 -0.95272977138E+00  0.11292816260E+02  0.18637111823E+02  0.51100000000E-03 0. -1.
        -11    1    3    3    0    0  0.26776729377E+01 -0.87795419183E+01  0.10934879625E+02  0.14276620095E+02  0.51100000000E-03 0.  1.
         12    1    3    3    0    0  0.14953701324E+01 -0.69559872524E+01  0.13061400243E+02  0.14873535786E+02  0.00000000000E+00 0. -1.
</event>
<event>
 7    1  0.2706925E-010  0.4778727E+02  0.7816164E-02  0.1312668E+00
        -11   -1    0    0    0    0  0.00000000000E+00  0.00000000000E+00  0.45593999997E+02  0.45594000000E+02  0.51100000000E-03 0.  1.
         11   -1    0    0    0    0 -0.00000000000E+00 -0.00000000000E+00 -0.45593999997E+02  0.45594000000E+02  0.51100000000E-03 0. -1.
    9900012    2    1    2    0    0 -0.10481599435E+02 -0.20022508558E+02  0.37052106867E+02  0.47787269603E+02  0.19999993429E+02 0.  0.
         12    1    1    2    0    0  0.10481599435E+02  0.20022508558E+02 -0.37052106867E+02  0.43400730397E+02  0.00000000000E+00 0. -1.
         11    1    3    3    0    0 -0.16719967389E+01  0.77946869927E+00  0.16156806893E+02  0.16261781999E+02  0.51100000000E-03 0. -1.
        -11    1    3    3    0    0 -0.76653250482E+01 -0.15891472247E+02  0.19492948234E+02  0.26292035475E+02  0.51100000000E-03 0.  1.
         12    1    3    3    0    0 -0.11442776476E+01 -0.49105050101E+01  0.14023517399E+01  0.52334521295E+01  0.00000000000E+00 0. -1.
</event>
<event>
 7    1  0.2706925E-010  0.4778726E+02  0.7816164E-02  0.1312668E+00
        -11   -1    0    0    0    0  0.00000000000E+00  0.00000000000E+00  0.45593999997E+02  0.45594000000E+02  0.51100000000E-03 0. -1.
         11   -1    0    0    0    0 -0.00000000000E+00 -0.00000000000E+00 -0.45593999997E+02  0.45594000000E+02  0.51100000000E-03 0.  1.
    9900012    2    1    2    0    0 -0.56456488851E+01  0.28479343248E+01 -0.42937626832E+02  0.47787264071E+02  0.19999968203E+02 0.  0.
         12    1    1    2    0    0  0.56456488851E+01 -0.28479343248E+01  0.42937626832E+02  0.43400735929E+02  0.00000000000E+00 0. -1.
         11    1    3    3    0    0 -0.41207699057E+01 -0.15383538192E+01 -0.31020439337E+01  0.53823743753E+01  0.51100000000E-03 0. -1.
        -11    1    3    3    0    0 -0.47357570442E+01  0.19679023918E+01 -0.37302975801E+02  0.37653844936E+02  0.51100000000E-03 0.  1.
        -12    1    3    3    0    0  0.32108780648E+01  0.24183857522E+01 -0.25326070975E+01  0.47510447592E+01  0.00000000000E+00 0.  1.
</event>
<event>
 7    1  0.2706925E-010  0.4778727E+02  0.7816164E-02  0.1312668E+00
        -11   -1    0    0    0    0  0.00000000000E+00  0.00000000000E+00  0.45593999997E+02  0.45594000000E+02  0.51100000000E-03 0. -1.
         11   -1    0    0    0    0 -0.00000000000E+00 -0.00000000000E+00 -0.45593999997E+02  0.45594000000E+02  0.51100000000E-03 0.  1.
    9900012    2    1    2    0    0 -0.19635544014E+02 -0.37043765532E+02 -0.11217315699E+02  0.47787270456E+02  0.19999997315E+02 0.  0.
         12    1    1    2    0    0  0.19635544014E+02  0.37043765532E+02  0.11217315699E+02  0.43400729544E+02  0.00000000000E+00 0. -1.
         11    1    3    3    0    0 -0.15604740565E+02 -0.17132580118E+02 -0.76507561288E+00  0.23186603256E+02  0.51100000000E-03 0. -1.
        -11    1    3    3    0    0 -0.59648748801E+01 -0.17708167066E+02 -0.10903875777E+02  0.21634542297E+02  0.51100000000E-03 0.  1.
         12    1    3    3    0    0  0.19340714312E+01 -0.22030183483E+01  0.45163569047E+00  0.29661249031E+01  0.00000000000E+00 0. -1.
</event>
<event>
 7    1  0.2706925E-010  0.4778727E+02  0.7816164E-02  0.1312668E+00
        -11   -1    0    0    0    0  0.00000000000E+00  0.00000000000E+00  0.45593999997E+02  0.45594000000E+02  0.51100000000E-03 0.  1.
         11   -1    0    0    0    0 -0.00000000000E+00 -0.00000000000E+00 -0.45593999997E+02  0.45594000000E+02  0.51100000000E-03 0. -1.
    9900012    2    1    2    0    0  0.26119148642E+02 -0.23968260264E+02  0.25038686907E+02  0.47787271113E+02  0.20000000314E+02 0.  0.
         12    1    1    2    0    0 -0.26119148642E+02  0.23968260264E+02 -0.25038686907E+02  0.43400728887E+02  0.00000000000E+00 0. -1.
         11    1    3    3    0    0  0.25721896136E+00  0.17554758331E+01  0.37920426583E+01  0.41865791260E+01  0.51100000000E-03 0. -1.
        -11    1    3    3    0    0  0.97537874332E+01 -0.17361895312E+02  0.10608351239E+02  0.22563441546E+02  0.51100000000E-03 0.  1.
        -12    1    3    3    0    0  0.16108142248E+02 -0.83618407846E+01  0.10638293010E+02  0.21037250442E+02  0.00000000000E+00 0.  1.
</event>
<event>
 7    1  0.2706925E-010  0.4778728E+02  0.7816164E-02  0.1312668E+00
        -11   -1    0    0    0    0  0.00000000000E+00  0.00000000000E+00  0.45593999997E+02  0.45594000000E+02  0.51100000000E-03 0.  1.
         11   -1    0    0    0    0 -0.00000000000E+00 -0.00000000000E+00 -0.45593999997E+02  0.45594000000E+02  0.51100000000E-03 0. -1.
    9900012    2    1    2    0    0  0.36089208399E+02 -0.71263598093E+01 -0.23030565126E+02  0.47787275385E+02  0.20000019792E+02 0.  0.
         12    1    1    2    0    0 -0.36089208399E+02  0.71263598093E+01  0.23030565126E+02  0.43400724615E+02  0.00000000000E+00 0. -1.
         11    1    3    3    0    0  0.18855635606E+02  0.11849510026E+01 -0.13218698431E+02  0.23058037459E+02  0.51100000000E-03 0. -1.
        -11    1    3    3    0    0  0.48424820340E+01 -0.87471733352E+01 -0.63946165059E+01  0.11868184112E+02  0.51100000000E-03 0.  1.
         12    1    3    3    0    0  0.12391090759E+02  0.43586252325E+00 -0.34172501890E+01  0.12861053814E+02  0.00000000000E+00 0. -1.
</event>
<event>
 7    1  0.2706925E-010  0.4778727E+02  0.7816164E-02  0.1312668E+00
        -11   -1    0    0    0    0  0.00000000000E+00  0.00000000000E+00  0.45593999997E+02  0.45594000000E+02  0.51100000000E-03 0.  1.
         11   -1    0    0    0    0 -0.00000000000E+00 -0.00000000000E+00 -0.45593999997E+02  0.45594000000E+02  0.51100000000E-03 0. -1.
    9900012    2    1    2    0    0  0.43326070795E+02 -0.11278193402E+01 -0.22810774777E+01  0.47787266118E+02  0.19999977540E+02 0.  0.
         12    1    1    2    0    0 -0.43326070795E+02  0.11278193402E+01  0.22810774777E+01  0.43400733882E+02  0.00000000000E+00 0. -1.
         11    1    3    3    0    0  0.10665284056E+02  0.10296674835E+01 -0.76421748749E+01  0.13160977783E+02  0.51100000000E-03 0. -1.
        -11    1    3    3    0    0  0.92844428861E+01  0.16253434724E+01  0.55632789063E+01  0.10944984859E+02  0.51100000000E-03 0.  1.
        -12    1    3    3    0    0  0.23376343853E+02 -0.37828302961E+01 -0.20218150912E+00  0.23681303477E+02  0.00000000000E+00 0.  1.
</event>
<event>
 7    1  0.2706925E-010  0.4778727E+02  0.7816164E-02  0.1312668E+00
        -11   -1    0    0    0    0  0.00000000000E+00  0.00000000000E+00  0.45593999997E+02  0.45594000000E+02  0.51100000000E-03 0.  1.
         11   -1    0    0    0    0 -0.00000000000E+00 -0.00000000000E+00 -0.45593999997E+02  0.45594000000E+02  0.51100000000E-03 0. -1.
    9900012    2    1    2    0    0  0.15837155588E+02  0.21994956913E+02  0.33897340054E+02  0.47787270866E+02  0.19999999184E+02 0.  0.
         12    1    1    2    0    0 -0.15837155588E+02 -0.21994956913E+02 -0.33897340054E+02  0.43400729134E+02  0.00000000000E+00 0. -1.
         11    1    3    3    0    0  0.12376972986E+02  0.71190035013E+01  0.19044731450E+02  0.23802761760E+02  0.51100000000E-03 0. -1.
        -11    1    3    3    0    0  0.94069060880E+00  0.14042741720E+02  0.15806730406E+02  0.21164503779E+02  0.51100000000E-03 0.  1.
         12    1    3    3    0    0  0.25194919932E+01  0.83321169144E+00 -0.95412180242E+00  0.28200053263E+01  0.00000000000E+00 0. -1.
</event>
<event>
 7    1  0.2706925E-010  0.4778727E+02  0.7816164E-02  0.1312668E+00
        -11   -1    0    0    0    0  0.00000000000E+00  0.00000000000E+00  0.45593999997E+02  0.45594000000E+02  0.51100000000E-03 0.  1.
         11   -1    0    0    0    0 -0.00000000000E+00 -0.00000000000E+00 -0.45593999997E+02  0.45594000000E+02  0.51100000000E-03 0. -1.
    9900012    2    1    2    0    0  0.36193962655E+02  0.17530101626E+02 -0.16319181226E+02  0.47787273375E+02  0.20000010628E+02 0.  0.
         12    1    1    2    0    0 -0.36193962655E+02 -0.17530101626E+02  0.16319181226E+02  0.43400726625E+02  0.00000000000E+00 0. -1.
         11    1    3    3    0    0 -0.14205793333E+00 -0.23265155307E+01 -0.31760485984E+01  0.39395608805E+01  0.51100000000E-03 0. -1.
        -11    1    3    3    0    0  0.21109535767E+02  0.81632895259E+01 -0.71706491156E+01  0.23741735514E+02  0.51100000000E-03 0.  1.
         12    1    3    3    0    0  0.15226484821E+02  0.11693327630E+02 -0.59724835122E+01  0.20105976981E+02  0.00000000000E+00 0. -1.
</event>
<event>
 7    1  0.2706925E-010  0.4778727E+02  0.7816164E-02  0.1312668E+00
        -11   -1    0    0    0    0  0.00000000000E+00  0.00000000000E+00  0.45593999997E+02  0.45594000000E+02  0.51100000000E-03 0.  1.
         11   -1    0    0    0    0 -0.00000000000E+00 -0.00000000000E+00 -0.45593999997E+02  0.45594000000E+02  0.51100000000E-03 0. -1.
    9900012    2    1    2    0    0  0.10055879644E+02  0.16467397201E+02  0.38875795806E+02  0.47787269757E+02  0.19999994132E+02 0.  0.
         12    1    1    2    0    0 -0.10055879644E+02 -0.16467397201E+02 -0.38875795806E+02  0.43400730243E+02  0.00000000000E+00 0. -1.
         11    1    3    3    0    0  0.40570535630E+01  0.10612722147E+02  0.58777912258E+01  0.12792106352E+02  0.51100000000E-03 0. -1.
        -11    1    3    3    0    0 -0.12177180733E+00  0.54434396278E+01  0.13565695641E+02  0.14617590835E+02  0.51100000000E-03 0.  1.
         12    1    3    3    0    0  0.61205978883E+01  0.41123542675E+00  0.19432308940E+02  0.20377572570E+02  0.00000000000E+00 0. -1.
</event>
<event>
 7    1  0.2706925E-010  0.4778727E+02  0.7816164E-02  0.1312668E+00
        -11   -1    0    0    0    0  0.00000000000E+00  0.00000000000E+00  0.45593999997E+02  0.45594000000E+02  0.51100000000E-03 0. -1.
         11   -1    0    0    0    0 -0.00000000000E+00 -0.00000000000E+00 -0.45593999997E+02  0.45594000000E+02  0.51100000000E-03 0.  1.
    9900012    2    1    2    0    0  0.18372098621E+02 -0.37669284193E+02 -0.11274507852E+02  0.47787268363E+02  0.19999987775E+02 0.  0.
         12    1    1    2    0    0 -0.18372098621E+02  0.37669284193E+02  0.11274507852E+02  0.43400731637E+02  0.00000000000E+00 0. -1.
         11    1    3    3    0    0  0.17565911599E+02 -0.24502861774E+02 -0.47934872152E+01  0.30527512269E+02  0.51100000000E-03 0. -1.
        -11    1    3    3    0    0  0.16734188679E+01 -0.13955352765E+02 -0.72918972790E+01  0.15834265619E+02  0.51100000000E-03 0.  1.
         12    1    3    3    0    0 -0.86723184645E+00  0.78893034568E+00  0.81087664205E+00  0.14254904750E+01  0.00000000000E+00 0. -1.
</event>
<event>
 7    1  0.2706925E-010  0.4778727E+02  0.7816164E-02  0.1312668E+00
        -11   -1    0    0    0    0  0.00000000000E+00  0.00000000000E+00  0.45593999997E+02  0.45594000000E+02  0.51100000000E-03 0.  1.
         11   -1    0    0    0    0 -0.00000000000E+00 -0.00000000000E+00 -0.45593999997E+02  0.45594000000E+02  0.51100000000E-03 0. -1.
    9900012    2    1    2    0    0  0.12609992453E+02  0.62114061697E+00  0.41523796159E+02  0.47787269904E+02  0.19999994802E+02 0.  0.
         12    1    1    2    0    0 -0.12609992453E+02 -0.62114061697E+00 -0.41523796159E+02  0.43400730096E+02  0.00000000000E+00 0. -1.
         11    1    3    3    0    0  0.16670593855E+02  0.16822465577E+01  0.22280404421E+02  0.27877501222E+02  0.51100000000E-03 0. -1.
        -11    1    3    3    0    0 -0.31980504883E+01 -0.16154179166E+01  0.10250780912E+02  0.10858895502E+02  0.51100000000E-03 0.  1.
         12    1    3    3    0    0 -0.86255091292E+00  0.55431197584E+00  0.89926108265E+01  0.90508731800E+01  0.00000000000E+00 0. -1.
</event>
<event>
 7    1  0.2706925E-010  0.4778727E+02  0.7816164E-02  0.1312668E+00
        -11   -1    0    0    0    0  0.00000000000E+00  0.00000000000E+00  0.45593999997E+02  0.45594000000E+02  0.51100000000E-03 0.  1.
         11   -1    0    0    0    0 -0.00000000000E+00 -0.00000000000E+00 -0.45593999997E+02  0.45594000000E+02  0.51100000000E-03 0. -1.
    9900012    2    1    2    0    0 -0.17216185302E+02 -0.11405238125E+02  0.38172592620E+02  0.47787270509E+02  0.19999997557E+02 0.  0.
         12    1    1    2    0    0  0.17216185302E+02  0.11405238125E+02 -0.38172592620E+02  0.43400729491E+02  0.00000000000E+00 0. -1.
         11    1    3    3    0    0  0.18482816873E+01 -0.14599167389E+01  0.23815894449E+01  0.33495478240E+01  0.51100000000E-03 0. -1.
        -11    1    3    3    0    0 -0.99995654159E+01 -0.66365792939E+01  0.66074890089E+01  0.13700160747E+02  0.51100000000E-03 0.  1.
        -12    1    3    3    0    0 -0.90649015730E+01 -0.33087420925E+01  0.29183514166E+02  0.30737561938E+02  0.00000000000E+00 0.  1.
</event>
<event>
 7    1  0.2706925E-010  0.4778727E+02  0.7816164E-02  0.1312668E+00
        -11   -1    0    0    0    0  0.00000000000E+00  0.00000000000E+00  0.45593999997E+02  0.45594000000E+02  0.51100000000E-03 0.  1.
         11   -1    0    0    0    0 -0.00000000000E+00 -0.00000000000E+00 -0.45593999997E+02  0.45594000000E+02  0.51100000000E-03 0. -1.
    9900012    2    1    2    0    0 -0.11648304750E+02  0.68794601326E+01  0.41238492419E+02  0.47787271524E+02  0.20000002186E+02 0.  0.
         12    1    1    2    0    0  0.11648304750E+02 -0.68794601326E+01 -0.41238492419E+02  0.43400728476E+02  0.00000000000E+00 0. -1.
         11    1    3    3    0    0  0.26785908847E+01  0.25486395796E+01  0.25463722634E+02  0.25730751708E+02  0.51100000000E-03 0. -1.
        -11    1    3    3    0    0 -0.95439870750E+01  0.29414639354E+01  0.78775541766E+01  0.12719896204E+02  0.51100000000E-03 0.  1.
        -12    1    3    3    0    0 -0.47829085598E+01  0.13893566176E+01  0.78972156084E+01  0.93366236118E+01  0.00000000000E+00 0.  1.
</event>
<event>
 7    1 -0.2706925E-010  0.4778725E+02  0.7816164E-02  0.1312668E+00
        -11   -1    0    0    0    0  0.00000000000E+00  0.00000000000E+00  0.45593999997E+02  0.45594000000E+02  0.51100000000E-03 0.  1.
         11   -1    0    0    0    0 -0.00000000000E+00 -0.00000000000E+00 -0.45593999997E+02  0.45594000000E+02  0.51100000000E-03 0. -1.
    9900012    2    1    2    0    0 -0.11431536244E+02  0.18439984795E+02  0.37588718562E+02  0.47787253194E+02  0.19999918614E+02 0.  0.
         12    1    1    2    0    0  0.11431536244E+02 -0.18439984795E+02 -0.37588718562E+02  0.43400746806E+02  0.00000000000E+00 0. -1.
         11    1    3    3    0    0 -0.19793086449E+01 -0.34218900269E+00 -0.51011233321E-01  0.20093179023E+01  0.51100000000E-03 0. -1.
        -11    1    3    3    0    0 -0.64119481646E+01  0.17276332094E+02  0.17699282935E+02  0.25550916745E+02  0.51100000000E-03 0.  1.
        -12    1    3    3    0    0 -0.30402794341E+01  0.15058417046E+01  0.19940446861E+02  0.20227018547E+02  0.00000000000E+00 0.  1.
</event>
<event>
 7    1  0.2706925E-010  0.4778727E+02  0.7816164E-02  0.1312668E+00
        -11   -1    0    0    0    0  0.00000000000E+00  0.00000000000E+00  0.45593999997E+02  0.45594000000E+02  0.51100000000E-03 0. -1.
         11   -1    0    0    0    0 -0.00000000000E+00 -0.00000000000E+00 -0.45593999997E+02  0.45594000000E+02  0.51100000000E-03 0.  1.
    9900012    2    1    2    0    0  0.12255793104E+02 -0.15085286082E+01 -0.41607009327E+02  0.47787270187E+02  0.19999996088E+02 0.  0.
         12    1    1    2    0    0 -0.12255793104E+02  0.15085286082E+01  0.41607009327E+02  0.43400729813E+02  0.00000000000E+00 0. -1.
         11    1    3    3    0    0  0.13340830278E+02 -0.27470360572E+01 -0.24727703555E+02  0.28230892351E+02  0.51100000000E-03 0. -1.
        -11    1    3    3    0    0  0.32020296308E+01 -0.15983828087E+01 -0.27271223095E+01  0.44994463783E+01  0.51100000000E-03 0.  1.
         12    1    3    3    0    0 -0.42870668045E+01  0.28368902578E+01 -0.14152183463E+02  0.15056931457E+02  0.00000000000E+00 0. -1.
</event>
<event>
 7    1  0.2706925E-010  0.4778727E+02  0.7816164E-02  0.1312668E+00
        -11   -1    0    0    0    0  0.00000000000E+00  0.00000000000E+00  0.45593999997E+02  0.45594000000E+02  0.51100000000E-03 0.  1.
         11   -1    0    0    0    0 -0.00000000000E+00 -0.00000000000E+00 -0.45593999997E+02  0.45594000000E+02  0.51100000000E-03 0. -1.
    9900012    2    1    2    0    0 -0.38545333352E+01  0.42908533901E+02  0.52558208691E+01  0.47787270032E+02  0.19999995382E+02 0.  0.
         12    1    1    2    0    0  0.38545333352E+01 -0.42908533901E+02 -0.52558208691E+01  0.43400729968E+02  0.00000000000E+00 0. -1.
         11    1    3    3    0    0  0.41244426963E+00  0.49398118531E+01  0.28301379588E+01  0.57080235237E+01  0.51100000000E-03 0. -1.
        -11    1    3    3    0    0  0.38523009820E+01  0.48495869676E+01  0.48889603372E+01  0.78905418098E+01  0.51100000000E-03 0.  1.
        -12    1    3    3    0    0 -0.81192785868E+01  0.33119135080E+02 -0.24632774270E+01  0.34188704698E+02  0.00000000000E+00 0.  1.
</event>
<event>
 7    1  0.2706925E-010  0.4778727E+02  0.7816164E-02  0.1312668E+00
        -11   -1    0    0    0    0  0.00000000000E+00  0.00000000000E+00  0.45593999997E+02  0.45594000000E+02  0.51100000000E-03 0.  1.
         11   -1    0    0    0    0 -0.00000000000E+00 -0.00000000000E+00 -0.45593999997E+02  0.45594000000E+02  0.51100000000E-03 0. -1.
    9900012    2    1    2    0    0  0.37268105968E+02  0.72468555598E+01  0.21028420888E+02  0.47787272783E+02  0.20000007926E+02 0.  0.
         12    1    1    2    0    0 -0.37268105968E+02 -0.72468555598E+01 -0.21028420888E+02  0.43400727217E+02  0.00000000000E+00 0. -1.
         11    1    3    3    0    0  0.38290297689E+01  0.34738361238E+01  0.29895137407E+01  0.59721184728E+01  0.51100000000E-03 0. -1.
        -11    1    3    3    0    0  0.61994904581E+01  0.75247390451E+01  0.19032814694E+01  0.99336730493E+01  0.51100000000E-03 0.  1.
        -12    1    3    3    0    0  0.27239585741E+02 -0.37517196092E+01  0.16135625678E+02  0.31881481261E+02  0.00000000000E+00 0.  1.
</event>
<event>
 7    1  0.2706925E-010  0.4778726E+02  0.7816164E-02  0.1312668E+00
        -11   -1    0    0    0    0  0.00000000000E+00  0.00000000000E+00  0.45593999997E+02  0.45594000000E+02  0.51100000000E-03 0.  1.
         11   -1    0    0    0    0 -0.00000000000E+00 -0.00000000000E+00 -0.45593999997E+02  0.45594000000E+02  0.51100000000E-03 0. -1.
    9900012    2    1    2    0    0 -0.17825380020E+02 -0.40753462860E+01  0.39360782771E+02  0.47787264515E+02  0.19999970232E+02 0.  0.
         12    1    1    2    0    0  0.17825380020E+02  0.40753462860E+01 -0.39360782771E+02  0.43400735485E+02  0.00000000000E+00 0. -1.
         11    1    3    3    0    0 -0.91824780948E+01  0.27458135442E+01  0.94090604482E+01  0.13430853091E+02  0.51100000000E-03 0.  1.
        -11    1    3    3    0    0  0.32965236036E+01 -0.24134596097E+01  0.79692636893E+01  0.89555021728E+01  0.51100000000E-03 0. -1.
        -12    1    3    3    0    0 -0.11939425529E+02 -0.44077002204E+01  0.21982458634E+02  0.25400909251E+02  0.00000000000E+00 0.  1.
</event>
<event>
 7    1  0.2706925E-010  0.4778727E+02  0.7816164E-02  0.1312668E+00
        -11   -1    0    0    0    0  0.00000000000E+00  0.00000000000E+00  0.45593999997E+02  0.45594000000E+02  0.51100000000E-03 0.  1.
         11   -1    0    0    0    0 -0.00000000000E+00 -0.00000000000E+00 -0.45593999997E+02  0.45594000000E+02  0.51100000000E-03 0. -1.
    9900012    2    1    2    0    0  0.12880889917E+02 -0.25093407439E+02  0.32985257700E+02  0.47787266740E+02  0.19999980375E+02 0.  0.
         12    1    1    2    0    0 -0.12880889917E+02  0.25093407439E+02 -0.32985257700E+02  0.43400733260E+02  0.00000000000E+00 0. -1.
         11    1    3    3    0    0  0.13997283890E+01  0.15114700579E+01  0.10623281467E+02  0.10821177879E+02  0.51100000000E-03 0. -1.
        -11    1    3    3    0    0  0.98913808062E+01 -0.17291064252E+02  0.13990336675E+02  0.24342346595E+02  0.51100000000E-03 0.  1.
         12    1    3    3    0    0  0.15897807215E+01 -0.93138132447E+01  0.83716395582E+01  0.12623742266E+02  0.00000000000E+00 0. -1.
</event>
<event>
 7    1  0.2706925E-010  0.4778727E+02  0.7816164E-02  0.1312668E+00
        -11   -1    0    0    0    0  0.00000000000E+00  0.00000000000E+00  0.45593999997E+02  0.45594000000E+02  0.51100000000E-03 0. -1.
         11   -1    0    0    0    0 -0.00000000000E+00 -0.00000000000E+00 -0.45593999997E+02  0.45594000000E+02  0.51100000000E-03 0.  1.
    9900012    2    1    2    0    0 -0.10921307003E+02  0.37836777895E+02 -0.18240792833E+02  0.47787271535E+02  0.20000002238E+02 0.  0.
         12    1    1    2    0    0  0.10921307003E+02 -0.37836777895E+02  0.18240792833E+02  0.43400728465E+02  0.00000000000E+00 0. -1.
         11    1    3    3    0    0 -0.11884660753E+02  0.21161395034E+02 -0.60056325386E+01  0.25002348359E+02  0.51100000000E-03 0. -1.
        -11    1    3    3    0    0 -0.68535335948E+00  0.82471405207E+00 -0.52960525919E+01  0.54035206868E+01  0.51100000000E-03 0.  1.
         12    1    3    3    0    0  0.16487071095E+01  0.15850668808E+02 -0.69391077021E+01  0.17381402489E+02  0.00000000000E+00 0. -1.
</event>
<event>
 7    1  0.2706925E-010  0.4778726E+02  0.7816164E-02  0.1312668E+00
        -11   -1    0    0    0    0  0.00000000000E+00  0.00000000000E+00  0.45593999997E+02  0.45594000000E+02  0.51100000000E-03 0. -1.
         11   -1    0    0    0    0 -0.00000000000E+00 -0.00000000000E+00 -0.45593999997E+02  0.45594000000E+02  0.51100000000E-03 0.  1.
    9900012    2    1    2    0    0 -0.18776686184E+02  0.38493514391E+02  0.70220539931E+01  0.47787264563E+02  0.19999970448E+02 0.  0.
         12    1    1    2    0    0  0.18776686184E+02 -0.38493514391E+02 -0.70220539931E+01  0.43400735437E+02  0.00000000000E+00 0. -1.
         11    1    3    3    0    0  0.28394506131E+01  0.67503645202E+00 -0.20813484531E+00  0.29259997216E+01  0.51100000000E-03 0. -1.
        -11    1    3    3    0    0 -0.14774528191E+02  0.20432942048E+02  0.70313861761E+01  0.26176940154E+02  0.51100000000E-03 0.  1.
         12    1    3    3    0    0 -0.68416086061E+01  0.17385535891E+02  0.19880266233E+00  0.18684324687E+02  0.00000000000E+00 0. -1.
</event>
<event>
 7    1  0.2706925E-010  0.4778728E+02  0.7816164E-02  0.1312668E+00
        -11   -1    0    0    0    0  0.00000000000E+00  0.00000000000E+00  0.45593999997E+02  0.45594000000E+02  0.51100000000E-03 0.  1.
         11   -1    0    0    0    0 -0.00000000000E+00 -0.00000000000E+00 -0.45593999997E+02  0.45594000000E+02  0.51100000000E-03 0. -1.
    9900012    2    1    2    0    0 -0.10316921686E+02  0.16398350380E+01  0.42124754481E+02  0.47787275673E+02  0.20000021104E+02 0.  0.
         12    1    1    2    0    0  0.10316921686E+02 -0.16398350380E+01 -0.42124754481E+02  0.43400724327E+02  0.00000000000E+00 0. -1.
         11    1    3    3    0    0 -0.48612493279E+01  0.75383164429E+01  0.11130149209E+02  0.14294690675E+02  0.51100000000E-03 0. -1.
        -11    1    3    3    0    0 -0.77900029174E+01 -0.33942452174E+01  0.26585277715E+02  0.27910249685E+02  0.51100000000E-03 0.  1.
         12    1    3    3    0    0  0.23343305589E+01 -0.25042361875E+01  0.44093275570E+01  0.55823353129E+01  0.00000000000E+00 0. -1.
</event>
<event>
 7    1  0.2706925E-010  0.4778727E+02  0.7816164E-02  0.1312668E+00
        -11   -1    0    0    0    0  0.00000000000E+00  0.00000000000E+00  0.45593999997E+02  0.45594000000E+02  0.51100000000E-03 0. -1.
         11   -1    0    0    0    0 -0.00000000000E+00 -0.00000000000E+00 -0.45593999997E+02  0.45594000000E+02  0.51100000000E-03 0.  1.
    9900012    2    1    2    0    0 -0.37885815357E+02 -0.92710406108E+01  0.19035133639E+02  0.47787268302E+02  0.19999987495E+02 0.  0.
         12    1    1    2    0    0  0.37885815357E+02  0.92710406108E+01 -0.19035133639E+02  0.43400731698E+02  0.00000000000E+00 0. -1.
         11    1    3    3    0    0  0.16699293093E+01  0.22345651773E+00  0.95243566011E+00  0.19353890206E+01  0.51100000000E-03 0. -1.
        -11    1    3    3    0    0 -0.28778517851E+02 -0.16879059795E+01  0.12330727784E+02  0.31354409008E+02  0.51100000000E-03 0.  1.
        -12    1    3    3    0    0 -0.10777226815E+02 -0.78065911490E+01  0.57519701953E+01  0.14497470273E+02  0.00000000000E+00 0.  1.
</event>
<event>
 7    1  0.2706925E-010  0.4778729E+02  0.7816164E-02  0.1312668E+00
        -11   -1    0    0    0    0  0.00000000000E+00  0.00000000000E+00  0.45593999997E+02  0.45594000000E+02  0.51100000000E-03 0.  1.
         11   -1    0    0    0    0 -0.00000000000E+00 -0.00000000000E+00 -0.45593999997E+02  0.45594000000E+02  0.51100000000E-03 0. -1.
    9900012    2    1    2    0    0  0.53683616538E+01 -0.14692971582E+02  0.40483565507E+02  0.47787288060E+02  0.20000077579E+02 0.  0.
         12    1    1    2    0    0 -0.53683616538E+01  0.14692971582E+02 -0.40483565507E+02  0.43400711940E+02  0.00000000000E+00 0. -1.
         11    1    3    3    0    0 -0.26813936585E+01 -0.89002100167E+01  0.70705277013E+01  0.11678868632E+02  0.51100000000E-03 0. -1.
        -11    1    3    3    0    0  0.94732389039E+01 -0.45897051877E+01  0.20332917024E+02  0.22896182302E+02  0.51100000000E-03 0.  1.
         12    1    3    3    0    0 -0.14234835917E+01 -0.12030563774E+01  0.13080120782E+02  0.13212237126E+02  0.00000000000E+00 0. -1.
</event>
<event>
 7    1  0.2706925E-010  0.4778727E+02  0.7816164E-02  0.1312668E+00
        -11   -1    0    0    0    0  0.00000000000E+00  0.00000000000E+00  0.45593999997E+02  0.45594000000E+02  0.51100000000E-03 0.  1.
         11   -1    0    0    0    0 -0.00000000000E+00 -0.00000000000E+00 -0.45593999997E+02  0.45594000000E+02  0.51100000000E-03 0. -1.
    9900012    2    1    2    0    0 -0.25761043487E+02 -0.34497918395E+02 -0.54667992666E+01  0.47787266949E+02  0.19999981327E+02 0.  0.
         12    1    1    2    0    0  0.25761043487E+02  0.34497918395E+02  0.54667992666E+01  0.43400733051E+02  0.00000000000E+00 0. -1.
         11    1    3    3    0    0 -0.22660437012E+02 -0.16787578185E+02 -0.75824987276E+01  0.29202953175E+02  0.51100000000E-03 0. -1.
        -11    1    3    3    0    0 -0.31515986253E+01 -0.11125135289E+02  0.29844238574E+01  0.11941858947E+02  0.51100000000E-03 0.  1.
         12    1    3    3    0    0  0.50992150522E-01 -0.65852049212E+01 -0.86872439649E+00  0.66424548272E+01  0.00000000000E+00 0. -1.
</event>
<event>
 7    1  0.2706925E-010  0.4778731E+02  0.7816164E-02  0.1312668E+00
        -11   -1    0    0    0    0  0.00000000000E+00  0.00000000000E+00  0.45593999997E+02  0.45594000000E+02  0.51100000000E-03 0.  1.
         11   -1    0    0    0    0 -0.00000000000E+00 -0.00000000000E+00 -0.45593999997E+02  0.45594000000E+02  0.51100000000E-03 0. -1.
    9900012    2    1    2    0    0 -0.18478294221E+02 -0.86714873699E+01  0.38301144712E+02  0.47787311794E+02  0.20000185792E+02 0.  0.
         12    1    1    2    0    0  0.18478294221E+02  0.86714873699E+01 -0.38301144712E+02  0.43400688206E+02  0.00000000000E+00 0. -1.
         11    1    3    3    0    0  0.40085892393E+01 -0.81742296923E+00  0.26362865583E+01  0.48669266564E+01  0.51100000000E-03 0. -1.
        -11    1    3    3    0    0 -0.14631893531E+02 -0.57389351755E+01  0.24446968562E+02  0.29063412693E+02  0.51100000000E-03 0.  1.
         12    1    3    3    0    0 -0.78549899297E+01 -0.21151292252E+01  0.11217889592E+02  0.13856972445E+02  0.00000000000E+00 0. -1.
</event>
<event>
 7    1  0.2706925E-010  0.4778727E+02  0.7816164E-02  0.1312668E+00
        -11   -1    0    0    0    0  0.00000000000E+00  0.00000000000E+00  0.45593999997E+02  0.45594000000E+02  0.51100000000E-03 0.  1.
         11   -1    0    0    0    0 -0.00000000000E+00 -0.00000000000E+00 -0.45593999997E+02  0.45594000000E+02  0.51100000000E-03 0. -1.
    9900012    2    1    2    0    0 -0.33809497635E+02 -0.11743600650E+02  0.24548504213E+02  0.47787270218E+02  0.19999996230E+02 0.  0.
         12    1    1    2    0    0  0.33809497635E+02  0.11743600650E+02 -0.24548504213E+02  0.43400729782E+02  0.00000000000E+00 0. -1.
         11    1    3    3    0    0 -0.37405469779E+01 -0.81322810500E+01  0.74914268740E+01  0.11672496033E+02  0.51100000000E-03 0. -1.
        -11    1    3    3    0    0 -0.15939010440E+02  0.74878847395E+00  0.41516087697E+01  0.16487831683E+02  0.51100000000E-03 0.  1.
        -12    1    3    3    0    0 -0.14129940217E+02 -0.43601080739E+01  0.12905468569E+02  0.19626942501E+02  0.00000000000E+00 0.  1.
</event>
<event>
 7    1  0.2706925E-010  0.4778727E+02  0.7816164E-02  0.1312668E+00
        -11   -1    0    0    0    0  0.00000000000E+00  0.00000000000E+00  0.45593999997E+02  0.45594000000E+02  0.51100000000E-03 0. -1.
         11   -1    0    0    0    0 -0.00000000000E+00 -0.00000000000E+00 -0.45593999997E+02  0.45594000000E+02  0.51100000000E-03 0.  1.
    9900012    2    1    2    0    0 -0.30024028866E+02 -0.16459416053E+02 -0.26669620396E+02  0.47787270303E+02  0.19999996621E+02 0.  0.
         12    1    1    2    0    0  0.30024028866E+02  0.16459416053E+02  0.26669620396E+02  0.43400729697E+02  0.00000000000E+00 0. -1.
         11    1    3    3    0    0 -0.66345182826E+01 -0.64704895997E+01  0.70543968919E+00  0.92941763442E+01  0.51100000000E-03 0. -1.
        -11    1    3    3    0    0 -0.75875779729E+01  0.10022458754E+01 -0.59723412703E+01  0.97079707869E+01  0.51100000000E-03 0.  1.
         12    1    3    3    0    0 -0.15801932610E+02 -0.10991172329E+02 -0.21402718815E+02  0.28785123172E+02  0.00000000000E+00 0. -1.
</event>
<event>
 7    1  0.2706925E-010  0.4778727E+02  0.7816164E-02  0.1312668E+00
        -11   -1    0    0    0    0  0.00000000000E+00  0.00000000000E+00  0.45593999997E+02  0.45594000000E+02  0.51100000000E-03 0.  1.
         11   -1    0    0    0    0 -0.00000000000E+00 -0.00000000000E+00 -0.45593999997E+02  0.45594000000E+02  0.51100000000E-03 0. -1.
    9900012    2    1    2    0    0 -0.30514961254E+02 -0.28143527201E+02  0.12665016127E+02  0.47787267090E+02  0.19999981968E+02 0.  0.
         12    1    1    2    0    0  0.30514961254E+02  0.28143527201E+02 -0.12665016127E+02  0.43400732910E+02  0.00000000000E+00 0. -1.
         11    1    3    3    0    0 -0.13174228558E+02 -0.10449779966E+02  0.76308446372E+01  0.18465860109E+02  0.51100000000E-03 0.  1.
        -11    1    3    3    0    0  0.21344729335E+01 -0.17293743990E+01 -0.17300760020E+01  0.32465171722E+01  0.51100000000E-03 0. -1.
         12    1    3    3    0    0 -0.19475205630E+02 -0.15964372836E+02  0.67642474923E+01  0.26074889808E+02  0.00000000000E+00 0. -1.
</event>
<event>
 7    1  0.2706925E-010  0.4778727E+02  0.7816164E-02  0.1312668E+00
        -11   -1    0    0    0    0  0.00000000000E+00  0.00000000000E+00  0.45593999997E+02  0.45594000000E+02  0.51100000000E-03 0.  1.
         11   -1    0    0    0    0 -0.00000000000E+00 -0.00000000000E+00 -0.45593999997E+02  0.45594000000E+02  0.51100000000E-03 0. -1.
    9900012    2    1    2    0    0  0.21636700982E+01 -0.33543425028E+02  0.27455058233E+02  0.47787273584E+02  0.20000011577E+02 0.  0.
         12    1    1    2    0    0 -0.21636700982E+01  0.33543425028E+02 -0.27455058233E+02  0.43400726416E+02  0.00000000000E+00 0. -1.
         11    1    3    3    0    0 -0.41378166302E+01 -0.25819825720E+02  0.19478360531E+02  0.32606616751E+02  0.51100000000E-03 0. -1.
        -11    1    3    3    0    0  0.14327953813E+01 -0.54101822118E+01  0.80325057235E+01  0.97900011558E+01  0.51100000000E-03 0.  1.
         12    1    3    3    0    0  0.48686913472E+01 -0.23134170962E+01 -0.55808021727E-01  0.53906556772E+01  0.00000000000E+00 0. -1.
</event>
<event>
 7    1  0.2706925E-010  0.4778727E+02  0.7816164E-02  0.1312668E+00
        -11   -1    0    0    0    0  0.00000000000E+00  0.00000000000E+00  0.45593999997E+02  0.45594000000E+02  0.51100000000E-03 0. -1.
         11   -1    0    0    0    0 -0.00000000000E+00 -0.00000000000E+00 -0.45593999997E+02  0.45594000000E+02  0.51100000000E-03 0.  1.
    9900012    2    1    2    0    0  0.29257111229E+02  0.30704775318E+02 -0.92120224204E+01  0.47787272565E+02  0.20000006934E+02 0.  0.
         12    1    1    2    0    0 -0.29257111229E+02 -0.30704775318E+02  0.92120224204E+01  0.43400727435E+02  0.00000000000E+00 0. -1.
         11    1    3    3    0    0  0.40294908160E+01  0.12735342918E+02 -0.62577830205E+01  0.14750783168E+02  0.51100000000E-03 0. -1.
        -11    1    3    3    0    0  0.26225287395E+02  0.18017070360E+02 -0.24354794794E+01  0.31911002552E+02  0.51100000000E-03 0.  1.
        -12    1    3    3    0    0 -0.99766698200E+00 -0.47637961175E-01 -0.51875992047E+00  0.11254868446E+01  0.00000000000E+00 0.  1.
</event>
<event>
 7    1  0.2706925E-010  0.4778727E+02  0.7816164E-02  0.1312668E+00
        -11   -1    0    0    0    0  0.00000000000E+00  0.00000000000E+00  0.45593999997E+02  0.45594000000E+02  0.51100000000E-03 0.  1.
         11   -1    0    0    0    0 -0.00000000000E+00 -0.00000000000E+00 -0.45593999997E+02  0.45594000000E+02  0.51100000000E-03 0. -1.
    9900012    2    1    2    0    0  0.10604199619E+01 -0.42800385393E+02 -0.71151759971E+01  0.47787271783E+02  0.20000003368E+02 0.  0.
         12    1    1    2    0    0 -0.10604199619E+01  0.42800385393E+02  0.71151759971E+01  0.43400728217E+02  0.00000000000E+00 0. -1.
         11    1    3    3    0    0  0.12501027496E+01 -0.13112921088E+01  0.21105300706E+01  0.27814710711E+01  0.51100000000E-03 0. -1.
        -11    1    3    3    0    0  0.20524951286E+01 -0.41691421144E+02 -0.92493457919E+01  0.42754388442E+02  0.51100000000E-03 0.  1.
        -12    1    3    3    0    0 -0.22421779163E+01  0.20232785976E+00  0.23639724219E-01  0.22514122696E+01  0.00000000000E+00 0.  1.
</event>
<event>
 7    1  0.2706925E-010  0.4778727E+02  0.7816164E-02  0.1312668E+00
        -11   -1    0    0    0    0  0.00000000000E+00  0.00000000000E+00  0.45593999997E+02  0.45594000000E+02  0.51100000000E-03 0.  1.
         11   -1    0    0    0    0 -0.00000000000E+00 -0.00000000000E+00 -0.45593999997E+02  0.45594000000E+02  0.51100000000E-03 0. -1.
    9900012    2    1    2    0    0  0.38830304806E+02  0.18989604413E+02  0.39019937821E+01  0.47787271866E+02  0.20000003747E+02 0.  0.
         12    1    1    2    0    0 -0.38830304806E+02 -0.18989604413E+02 -0.39019937821E+01  0.43400728134E+02  0.00000000000E+00 0. -1.
         11    1    3    3    0    0  0.66116855660E+01  0.94198087429E+01  0.68510660459E+01  0.13393442015E+02  0.51100000000E-03 0. -1.
        -11    1    3    3    0    0  0.18494046316E+02  0.20439490926E+01 -0.19709789417E+01  0.18710751863E+02  0.51100000000E-03 0.  1.
         12    1    3    3    0    0  0.13724572924E+02  0.75258465773E+01 -0.97809332223E+00  0.15683077989E+02  0.00000000000E+00 0. -1.
</event>
<event>
 7    1  0.2866777E-010  0.4778727E+02  0.7816164E-02  0.1312668E+00
        -11   -1    0    0    0    0  0.00000000000E+00  0.00000000000E+00  0.45593999997E+02  0.45594000000E+02  0.51100000000E-03 0.  1.
         11   -1    0    0    0    0 -0.00000000000E+00 -0.00000000000E+00 -0.45593999997E+02  0.45594000000E+02  0.51100000000E-03 0. -1.
    9900012    2    1    2    0    0 -0.22764451721E+02  0.21901718961E+02  0.29761006569E+02  0.47787273421E+02  0.20000010838E+02 0.  0.
         12    1    1    2    0    0  0.22764451721E+02 -0.21901718961E+02 -0.29761006569E+02  0.43400726579E+02  0.00000000000E+00 0. -1.
         11    1    3    3    0    0 -0.72123488535E+01  0.12336406732E+01  0.13947082667E+01  0.74488292171E+01  0.51100000000E-03 0. -1.
        -11    1    3    3    0    0 -0.54244775822E+01  0.16441518611E+02  0.20518616876E+02  0.26847013429E+02  0.51100000000E-03 0.  1.
        -12    1    3    3    0    0 -0.10127625285E+02  0.42265596760E+01  0.78476814258E+01  0.13491430775E+02  0.00000000000E+00 0.  1.
</event>
<event>
 7    1  0.2706925E-010  0.4778727E+02  0.7816164E-02  0.1312668E+00
        -11   -1    0    0    0    0  0.00000000000E+00  0.00000000000E+00  0.45593999997E+02  0.45594000000E+02  0.51100000000E-03 0.  1.
         11   -1    0    0    0    0 -0.00000000000E+00 -0.00000000000E+00 -0.45593999997E+02  0.45594000000E+02  0.51100000000E-03 0. -1.
    9900012    2    1    2    0    0  0.33154363588E+02  0.83639875570E+00  0.27994849649E+02  0.47787274262E+02  0.20000014668E+02 0.  0.
         12    1    1    2    0    0 -0.33154363588E+02 -0.83639875570E+00 -0.27994849649E+02  0.43400725738E+02  0.00000000000E+00 0. -1.
         11    1    3    3    0    0  0.14750780940E+00  0.46816644045E+01  0.17288073070E+01  0.49928463942E+01  0.51100000000E-03 0. -1.
        -11    1    3    3    0    0  0.13004058589E+02 -0.44419991455E+01  0.11612728112E+02  0.17991452156E+02  0.51100000000E-03 0.  1.
         12    1    3    3    0    0  0.20002797189E+02  0.59673349671E+00  0.14653314230E+02  0.24802975712E+02  0.00000000000E+00 0. -1.
</event>
<event>
 7    1  0.2706925E-010  0.4778728E+02  0.7816164E-02  0.1312668E+00
        -11   -1    0    0    0    0  0.00000000000E+00  0.00000000000E+00  0.45593999997E+02  0.45594000000E+02  0.51100000000E-03 0. -1.
         11   -1    0    0    0    0 -0.00000000000E+00 -0.00000000000E+00 -0.45593999997E+02  0.45594000000E+02  0.51100000000E-03 0.  1.
    9900012    2    1    2    0    0 -0.20248553998E+01 -0.37073038214E+02 -0.22474705796E+02  0.47787278780E+02  0.20000035271E+02 0.  0.
         12    1    1    2    0    0  0.20248553998E+01  0.37073038214E+02  0.22474705796E+02  0.43400721220E+02  0.00000000000E+00 0. -1.
         11    1    3    3    0    0  0.49990619014E+00 -0.23140490919E+02 -0.50138711904E+01  0.23682717976E+02  0.51100000000E-03 0. -1.
        -11    1    3    3    0    0  0.19923226385E+00 -0.17031390130E+01 -0.85739110072E+01  0.87437020885E+01  0.51100000000E-03 0.  1.
        -12    1    3    3    0    0 -0.27239938537E+01 -0.12229408282E+02 -0.88869235979E+01  0.15360858716E+02  0.00000000000E+00 0.  1.
</event>
<event>
 7    1  0.2706925E-010  0.4778727E+02  0.7816164E-02  0.1312668E+00
        -11   -1    0    0    0    0  0.00000000000E+00  0.00000000000E+00  0.45593999997E+02  0.45594000000E+02  0.51100000000E-03 0. -1.
         11   -1    0    0    0    0 -0.00000000000E+00 -0.00000000000E+00 -0.45593999997E+02  0.45594000000E+02  0.51100000000E-03 0.  1.
    9900012    2    1    2    0    0 -0.25362159220E+02  0.34483622002E+02  0.71598695709E+01  0.47787273751E+02  0.20000012341E+02 0.  0.
         12    1    1    2    0    0  0.25362159220E+02 -0.34483622002E+02 -0.71598695709E+01  0.43400726249E+02  0.00000000000E+00 0. -1.
         11    1    3    3    0    0 -0.56394246656E+01  0.15946034185E+02  0.91982876355E+01  0.19253249400E+02  0.51100000000E-03 0. -1.
        -11    1    3    3    0    0 -0.73033390671E+01  0.20282834834E+01 -0.21349812825E+01  0.78746962325E+01  0.51100000000E-03 0.  1.
        -12    1    3    3    0    0 -0.12419395487E+02  0.16509304334E+02  0.96563217838E-01  0.20659328118E+02  0.00000000000E+00 0.  1.
</event>
<event>
 7    1  0.2706925E-010  0.4778728E+02  0.7816164E-02  0.1312668E+00
        -11   -1    0    0    0    0  0.00000000000E+00  0.00000000000E+00  0.45593999997E+02  0.45594000000E+02  0.51100000000E-03 0.  1.
         11   -1    0    0    0    0 -0.00000000000E+00 -0.00000000000E+00 -0.45593999997E+02  0.45594000000E+02  0.51100000000E-03 0. -1.
    9900012    2    1    2    0    0  0.24058215678E+02  0.18028008563E+02  0.31302007738E+02  0.47787279697E+02  0.20000039451E+02 0.  0.
         12    1    1    2    0    0 -0.24058215678E+02 -0.18028008563E+02 -0.31302007738E+02  0.43400720303E+02  0.00000000000E+00 0. -1.
         11    1    3    3    0    0 -0.13996343912E+01 -0.12151502221E+01  0.31585258146E+00  0.18802472193E+01  0.51100000000E-03 0. -1.
        -11    1    3    3    0    0  0.18560766251E+02  0.12287021722E+02  0.27784526659E+02  0.35601304310E+02  0.51100000000E-03 0.  1.
         12    1    3    3    0    0  0.68970838180E+01  0.69561370632E+01  0.32016284978E+01  0.10305728168E+02  0.00000000000E+00 0. -1.
</event>
<event>
 7    1  0.2706925E-010  0.4778732E+02  0.7816164E-02  0.1312668E+00
        -11   -1    0    0    0    0  0.00000000000E+00  0.00000000000E+00  0.45593999997E+02  0.45594000000E+02  0.51100000000E-03 0.  1.
         11   -1    0    0    0    0 -0.00000000000E+00 -0.00000000000E+00 -0.45593999997E+02  0.45594000000E+02  0.51100000000E-03 0. -1.
    9900012    2    1    2    0    0 -0.22725506131E+02  0.25085211330E+02  0.27164369659E+02  0.47787315267E+02  0.20000201625E+02 0.  0.
         12    1    1    2    0    0  0.22725506131E+02 -0.25085211330E+02 -0.27164369659E+02  0.43400684733E+02  0.00000000000E+00 0. -1.
         11    1    3    3    0    0 -0.71089189770E+01  0.27628679994E+01 -0.51110005474E+00  0.76440429179E+01  0.51100000000E-03 0. -1.
        -11    1    3    3    0    0 -0.16318636729E+02  0.21042800774E+02  0.22807041191E+02  0.35060782896E+02  0.51100000000E-03 0.  1.
        -12    1    3    3    0    0  0.70204957543E+00  0.12795425569E+01  0.48684285224E+01  0.50824894529E+01  0.00000000000E+00 0.  1.
</event>
<event>
 7    1  0.2706925E-010  0.4778727E+02  0.7816164E-02  0.1312668E+00
        -11   -1    0    0    0    0  0.00000000000E+00  0.00000000000E+00  0.45593999997E+02  0.45594000000E+02  0.51100000000E-03 0. -1.
         11   -1    0    0    0    0 -0.00000000000E+00 -0.00000000000E+00 -0.45593999997E+02  0.45594000000E+02  0.51100000000E-03 0.  1.
    9900012    2    1    2    0    0 -0.16514948240E+02 -0.39382112745E+02 -0.77413608805E+01  0.47787274339E+02  0.20000015020E+02 0.  0.
         12    1    1    2    0    0  0.16514948240E+02  0.39382112745E+02  0.77413608805E+01  0.43400725661E+02  0.00000000000E+00 0. -1.
         11    1    3    3    0    0 -0.11073708810E+02 -0.20996843912E+02 -0.17211290080E+00  0.23738662645E+02  0.51100000000E-03 0. -1.
        -11    1    3    3    0    0  0.36266826717E+01 -0.30118250040E+01 -0.31223240969E+01  0.56544517933E+01  0.51100000000E-03 0.  1.
        -12    1    3    3    0    0 -0.90679221016E+01 -0.15373443829E+02 -0.44469238828E+01  0.18394159900E+02  0.00000000000E+00 0.  1.
</event>
<event>
 7    1  0.2706925E-010  0.4778727E+02  0.7816164E-02  0.1312668E+00
        -11   -1    0    0    0    0  0.00000000000E+00  0.00000000000E+00  0.45593999997E+02  0.45594000000E+02  0.51100000000E-03 0.  1.
         11   -1    0    0    0    0 -0.00000000000E+00 -0.00000000000E+00 -0.45593999997E+02  0.45594000000E+02  0.51100000000E-03 0. -1.
    9900012    2    1    2    0    0 -0.10341352441E+02 -0.22058963151E+02  0.35917705225E+02  0.47787274497E+02  0.20000015739E+02 0.  0.
         12    1    1    2    0    0  0.10341352441E+02  0.22058963151E+02 -0.35917705225E+02  0.43400725503E+02  0.00000000000E+00 0. -1.
         11    1    3    3    0    0 -0.44670991106E+01 -0.42684615925E+01 -0.46677979899E+00  0.61961780537E+01  0.51100000000E-03 0. -1.
        -11    1    3    3    0    0 -0.53537221629E+01 -0.16354315492E+02  0.26552405458E+02  0.31641052639E+02  0.51100000000E-03 0.  1.
         12    1    3    3    0    0 -0.52053116747E+00 -0.14361860660E+01  0.98320795660E+01  0.99500438042E+01  0.00000000000E+00 0. -1.
</event>
<event>
 7    1  0.2706925E-010  0.4778727E+02  0.7816164E-02  0.1312668E+00
        -11   -1    0    0    0    0  0.00000000000E+00  0.00000000000E+00  0.45593999997E+02  0.45594000000E+02  0.51100000000E-03 0.  1.
         11   -1    0    0    0    0 -0.00000000000E+00 -0.00000000000E+00 -0.45593999997E+02  0.45594000000E+02  0.51100000000E-03 0. -1.
    9900012    2    1    2    0    0  0.29197255927E+02  0.89623683993E+01  0.30835359985E+02  0.47787271591E+02  0.20000002493E+02 0.  0.
         12    1    1    2    0    0 -0.29197255927E+02 -0.89623683993E+01 -0.30835359985E+02  0.43400728409E+02  0.00000000000E+00 0. -1.
         11    1    3    3    0    0  0.11640932375E+02 -0.19525425698E+01  0.19891928642E+02  0.23130338398E+02  0.51100000000E-03 0. -1.
        -11    1    3    3    0    0  0.15226738535E+02  0.55834105907E+01  0.88346689536E+01  0.18468335496E+02  0.51100000000E-03 0.  1.
         12    1    3    3    0    0  0.23295850169E+01  0.53315003784E+01  0.21087623899E+01  0.61885976968E+01  0.00000000000E+00 0. -1.
</event>
<event>
 7    1  0.2706925E-010  0.4778727E+02  0.7816164E-02  0.1312668E+00
        -11   -1    0    0    0    0  0.00000000000E+00  0.00000000000E+00  0.45593999997E+02  0.45594000000E+02  0.51100000000E-03 0. -1.
         11   -1    0    0    0    0 -0.00000000000E+00 -0.00000000000E+00 -0.45593999997E+02  0.45594000000E+02  0.51100000000E-03 0.  1.
    9900012    2    1    2    0    0 -0.39868893775E+02 -0.10884750998E+02 -0.13252048833E+02  0.47787270820E+02  0.19999998976E+02 0.  0.
         12    1    1    2    0    0  0.39868893775E+02  0.10884750998E+02  0.13252048833E+02  0.43400729180E+02  0.00000000000E+00 0. -1.
         11    1    3    3    0    0 -0.13683573259E+02 -0.72922940337E+01  0.52715438696E+00  0.15514368225E+02  0.51100000000E-03 0. -1.
        -11    1    3    3    0    0 -0.16626617892E+02 -0.31258282851E+01 -0.15019208541E+02  0.22622817032E+02  0.51100000000E-03 0.  1.
        -12    1    3    3    0    0 -0.95587026237E+01 -0.46662867885E+00  0.12400053214E+01  0.96500855628E+01  0.00000000000E+00 0.  1.
</event>
<event>
 7    1  0.2706925E-010  0.4778727E+02  0.7816164E-02  0.1312668E+00
        -11   -1    0    0    0    0  0.00000000000E+00  0.00000000000E+00  0.45593999997E+02  0.45594000000E+02  0.51100000000E-03 0. -1.
         11   -1    0    0    0    0 -0.00000000000E+00 -0.00000000000E+00 -0.45593999997E+02  0.45594000000E+02  0.51100000000E-03 0.  1.
    9900012    2    1    2    0    0  0.23796356121E+02  0.91673604450E+01 -0.35118605133E+02  0.47787268570E+02  0.19999988719E+02 0.  0.
         12    1    1    2    0    0 -0.23796356121E+02 -0.91673604450E+01  0.35118605133E+02  0.43400731430E+02  0.00000000000E+00 0. -1.
         11    1    3    3    0    0 -0.20362953880E+01 -0.18608961561E+01 -0.60228262546E+01  0.66244901514E+01  0.51100000000E-03 0. -1.
        -11    1    3    3    0    0  0.19589058842E+02  0.55877472271E+01 -0.17157315970E+02  0.26633205533E+02  0.51100000000E-03 0.  1.
         12    1    3    3    0    0  0.62435926666E+01  0.54405093740E+01 -0.11938462909E+02  0.14529572886E+02  0.00000000000E+00 0. -1.
</event>
<event>
 7    1  0.2706925E-010  0.4778727E+02  0.7816164E-02  0.1312668E+00
        -11   -1    0    0    0    0  0.00000000000E+00  0.00000000000E+00  0.45593999997E+02  0.45594000000E+02  0.51100000000E-03 0. -1.
         11   -1    0    0    0    0 -0.00000000000E+00 -0.00000000000E+00 -0.45593999997E+02  0.45594000000E+02  0.51100000000E-03 0.  1.
    9900012    2    1    2    0    0  0.34842563539E+02 -0.23505387777E+02  0.10822012226E+02  0.47787269163E+02  0.19999991423E+02 0.  0.
         12    1    1    2    0    0 -0.34842563539E+02  0.23505387777E+02 -0.10822012226E+02  0.43400730837E+02  0.00000000000E+00 0. -1.
         11    1    3    3    0    0  0.85197728073E-01 -0.19533367925E+01  0.51962493061E+01  0.55519177218E+01  0.51100000000E-03 0. -1.
        -11    1    3    3    0    0  0.31690693476E+02 -0.21809046909E+02  0.65469073783E+01  0.39023026236E+02  0.51100000000E-03 0.  1.
        -12    1    3    3    0    0  0.30666723349E+01  0.25699592458E+00 -0.92114445820E+00  0.32123252058E+01  0.00000000000E+00 0.  1.
</event>
<event>
 7    1  0.2706925E-010  0.4778729E+02  0.7816164E-02  0.1312668E+00
        -11   -1    0    0    0    0  0.00000000000E+00  0.00000000000E+00  0.45593999997E+02  0.45594000000E+02  0.51100000000E-03 0.  1.
         11   -1    0    0    0    0 -0.00000000000E+00 -0.00000000000E+00 -0.45593999997E+02  0.45594000000E+02  0.51100000000E-03 0. -1.
    9900012    2    1    2    0    0  0.24457199228E+02  0.11476166670E+02  0.33967116581E+02  0.47787285670E+02  0.20000066686E+02 0.  0.
         12    1    1    2    0    0 -0.24457199228E+02 -0.11476166670E+02 -0.33967116581E+02  0.43400714330E+02  0.00000000000E+00 0. -1.
         11    1    3    3    0    0  0.10716759966E+01  0.73702542531E+01  0.36273860803E+01  0.82841455343E+01  0.51100000000E-03 0. -1.
        -11    1    3    3    0    0  0.17196976977E+02  0.47690604131E+01  0.27200630172E+02  0.32532356760E+02  0.51100000000E-03 0.  1.
         12    1    3    3    0    0  0.61885462537E+01 -0.66314799618E+00  0.31391003291E+01  0.69707833760E+01  0.00000000000E+00 0. -1.
</event>
<event>
 7    1  0.2706925E-010  0.4778727E+02  0.7816164E-02  0.1312668E+00
        -11   -1    0    0    0    0  0.00000000000E+00  0.00000000000E+00  0.45593999997E+02  0.45594000000E+02  0.51100000000E-03 0. -1.
         11   -1    0    0    0    0 -0.00000000000E+00 -0.00000000000E+00 -0.45593999997E+02  0.45594000000E+02  0.51100000000E-03 0.  1.
    9900012    2    1    2    0    0 -0.22082029815E+02 -0.17916004655E+02 -0.32787559997E+02  0.47787270120E+02  0.19999995786E+02 0.  0.
         12    1    1    2    0    0  0.22082029815E+02  0.17916004655E+02  0.32787559997E+02  0.43400729880E+02  0.00000000000E+00 0. -1.
         11    1    3    3    0    0 -0.23505980565E+02 -0.89938102165E+01 -0.22578073598E+02  0.33811080317E+02  0.51100000000E-03 0. -1.
        -11    1    3    3    0    0  0.51642802118E+00 -0.83190059405E+01 -0.96499362728E+01  0.12751228493E+02  0.51100000000E-03 0.  1.
         12    1    3    3    0    0  0.90752272961E+00 -0.60318849761E+00 -0.55955012616E+00  0.12249613104E+01  0.00000000000E+00 0. -1.
</event>
<event>
 7    1  0.2706925E-010  0.4778727E+02  0.7816164E-02  0.1312668E+00
        -11   -1    0    0    0    0  0.00000000000E+00  0.00000000000E+00  0.45593999997E+02  0.45594000000E+02  0.51100000000E-03 0.  1.
         11   -1    0    0    0    0 -0.00000000000E+00 -0.00000000000E+00 -0.45593999997E+02  0.45594000000E+02  0.51100000000E-03 0. -1.
    9900012    2    1    2    0    0  0.49711735811E+01  0.15860171611E+02  0.40091964328E+02  0.47787271735E+02  0.20000003147E+02 0.  0.
         12    1    1    2    0    0 -0.49711735811E+01 -0.15860171611E+02 -0.40091964328E+02  0.43400728265E+02  0.00000000000E+00 0. -1.
         11    1    3    3    0    0 -0.31184367775E+01 -0.17597194705E+01  0.10326851865E+02  0.10930010533E+02  0.51100000000E-03 0. -1.
        -11    1    3    3    0    0  0.78684728549E+01  0.60553975547E+01  0.16505724693E+02  0.19261870431E+02  0.51100000000E-03 0.  1.
         12    1    3    3    0    0  0.22113750371E+00  0.11564493527E+02  0.13259387769E+02  0.17595390770E+02  0.00000000000E+00 0. -1.
</event>
<event>
 7    1  0.2706925E-010  0.4778726E+02  0.7816164E-02  0.1312668E+00
        -11   -1    0    0    0    0  0.00000000000E+00  0.00000000000E+00  0.45593999997E+02  0.45594000000E+02  0.51100000000E-03 0.  1.
         11   -1    0    0    0    0 -0.00000000000E+00 -0.00000000000E+00 -0.45593999997E+02  0.45594000000E+02  0.51100000000E-03 0. -1.
    9900012    2    1    2    0    0 -0.15407202587E+02  0.11760441315E+02  0.38832128529E+02  0.47787261785E+02  0.19999957783E+02 0.  0.
         12    1    1    2    0    0  0.15407202587E+02 -0.11760441315E+02 -0.38832128529E+02  0.43400738215E+02  0.00000000000E+00 0. -1.
         11    1    3    3    0    0 -0.40585804164E+01  0.19670774663E+00  0.22245568321E+02  0.22613625962E+02  0.51100000000E-03 0. -1.
        -11    1    3    3    0    0 -0.72459861841E+01  0.48727890052E+01  0.14705728114E+02  0.17102830997E+02  0.51100000000E-03 0.  1.
         12    1    3    3    0    0 -0.41026359869E+01  0.66909445631E+01  0.18808320933E+01  0.80708048267E+01  0.00000000000E+00 0. -1.
</event>
<event>
 7    1  0.2706925E-010  0.4778728E+02  0.7816164E-02  0.1312668E+00
        -11   -1    0    0    0    0  0.00000000000E+00  0.00000000000E+00  0.45593999997E+02  0.45594000000E+02  0.51100000000E-03 0.  1.
         11   -1    0    0    0    0 -0.00000000000E+00 -0.00000000000E+00 -0.45593999997E+02  0.45594000000E+02  0.51100000000E-03 0. -1.
    9900012    2    1    2    0    0  0.24398365488E+01 -0.33980769575E+02  0.26888231989E+02  0.47787279698E+02  0.20000039454E+02 0.  0.
         12    1    1    2    0    0 -0.24398365488E+01  0.33980769575E+02 -0.26888231989E+02  0.43400720302E+02  0.00000000000E+00 0. -1.
         11    1    3    3    0    0  0.72801418092E+01 -0.61753020634E+01  0.24968391682E+01  0.98675744958E+01  0.51100000000E-03 0. -1.
        -11    1    3    3    0    0 -0.65530672503E+01 -0.20718976566E+02  0.18745321447E+02  0.28698532310E+02  0.51100000000E-03 0.  1.
         12    1    3    3    0    0  0.17127619899E+01 -0.70864909451E+01  0.56460713736E+01  0.92211728921E+01  0.00000000000E+00 0. -1.
</event>
<event>
 7    1  0.2706925E-010  0.4778727E+02  0.7816164E-02  0.1312668E+00
        -11   -1    0    0    0    0  0.00000000000E+00  0.00000000000E+00  0.45593999997E+02  0.45594000000E+02  0.51100000000E-03 0.  1.
         11   -1    0    0    0    0 -0.00000000000E+00 -0.00000000000E+00 -0.45593999997E+02  0.45594000000E+02  0.51100000000E-03 0. -1.
    9900012    2    1    2    0    0  0.30217335105E+02 -0.11666845220E+02  0.28886344381E+02  0.47787268325E+02  0.19999987599E+02 0.  0.
         12    1    1    2    0    0 -0.30217335105E+02  0.11666845220E+02 -0.28886344381E+02  0.43400731675E+02  0.00000000000E+00 0. -1.
         11    1    3    3    0    0  0.26286571111E+01 -0.38861066901E+01 -0.19834385990E+01  0.50936914268E+01  0.51100000000E-03 0. -1.
        -11    1    3    3    0    0  0.26833141160E+02 -0.74443252687E+01  0.27181177803E+02  0.38913389345E+02  0.51100000000E-03 0.  1.
        -12    1    3    3    0    0  0.75553683406E+00 -0.33641326110E+00  0.36886051765E+01  0.37801875533E+01  0.00000000000E+00 0.  1.
</event>
<event>
 7    1  0.2706925E-010  0.4778727E+02  0.7816164E-02  0.1312668E+00
        -11   -1    0    0    0    0  0.00000000000E+00  0.00000000000E+00  0.45593999997E+02  0.45594000000E+02  0.51100000000E-03 0. -1.
         11   -1    0    0    0    0 -0.00000000000E+00 -0.00000000000E+00 -0.45593999997E+02  0.45594000000E+02  0.51100000000E-03 0.  1.
    9900012    2    1    2    0    0 -0.12434167928E+02 -0.25385571167E+02 -0.32933077503E+02  0.47787270175E+02  0.19999996034E+02 0.  0.
         12    1    1    2    0    0  0.12434167928E+02  0.25385571167E+02  0.32933077503E+02  0.43400729825E+02  0.00000000000E+00 0. -1.
         11    1    3    3    0    0 -0.46081521151E+01 -0.65730840436E+01  0.97804150678E+00  0.80868451952E+01  0.51100000000E-03 0. -1.
        -11    1    3    3    0    0 -0.31613578593E+01 -0.11744862061E+02 -0.19307531396E+02  0.22819218594E+02  0.51100000000E-03 0.  1.
         12    1    3    3    0    0 -0.46646579540E+01 -0.70676250622E+01 -0.14603587613E+02  0.16881206386E+02  0.00000000000E+00 0. -1.
</event>
<event>
 7    1  0.2706925E-010  0.4778724E+02  0.7816164E-02  0.1312668E+00
        -11   -1    0    0    0    0  0.00000000000E+00  0.00000000000E+00  0.45593999997E+02  0.45594000000E+02  0.51100000000E-03 0.  1.
         11   -1    0    0    0    0 -0.00000000000E+00 -0.00000000000E+00 -0.45593999997E+02  0.45594000000E+02  0.51100000000E-03 0. -1.
    9900012    2    1    2    0    0  0.71308689043E+01 -0.18055285823E+02  0.38817303956E+02  0.47787242819E+02  0.19999871309E+02 0.  0.
         12    1    1    2    0    0 -0.71308689043E+01  0.18055285823E+02 -0.38817303956E+02  0.43400757181E+02  0.00000000000E+00 0. -1.
         11    1    3    3    0    0  0.71032346297E+01 -0.11618919936E+02  0.33488112421E+02  0.36151195229E+02  0.51100000000E-03 0.  1.
        -11    1    3    3    0    0  0.26632058832E+01 -0.19776118165E+01 -0.99347662538E+00  0.34627460402E+01  0.51100000000E-03 0. -1.
        -12    1    3    3    0    0 -0.26355716086E+01 -0.44587540700E+01  0.63226681598E+01  0.81733015495E+01  0.00000000000E+00 0.  1.
</event>
<event>
 7    1  0.2706925E-010  0.4778727E+02  0.7816164E-02  0.1312668E+00
        -11   -1    0    0    0    0  0.00000000000E+00  0.00000000000E+00  0.45593999997E+02  0.45594000000E+02  0.51100000000E-03 0.  1.
         11   -1    0    0    0    0 -0.00000000000E+00 -0.00000000000E+00 -0.45593999997E+02  0.45594000000E+02  0.51100000000E-03 0. -1.
    9900012    2    1    2    0    0 -0.33779147698E+02 -0.49841881907E+01  0.26790863366E+02  0.47787270616E+02  0.19999998049E+02 0.  0.
         12    1    1    2    0    0  0.33779147698E+02  0.49841881907E+01 -0.26790863366E+02  0.43400729384E+02  0.00000000000E+00 0. -1.
         11    1    3    3    0    0 -0.13199955759E+02 -0.10897263588E+02  0.16912031761E+02  0.24062543596E+02  0.51100000000E-03 0. -1.
        -11    1    3    3    0    0 -0.12611348410E+02  0.23500436367E+01  0.54658158063E+01  0.13944316280E+02  0.51100000000E-03 0.  1.
         12    1    3    3    0    0 -0.79678435288E+01  0.35630317606E+01  0.44130157990E+01  0.97804107413E+01  0.00000000000E+00 0. -1.
</event>
<event>
 7    1  0.2706925E-010  0.4778727E+02  0.7816164E-02  0.1312668E+00
        -11   -1    0    0    0    0  0.00000000000E+00  0.00000000000E+00  0.45593999997E+02  0.45594000000E+02  0.51100000000E-03 0.  1.
         11   -1    0    0    0    0 -0.00000000000E+00 -0.00000000000E+00 -0.45593999997E+02  0.45594000000E+02  0.51100000000E-03 0. -1.
    9900012    2    1    2    0    0  0.34617412683E+02 -0.16349288569E+02  0.20444034333E+02  0.47787273769E+02  0.20000012421E+02 0.  0.
         12    1    1    2    0    0 -0.34617412683E+02  0.16349288569E+02 -0.20444034333E+02  0.43400726231E+02  0.00000000000E+00 0. -1.
         11    1    3    3    0    0  0.29521209724E+02 -0.12388713408E+02  0.82975826510E+01  0.33073129903E+02  0.51100000000E-03 0. -1.
        -11    1    3    3    0    0  0.54368793678E+01 -0.44454708675E+01  0.85283572951E+01  0.11047839015E+02  0.51100000000E-03 0.  1.
         12    1    3    3    0    0 -0.34067640845E+00  0.48489570671E+00  0.36180943870E+01  0.36663048502E+01  0.00000000000E+00 0. -1.
</event>
<event>
 7    1  0.2706925E-010  0.4778727E+02  0.7816164E-02  0.1312668E+00
        -11   -1    0    0    0    0  0.00000000000E+00  0.00000000000E+00  0.45593999997E+02  0.45594000000E+02  0.51100000000E-03 0.  1.
         11   -1    0    0    0    0 -0.00000000000E+00 -0.00000000000E+00 -0.45593999997E+02  0.45594000000E+02  0.51100000000E-03 0. -1.
    9900012    2    1    2    0    0  0.20113796512E+02  0.38050820887E+02  0.55851150489E+01  0.47787270854E+02  0.19999999133E+02 0.  0.
         12    1    1    2    0    0 -0.20113796512E+02 -0.38050820887E+02 -0.55851150489E+01  0.43400729146E+02  0.00000000000E+00 0. -1.
         11    1    3    3    0    0  0.13633295067E+02  0.18564914142E+02  0.97176603596E+01  0.24999113876E+02  0.51100000000E-03 0. -1.
        -11    1    3    3    0    0  0.26958800129E+01  0.15171864401E+02  0.49279811355E+00  0.15417395652E+02  0.51100000000E-03 0.  1.
         12    1    3    3    0    0  0.37846214329E+01  0.43140423433E+01 -0.46253434243E+01  0.73707613259E+01  0.00000000000E+00 0. -1.
</event>
<event>
 7    1  0.2706925E-010  0.4778727E+02  0.7816164E-02  0.1312668E+00
        -11   -1    0    0    0    0  0.00000000000E+00  0.00000000000E+00  0.45593999997E+02  0.45594000000E+02  0.51100000000E-03 0. -1.
         11   -1    0    0    0    0 -0.00000000000E+00 -0.00000000000E+00 -0.45593999997E+02  0.45594000000E+02  0.51100000000E-03 0.  1.
    9900012    2    1    2    0    0 -0.35308930267E+02  0.14848872369E+02  0.20406220323E+02  0.47787269648E+02  0.19999993634E+02 0.  0.
         12    1    1    2    0    0  0.35308930267E+02 -0.14848872369E+02 -0.20406220323E+02  0.43400730352E+02  0.00000000000E+00 0. -1.
         11    1    3    3    0    0 -0.35862439649E+01  0.15652320567E+01  0.75544106167E+01  0.85076563867E+01  0.51100000000E-03 0. -1.
        -11    1    3    3    0    0 -0.28888332160E+02  0.15696514828E+02  0.13426522503E+02  0.35513206269E+02  0.51100000000E-03 0.  1.
        -12    1    3    3    0    0 -0.28343541421E+01 -0.24128745160E+01 -0.57471279736E+00  0.37664069924E+01  0.00000000000E+00 0.  1.
</event>
<event>
 7    1  0.2706925E-010  0.4778723E+02  0.7816164E-02  0.1312668E+00
        -11   -1    0    0    0    0  0.00000000000E+00  0.00000000000E+00  0.45593999997E+02  0.45594000000E+02  0.51100000000E-03 0.  1.
         11   -1    0    0    0    0 -0.00000000000E+00 -0.00000000000E+00 -0.45593999997E+02  0.45594000000E+02  0.51100000000E-03 0. -1.
    9900012    2    1    2    0    0  0.48041758890E+01  0.29343898086E+01  0.43034129188E+02  0.47787227835E+02  0.19999802992E+02 0.  0.
         12    1    1    2    0    0 -0.48041758890E+01 -0.29343898086E+01 -0.43034129188E+02  0.43400772165E+02  0.00000000000E+00 0. -1.
         11    1    3    3    0    0  0.16345339314E+01  0.73014775070E+01  0.94910252304E+01  0.12085645831E+02  0.51100000000E-03 0. -1.
        -11    1    3    3    0    0 -0.31864518427E+01 -0.23616174503E+01  0.22148924681E+02  0.22501235013E+02  0.51100000000E-03 0.  1.
         12    1    3    3    0    0  0.63560938003E+01 -0.20054702482E+01  0.11394179277E+02  0.13200346992E+02  0.00000000000E+00 0. -1.
</event>
<event>
 7    1  0.2706925E-010  0.4778727E+02  0.7816164E-02  0.1312668E+00
        -11   -1    0    0    0    0  0.00000000000E+00  0.00000000000E+00  0.45593999997E+02  0.45594000000E+02  0.51100000000E-03 0. -1.
         11   -1    0    0    0    0 -0.00000000000E+00 -0.00000000000E+00 -0.45593999997E+02  0.45594000000E+02  0.51100000000E-03 0.  1.
    9900012    2    1    2    0    0  0.60154463576E+01  0.34411691917E+01 -0.42843854531E+02  0.47787272917E+02  0.20000008537E+02 0.  0.
         12    1    1    2    0    0 -0.60154463576E+01 -0.34411691917E+01  0.42843854531E+02  0.43400727083E+02  0.00000000000E+00 0. -1.
         11    1    3    3    0    0 -0.14714050387E+00 -0.23802700147E-01  0.18092661008E+01  0.18153955439E+01  0.51100000000E-03 0. -1.
        -11    1    3    3    0    0  0.82074295796E+01  0.34016011261E+01 -0.36627559401E+02  0.37689665671E+02  0.51100000000E-03 0.  1.
        -12    1    3    3    0    0 -0.20448427182E+01  0.63370765826E-01 -0.80255612310E+01  0.82822117015E+01  0.00000000000E+00 0.  1.
</event>
<event>
 7    1  0.2706925E-010  0.4778727E+02  0.7816164E-02  0.1312668E+00
        -11   -1    0    0    0    0  0.00000000000E+00  0.00000000000E+00  0.45593999997E+02  0.45594000000E+02  0.51100000000E-03 0.  1.
         11   -1    0    0    0    0 -0.00000000000E+00 -0.00000000000E+00 -0.45593999997E+02  0.45594000000E+02  0.51100000000E-03 0. -1.
    9900012    2    1    2    0    0 -0.35522666466E+01 -0.38934368963E+02  0.18844616219E+02  0.47787271373E+02  0.20000001499E+02 0.  0.
         12    1    1    2    0    0  0.35522666466E+01  0.38934368963E+02 -0.18844616219E+02  0.43400728627E+02  0.00000000000E+00 0. -1.
         11    1    3    3    0    0 -0.30946368891E+00 -0.27793226491E+02  0.17728041580E+02  0.32967296903E+02  0.51100000000E-03 0.  1.
        -11    1    3    3    0    0 -0.19372942977E+01 -0.12161650210E+02 -0.73288503717E+00  0.12336772908E+02  0.51100000000E-03 0. -1.
         12    1    3    3    0    0 -0.13055086601E+01  0.10205077386E+01  0.18494596762E+01  0.24832015625E+01  0.00000000000E+00 0. -1.
</event>
<event>
 7    1  0.2706925E-010  0.4778727E+02  0.7816164E-02  0.1312668E+00
        -11   -1    0    0    0    0  0.00000000000E+00  0.00000000000E+00  0.45593999997E+02  0.45594000000E+02  0.51100000000E-03 0. -1.
         11   -1    0    0    0    0 -0.00000000000E+00 -0.00000000000E+00 -0.45593999997E+02  0.45594000000E+02  0.51100000000E-03 0.  1.
    9900012    2    1    2    0    0 -0.32150420112E+01  0.41974364832E+02 -0.10556492561E+02  0.47787270359E+02  0.19999996876E+02 0.  0.
         12    1    1    2    0    0  0.32150420112E+01 -0.41974364832E+02  0.10556492561E+02  0.43400729641E+02  0.00000000000E+00 0. -1.
         11    1    3    3    0    0  0.46877779193E+00  0.32533829044E+01 -0.14898867943E+01  0.36088801396E+01  0.51100000000E-03 0. -1.
        -11    1    3    3    0    0  0.35504640357E+01  0.11959285813E+02  0.45672282716E+01  0.13284949619E+02  0.51100000000E-03 0.  1.
        -12    1    3    3    0    0 -0.72342838388E+01  0.26761696114E+02 -0.13633834038E+02  0.30893440600E+02  0.00000000000E+00 0.  1.
</event>
<event>
 7    1  0.2706925E-010  0.4778727E+02  0.7816164E-02  0.1312668E+00
        -11   -1    0    0    0    0  0.00000000000E+00  0.00000000000E+00  0.45593999997E+02  0.45594000000E+02  0.51100000000E-03 0.  1.
         11   -1    0    0    0    0 -0.00000000000E+00 -0.00000000000E+00 -0.45593999997E+02  0.45594000000E+02  0.51100000000E-03 0. -1.
    9900012    2    1    2    0    0 -0.25903095006E+02 -0.29962429371E+02  0.17745579193E+02  0.47787273213E+02  0.20000009889E+02 0.  0.
         12    1    1    2    0    0  0.25903095006E+02  0.29962429371E+02 -0.17745579193E+02  0.43400726787E+02  0.00000000000E+00 0. -1.
         11    1    3    3    0    0 -0.15417740036E+02 -0.22734094555E+02  0.83154965324E+01  0.28700056548E+02  0.51100000000E-03 0. -1.
        -11    1    3    3    0    0 -0.95010943862E+01 -0.97410730170E+01  0.64239202301E+01  0.15047459900E+02  0.51100000000E-03 0.  1.
         12    1    3    3    0    0 -0.98426058389E+00  0.25127382005E+01  0.30061624305E+01  0.40397567649E+01  0.00000000000E+00 0. -1.
</event>
<event>
 7    1  0.2706925E-010  0.4778727E+02  0.7816164E-02  0.1312668E+00
        -11   -1    0    0    0    0  0.00000000000E+00  0.00000000000E+00  0.45593999997E+02  0.45594000000E+02  0.51100000000E-03 0.  1.
         11   -1    0    0    0    0 -0.00000000000E+00 -0.00000000000E+00 -0.45593999997E+02  0.45594000000E+02  0.51100000000E-03 0. -1.
    9900012    2    1    2    0    0 -0.57848684711E+01  0.32006108265E+02  0.28736174357E+02  0.47787269751E+02  0.19999994103E+02 0.  0.
         12    1    1    2    0    0  0.57848684711E+01 -0.32006108265E+02 -0.28736174357E+02  0.43400730249E+02  0.00000000000E+00 0. -1.
         11    1    3    3    0    0  0.53822739965E+00  0.48420533340E+01  0.29197447024E+01  0.56797956487E+01  0.51100000000E-03 0. -1.
        -11    1    3    3    0    0 -0.61582719995E+01  0.27925900615E+02  0.27857468056E+02  0.39922659805E+02  0.51100000000E-03 0.  1.
        -12    1    3    3    0    0 -0.16482387126E+00 -0.76184568467E+00 -0.20410384014E+01  0.21848142968E+01  0.00000000000E+00 0.  1.
</event>
<event>
 7    1  0.2706925E-010  0.4778731E+02  0.7816164E-02  0.1312668E+00
        -11   -1    0    0    0    0  0.00000000000E+00  0.00000000000E+00  0.45593999997E+02  0.45594000000E+02  0.51100000000E-03 0.  1.
         11   -1    0    0    0    0 -0.00000000000E+00 -0.00000000000E+00 -0.45593999997E+02  0.45594000000E+02  0.51100000000E-03 0. -1.
    9900012    2    1    2    0    0 -0.20032619674E+02  0.28445988550E+02  0.25944931539E+02  0.47787313506E+02  0.20000193597E+02 0.  0.
         12    1    1    2    0    0  0.20032619674E+02 -0.28445988550E+02 -0.25944931539E+02  0.43400686494E+02  0.00000000000E+00 0. -1.
         11    1    3    3    0    0 -0.34016939715E+01 -0.46774736084E+00  0.52904765086E+01  0.63070953234E+01  0.51100000000E-03 0.  1.
        -11    1    3    3    0    0 -0.17015146316E+02  0.21213068996E+02  0.11537806235E+02  0.29540319452E+02  0.51100000000E-03 0. -1.
        -12    1    3    3    0    0  0.38422061331E+00  0.77006669154E+01  0.91166487952E+01  0.11939898730E+02  0.00000000000E+00 0.  1.
</event>
<event>
 7    1  0.2706925E-010  0.4778727E+02  0.7816164E-02  0.1312668E+00
        -11   -1    0    0    0    0  0.00000000000E+00  0.00000000000E+00  0.45593999997E+02  0.45594000000E+02  0.51100000000E-03 0. -1.
         11   -1    0    0    0    0 -0.00000000000E+00 -0.00000000000E+00 -0.45593999997E+02  0.45594000000E+02  0.51100000000E-03 0.  1.
    9900012    2    1    2    0    0 -0.41282037566E+02  0.12201690736E+02  0.55258892112E+01  0.47787270352E+02  0.19999996844E+02 0.  0.
         12    1    1    2    0    0  0.41282037566E+02 -0.12201690736E+02 -0.55258892112E+01  0.43400729648E+02  0.00000000000E+00 0. -1.
         11    1    3    3    0    0 -0.12476353767E+01  0.58239389307E+01  0.12966295032E+01  0.60955809429E+01  0.51100000000E-03 0. -1.
        -11    1    3    3    0    0 -0.27008438832E+02  0.75277314934E+01  0.54342897409E+01  0.28559657120E+02  0.51100000000E-03 0.  1.
         12    1    3    3    0    0 -0.13025963357E+02 -0.11499796878E+01 -0.12050300329E+01  0.13132032289E+02  0.00000000000E+00 0. -1.
</event>
<event>
 7    1  0.2706925E-010  0.4778727E+02  0.7816164E-02  0.1312668E+00
        -11   -1    0    0    0    0  0.00000000000E+00  0.00000000000E+00  0.45593999997E+02  0.45594000000E+02  0.51100000000E-03 0. -1.
         11   -1    0    0    0    0 -0.00000000000E+00 -0.00000000000E+00 -0.45593999997E+02  0.45594000000E+02  0.51100000000E-03 0.  1.
    9900012    2    1    2    0    0  0.26820118790E+02  0.70631772315E+00 -0.34114593549E+02  0.47787272476E+02  0.20000006526E+02 0.  0.
         12    1    1    2    0    0 -0.26820118790E+02 -0.70631772315E+00  0.34114593549E+02  0.43400727524E+02  0.00000000000E+00 0. -1.
         11    1    3    3    0    0  0.72575481888E+01 -0.22997014234E+00  0.60092593654E+00  0.72860142892E+01  0.51100000000E-03 0. -1.
        -11    1    3    3    0    0  0.16882156303E+02  0.29501143261E+01 -0.25772665025E+02  0.30950616129E+02  0.51100000000E-03 0.  1.
         12    1    3    3    0    0  0.26804142979E+01 -0.20138264606E+01 -0.89428544601E+01  0.95506420578E+01  0.00000000000E+00 0. -1.
</event>
<event>
 7    1  0.2706925E-010  0.4778727E+02  0.7816164E-02  0.1312668E+00
        -11   -1    0    0    0    0  0.00000000000E+00  0.00000000000E+00  0.45593999997E+02  0.45594000000E+02  0.51100000000E-03 0.  1.
         11   -1    0    0    0    0 -0.00000000000E+00 -0.00000000000E+00 -0.45593999997E+02  0.45594000000E+02  0.51100000000E-03 0. -1.
    9900012    2    1    2    0    0  0.39654699117E+02  0.10262252846E+02  0.14346222884E+02  0.47787272972E+02  0.20000008787E+02 0.  0.
         12    1    1    2    0    0 -0.39654699117E+02 -0.10262252846E+02 -0.14346222884E+02  0.43400727028E+02  0.00000000000E+00 0. -1.
         11    1    3    3    0    0  0.12307735533E+02  0.10679666256E+01 -0.42351498850E+01  0.13059762688E+02  0.51100000000E-03 0. -1.
        -11    1    3    3    0    0  0.22388048369E+02  0.65652693138E+01  0.12563567801E+02  0.26498503865E+02  0.51100000000E-03 0.  1.
        -12    1    3    3    0    0  0.49589152158E+01  0.26290169071E+01  0.60178049680E+01  0.82290064192E+01  0.00000000000E+00 0.  1.
</event>
<event>
 7    1  0.2706925E-010  0.4778727E+02  0.7816164E-02  0.1312668E+00
        -11   -1    0    0    0    0  0.00000000000E+00  0.00000000000E+00  0.45593999997E+02  0.45594000000E+02  0.51100000000E-03 0.  1.
         11   -1    0    0    0    0 -0.00000000000E+00 -0.00000000000E+00 -0.45593999997E+02  0.45594000000E+02  0.51100000000E-03 0. -1.
    9900012    2    1    2    0    0  0.33298482867E+02 -0.15136412934E+02  0.23360725426E+02  0.47787269014E+02  0.19999990741E+02 0.  0.
         12    1    1    2    0    0 -0.33298482867E+02  0.15136412934E+02 -0.23360725426E+02  0.43400730986E+02  0.00000000000E+00 0. -1.
         11    1    3    3    0    0  0.89130188302E+01 -0.98985655708E+01  0.14619802544E+02  0.19777819185E+02  0.51100000000E-03 0. -1.
        -11    1    3    3    0    0  0.22849519252E+02 -0.68905712095E+01  0.94131852259E+01  0.25655185791E+02  0.51100000000E-03 0.  1.
         12    1    3    3    0    0  0.15359447853E+01  0.16527238467E+01 -0.67226234480E+00  0.23542640373E+01  0.00000000000E+00 0. -1.
</event>
<event>
 7    1  0.2706925E-010  0.4778727E+02  0.7816164E-02  0.1312668E+00
        -11   -1    0    0    0    0  0.00000000000E+00  0.00000000000E+00  0.45593999997E+02  0.45594000000E+02  0.51100000000E-03 0.  1.
         11   -1    0    0    0    0 -0.00000000000E+00 -0.00000000000E+00 -0.45593999997E+02  0.45594000000E+02  0.51100000000E-03 0. -1.
    9900012    2    1    2    0    0  0.12509354260E+02 -0.15855677319E+02  0.38415319478E+02  0.47787271690E+02  0.20000002943E+02 0.  0.
         12    1    1    2    0    0 -0.12509354260E+02  0.15855677319E+02 -0.38415319478E+02  0.43400728310E+02  0.00000000000E+00 0. -1.
         11    1    3    3    0    0 -0.48064797362E+00 -0.35826588256E+01 -0.10186269377E-03  0.36147568392E+01  0.51100000000E-03 0. -1.
        -11    1    3    3    0    0  0.11259223878E+02 -0.20789933658E+01  0.19346854244E+02  0.22480949828E+02  0.51100000000E-03 0.  1.
         12    1    3    3    0    0  0.17307783553E+01 -0.10194025127E+02  0.19068567096E+02  0.21691565023E+02  0.00000000000E+00 0. -1.
</event>
<event>
 7    1  0.2706925E-010  0.4778726E+02  0.7816164E-02  0.1312668E+00
        -11   -1    0    0    0    0  0.00000000000E+00  0.00000000000E+00  0.45593999997E+02  0.45594000000E+02  0.51100000000E-03 0. -1.
         11   -1    0    0    0    0 -0.00000000000E+00 -0.00000000000E+00 -0.45593999997E+02  0.45594000000E+02  0.51100000000E-03 0.  1.
    9900012    2    1    2    0    0  0.40605938683E+01  0.41607206867E+02 -0.11660868225E+02  0.47787263444E+02  0.19999965345E+02 0.  0.
         12    1    1    2    0    0 -0.40605938683E+01 -0.41607206867E+02  0.11660868225E+02  0.43400736556E+02  0.00000000000E+00 0. -1.
         11    1    3    3    0    0  0.81544428314E+01  0.22181288212E+02 -0.10926652891E+02  0.26036440393E+02  0.51100000000E-03 0. -1.
        -11    1    3    3    0    0 -0.32849012939E+01  0.13020488583E+01 -0.73369929939E+00  0.36089087912E+01  0.51100000000E-03 0.  1.
         12    1    3    3    0    0 -0.80894766919E+00  0.18123869797E+02 -0.51603450455E-03  0.18141914260E+02  0.00000000000E+00 0. -1.
</event>
<event>
 7    1  0.2706925E-010  0.4778729E+02  0.7816164E-02  0.1312668E+00
        -11   -1    0    0    0    0  0.00000000000E+00  0.00000000000E+00  0.45593999997E+02  0.45594000000E+02  0.51100000000E-03 0.  1.
         11   -1    0    0    0    0 -0.00000000000E+00 -0.00000000000E+00 -0.45593999997E+02  0.45594000000E+02  0.51100000000E-03 0. -1.
    9900012    2    1    2    0    0  0.10047784789E+02  0.25123873758E+02  0.33933096506E+02  0.47787285141E+02  0.20000064273E+02 0.  0.
         12    1    1    2    0    0 -0.10047784789E+02 -0.25123873758E+02 -0.33933096506E+02  0.43400714859E+02  0.00000000000E+00 0. -1.
         11    1    3    3    0    0  0.95830898760E+01  0.10095910550E+02  0.11128594670E+02  0.17821577960E+02  0.51100000000E-03 0. -1.
        -11    1    3    3    0    0 -0.40940122576E+01  0.12463703628E+02  0.20291325152E+02  0.24162837606E+02  0.51100000000E-03 0.  1.
         12    1    3    3    0    0  0.45587071707E+01  0.25642595803E+01  0.25131766839E+01  0.58028695753E+01  0.00000000000E+00 0. -1.
</event>
<event>
 7    1  0.2706925E-010  0.4778727E+02  0.7816164E-02  0.1312668E+00
        -11   -1    0    0    0    0  0.00000000000E+00  0.00000000000E+00  0.45593999997E+02  0.45594000000E+02  0.51100000000E-03 0. -1.
         11   -1    0    0    0    0 -0.00000000000E+00 -0.00000000000E+00 -0.45593999997E+02  0.45594000000E+02  0.51100000000E-03 0.  1.
    9900012    2    1    2    0    0  0.27940398857E+02  0.29874303040E+02 -0.14508049755E+02  0.47787269844E+02  0.19999994527E+02 0.  0.
         12    1    1    2    0    0 -0.27940398857E+02 -0.29874303040E+02  0.14508049755E+02  0.43400730156E+02  0.00000000000E+00 0. -1.
         11    1    3    3    0    0  0.62023777481E+00 -0.58257677806E+00 -0.56569230640E+00  0.10218114534E+01  0.51100000000E-03 0. -1.
        -11    1    3    3    0    0  0.31798532417E+01  0.16342624841E+02 -0.59768574423E+01  0.17689422785E+02  0.51100000000E-03 0.  1.
        -12    1    3    3    0    0  0.24140307841E+02  0.14114254977E+02 -0.79655000059E+01  0.29076035606E+02  0.00000000000E+00 0.  1.
</event>
<event>
 7    1  0.2706925E-010  0.4778727E+02  0.7816164E-02  0.1312668E+00
        -11   -1    0    0    0    0  0.00000000000E+00  0.00000000000E+00  0.45593999997E+02  0.45594000000E+02  0.51100000000E-03 0.  1.
         11   -1    0    0    0    0 -0.00000000000E+00 -0.00000000000E+00 -0.45593999997E+02  0.45594000000E+02  0.51100000000E-03 0. -1.
    9900012    2    1    2    0    0 -0.31672805530E+02 -0.81218125907E+01  0.28539323340E+02  0.47787269284E+02  0.19999991976E+02 0.  0.
         12    1    1    2    0    0  0.31672805530E+02  0.81218125907E+01 -0.28539323340E+02  0.43400730716E+02  0.00000000000E+00 0. -1.
         11    1    3    3    0    0 -0.18274148501E+02 -0.44527112331E+01  0.61791747859E+01  0.19797811547E+02  0.51100000000E-03 0. -1.
        -11    1    3    3    0    0 -0.49610938948E+01 -0.28209828652E+01  0.17060037451E+02  0.17989310022E+02  0.51100000000E-03 0.  1.
        -12    1    3    3    0    0 -0.84375631347E+01 -0.84811849240E+00  0.53001111031E+01  0.10000147716E+02  0.00000000000E+00 0.  1.
</event>
<event>
 7    1  0.2706925E-010  0.4778727E+02  0.7816164E-02  0.1312668E+00
        -11   -1    0    0    0    0  0.00000000000E+00  0.00000000000E+00  0.45593999997E+02  0.45594000000E+02  0.51100000000E-03 0.  1.
         11   -1    0    0    0    0 -0.00000000000E+00 -0.00000000000E+00 -0.45593999997E+02  0.45594000000E+02  0.51100000000E-03 0. -1.
    9900012    2    1    2    0    0 -0.38982835338E+02 -0.59113813491E+01  0.18138840256E+02  0.47787269519E+02  0.19999993044E+02 0.  0.
         12    1    1    2    0    0  0.38982835338E+02  0.59113813491E+01 -0.18138840256E+02  0.43400730481E+02  0.00000000000E+00 0. -1.
         11    1    3    3    0    0 -0.13266680017E+02  0.44686698903E+01  0.12628761184E+02  0.18853631443E+02  0.51100000000E-03 0. -1.
        -11    1    3    3    0    0 -0.22497728989E+02 -0.73614288236E+01  0.61939954540E+01  0.24468429127E+02  0.51100000000E-03 0.  1.
         12    1    3    3    0    0 -0.32184263313E+01 -0.30186224158E+01 -0.68391638206E+00  0.44652089488E+01  0.00000000000E+00 0. -1.
</event>
<event>
 7    1  0.2706925E-010  0.4778727E+02  0.7816164E-02  0.1312668E+00
        -11   -1    0    0    0    0  0.00000000000E+00  0.00000000000E+00  0.45593999997E+02  0.45594000000E+02  0.51100000000E-03 0.  1.
         11   -1    0    0    0    0 -0.00000000000E+00 -0.00000000000E+00 -0.45593999997E+02  0.45594000000E+02  0.51100000000E-03 0. -1.
    9900012    2    1    2    0    0 -0.97904357473E+01  0.51867856766E+01  0.41962700158E+02  0.47787267491E+02  0.19999983798E+02 0.  0.
         12    1    1    2    0    0  0.97904357473E+01 -0.51867856766E+01 -0.41962700158E+02  0.43400732509E+02  0.00000000000E+00 0. -1.
         11    1    3    3    0    0 -0.10974836940E+02 -0.34966943760E+01  0.21257605905E+02  0.24177669997E+02  0.51100000000E-03 0. -1.
        -11    1    3    3    0    0  0.26888272386E+01  0.83333795713E+01  0.12509177276E+02  0.15269398265E+02  0.51100000000E-03 0.  1.
         12    1    3    3    0    0 -0.15044260458E+01  0.35010048125E+00  0.81959169777E+01  0.83401992290E+01  0.00000000000E+00 0. -1.
</event>
<event>
 7    1  0.2706925E-010  0.4778727E+02  0.7816164E-02  0.1312668E+00
        -11   -1    0    0    0    0  0.00000000000E+00  0.00000000000E+00  0.45593999997E+02  0.45594000000E+02  0.51100000000E-03 0. -1.
         11   -1    0    0    0    0 -0.00000000000E+00 -0.00000000000E+00 -0.45593999997E+02  0.45594000000E+02  0.51100000000E-03 0.  1.
    9900012    2    1    2    0    0  0.42035545002E+02  0.97016686986E+01 -0.47448762662E+01  0.47787271090E+02  0.20000000206E+02 0.  0.
         12    1    1    2    0    0 -0.42035545002E+02 -0.97016686986E+01  0.47448762662E+01  0.43400728910E+02  0.00000000000E+00 0. -1.
         11    1    3    3    0    0  0.22691542819E+02  0.59193661143E+01  0.67680758858E+01  0.24408028641E+02  0.51100000000E-03 0. -1.
        -11    1    3    3    0    0  0.80558264435E+01  0.72912168615E+00 -0.74582578400E+01  0.11002434657E+02  0.51100000000E-03 0.  1.
         12    1    3    3    0    0  0.11288175740E+02  0.30531808982E+01 -0.40546943120E+01  0.12376807791E+02  0.00000000000E+00 0. -1.
</event>
<event>
 7    1  0.2706925E-010  0.4778727E+02  0.7816164E-02  0.1312668E+00
        -11   -1    0    0    0    0  0.00000000000E+00  0.00000000000E+00  0.45593999997E+02  0.45594000000E+02  0.51100000000E-03 0. -1.
         11   -1    0    0    0    0 -0.00000000000E+00 -0.00000000000E+00 -0.45593999997E+02  0.45594000000E+02  0.51100000000E-03 0.  1.
    9900012    2    1    2    0    0  0.15102023698E+02  0.39819599428E+02 -0.83637254157E+01  0.47787268195E+02  0.19999987010E+02 0.  0.
         12    1    1    2    0    0 -0.15102023698E+02 -0.39819599428E+02  0.83637254157E+01  0.43400731805E+02  0.00000000000E+00 0. -1.
         11    1    3    3    0    0  0.11700886085E+02  0.19550996416E+02  0.47849843599E+00  0.22789935433E+02  0.51100000000E-03 0. -1.
        -11    1    3    3    0    0 -0.39987685253E+01  0.87771250307E+01 -0.46022084600E+01  0.10686832856E+02  0.51100000000E-03 0.  1.
        -12    1    3    3    0    0  0.73999061382E+01  0.11491477981E+02 -0.42400153917E+01  0.14310499906E+02  0.00000000000E+00 0.  1.
</event>
<event>
 7    1  0.2706925E-010  0.4778728E+02  0.7816164E-02  0.1312668E+00
        -11   -1    0    0    0    0  0.00000000000E+00  0.00000000000E+00  0.45593999997E+02  0.45594000000E+02  0.51100000000E-03 0.  1.
         11   -1    0    0    0    0 -0.00000000000E+00 -0.00000000000E+00 -0.45593999997E+02  0.45594000000E+02  0.51100000000E-03 0. -1.
    9900012    2    1    2    0    0  0.53221375283E+01  0.42900036414E+02  0.38579736087E+01  0.47787283041E+02  0.20000054697E+02 0.  0.
         12    1    1    2    0    0 -0.53221375283E+01 -0.42900036414E+02 -0.38579736087E+01  0.43400716959E+02  0.00000000000E+00 0. -1.
         11    1    3    3    0    0 -0.53229497607E+01  0.11787615404E+02  0.16057268892E+01  0.13033036107E+02  0.51100000000E-03 0. -1.
        -11    1    3    3    0    0  0.77450376561E+01  0.23038350977E+02 -0.33101008764E+01  0.24529736895E+02  0.51100000000E-03 0.  1.
        -12    1    3    3    0    0  0.29000496330E+01  0.80740700329E+01  0.55623475959E+01  0.10224510039E+02  0.00000000000E+00 0.  1.
</event>
<event>
 7    1  0.2706925E-010  0.4778726E+02  0.7816164E-02  0.1312668E+00
        -11   -1    0    0    0    0  0.00000000000E+00  0.00000000000E+00  0.45593999997E+02  0.45594000000E+02  0.51100000000E-03 0. -1.
         11   -1    0    0    0    0 -0.00000000000E+00 -0.00000000000E+00 -0.45593999997E+02  0.45594000000E+02  0.51100000000E-03 0.  1.
    9900012    2    1    2    0    0 -0.17251230754E+02  0.51257352409E+01 -0.39493615891E+02  0.47787264748E+02  0.19999971290E+02 0.  0.
         12    1    1    2    0    0  0.17251230754E+02 -0.51257352409E+01  0.39493615891E+02  0.43400735252E+02  0.00000000000E+00 0. -1.
         11    1    3    3    0    0 -0.11920743572E+01  0.52491819919E+01 -0.13152900859E+02  0.14211747047E+02  0.51100000000E-03 0. -1.
        -11    1    3    3    0    0 -0.15181197619E+02  0.59181283320E+00 -0.12459983546E+02  0.19648669009E+02  0.51100000000E-03 0.  1.
        -12    1    3    3    0    0 -0.87795877689E+00 -0.71525958422E+00 -0.13880731487E+02  0.13926848692E+02  0.00000000000E+00 0.  1.
</event>
<event>
 7    1  0.2706925E-010  0.4778727E+02  0.7816164E-02  0.1312668E+00
        -11   -1    0    0    0    0  0.00000000000E+00  0.00000000000E+00  0.45593999997E+02  0.45594000000E+02  0.51100000000E-03 0.  1.
         11   -1    0    0    0    0 -0.00000000000E+00 -0.00000000000E+00 -0.45593999997E+02  0.45594000000E+02  0.51100000000E-03 0. -1.
    9900012    2    1    2    0    0  0.27423881275E+02  0.64123117730E+01  0.33021756333E+02  0.47787269617E+02  0.19999993491E+02 0.  0.
         12    1    1    2    0    0 -0.27423881275E+02 -0.64123117730E+01 -0.33021756333E+02  0.43400730383E+02  0.00000000000E+00 0. -1.
         11    1    3    3    0    0  0.11877402509E+02 -0.56595738440E+00  0.79905904110E+01  0.14326288197E+02  0.51100000000E-03 0. -1.
        -11    1    3    3    0    0  0.14055161878E+02  0.92450851992E+01  0.25652970840E+02  0.30677256867E+02  0.51100000000E-03 0.  1.
        -12    1    3    3    0    0  0.14913168884E+01 -0.22668160418E+01 -0.62180491732E+00  0.27837245525E+01  0.00000000000E+00 0.  1.
</event>
<event>
 7    1  0.2706925E-010  0.4778727E+02  0.7816164E-02  0.1312668E+00
        -11   -1    0    0    0    0  0.00000000000E+00  0.00000000000E+00  0.45593999997E+02  0.45594000000E+02  0.51100000000E-03 0.  1.
         11   -1    0    0    0    0 -0.00000000000E+00 -0.00000000000E+00 -0.45593999997E+02  0.45594000000E+02  0.51100000000E-03 0. -1.
    9900012    2    1    2    0    0 -0.15126913465E+01  0.90394335483E+01  0.42421974064E+02  0.47787268699E+02  0.19999989307E+02 0.  0.
         12    1    1    2    0    0  0.15126913465E+01 -0.90394335483E+01 -0.42421974064E+02  0.43400731301E+02  0.00000000000E+00 0. -1.
         11    1    3    3    0    0 -0.79131610374E+01  0.30591204469E+01  0.18006633466E+02  0.19905154723E+02  0.51100000000E-03 0. -1.
        -11    1    3    3    0    0  0.33943431932E+01  0.85635391369E+01  0.14215032368E+02  0.16938799064E+02  0.51100000000E-03 0.  1.
         12    1    3    3    0    0  0.30061264977E+01 -0.25832260355E+01  0.10200308230E+02  0.10943314912E+02  0.00000000000E+00 0. -1.
</event>
<event>
 7    1  0.2706925E-010  0.4778728E+02  0.7816164E-02  0.1312668E+00
        -11   -1    0    0    0    0  0.00000000000E+00  0.00000000000E+00  0.45593999997E+02  0.45594000000E+02  0.51100000000E-03 0.  1.
         11   -1    0    0    0    0 -0.00000000000E+00 -0.00000000000E+00 -0.45593999997E+02  0.45594000000E+02  0.51100000000E-03 0. -1.
    9900012    2    1    2    0    0  0.10958639669E+02 -0.35255255452E+02  0.22816612179E+02  0.47787278673E+02  0.20000034780E+02 0.  0.
         12    1    1    2    0    0 -0.10958639669E+02  0.35255255452E+02 -0.22816612179E+02  0.43400721327E+02  0.00000000000E+00 0. -1.
         11    1    3    3    0    0 -0.30140468808E+01 -0.36802844738E+01  0.63618270276E+01  0.79436651363E+01  0.51100000000E-03 0. -1.
        -11    1    3    3    0    0  0.73035332720E+01 -0.19148431962E+02  0.36939037705E+01  0.20824239967E+02  0.51100000000E-03 0.  1.
         12    1    3    3    0    0  0.66691532774E+01 -0.12426539016E+02  0.12760881381E+02  0.19019373570E+02  0.00000000000E+00 0. -1.
</event>
<event>
 7    1  0.2706925E-010  0.4778727E+02  0.7816164E-02  0.1312668E+00
        -11   -1    0    0    0    0  0.00000000000E+00  0.00000000000E+00  0.45593999997E+02  0.45594000000E+02  0.51100000000E-03 0. -1.
         11   -1    0    0    0    0 -0.00000000000E+00 -0.00000000000E+00 -0.45593999997E+02  0.45594000000E+02  0.51100000000E-03 0.  1.
    9900012    2    1    2    0    0 -0.32788573343E+02 -0.26294946454E+02 -0.10821671037E+02  0.47787270571E+02  0.19999997842E+02 0.  0.
         12    1    1    2    0    0  0.32788573343E+02  0.26294946454E+02  0.10821671037E+02  0.43400729429E+02  0.00000000000E+00 0. -1.
         11    1    3    3    0    0 -0.16417835934E+02 -0.19760888918E+02 -0.41070732149E+01  0.26017419515E+02  0.51100000000E-03 0. -1.
        -11    1    3    3    0    0 -0.15593115400E+02 -0.47891162452E+01 -0.16959613843E+01  0.16399913645E+02  0.51100000000E-03 0.  1.
        -12    1    3    3    0    0 -0.77762200944E+00 -0.17449412912E+01 -0.50186364382E+01  0.53699374110E+01  0.00000000000E+00 0.  1.
</event>
<event>
 7    1  0.2706925E-010  0.4778727E+02  0.7816164E-02  0.1312668E+00
        -11   -1    0    0    0    0  0.00000000000E+00  0.00000000000E+00  0.45593999997E+02  0.45594000000E+02  0.51100000000E-03 0.  1.
         11   -1    0    0    0    0 -0.00000000000E+00 -0.00000000000E+00 -0.45593999997E+02  0.45594000000E+02  0.51100000000E-03 0. -1.
    9900012    2    1    2    0    0 -0.13230434792E+02 -0.22958100084E+02  0.34373020355E+02  0.47787270829E+02  0.19999999018E+02 0.  0.
         12    1    1    2    0    0  0.13230434792E+02  0.22958100084E+02 -0.34373020355E+02  0.43400729171E+02  0.00000000000E+00 0. -1.
         11    1    3    3    0    0  0.27490188680E+01 -0.21613740238E+01  0.77598433420E+01  0.85113930329E+01  0.51100000000E-03 0. -1.
        -11    1    3    3    0    0 -0.13652534327E+02 -0.15789153295E+02  0.13012532246E+02  0.24597053707E+02  0.51100000000E-03 0.  1.
        -12    1    3    3    0    0 -0.23269193323E+01 -0.50075727653E+01  0.13600644767E+02  0.14678824089E+02  0.00000000000E+00 0.  1.
</event>
<event>
 7    1  0.2706925E-010  0.4778728E+02  0.7816164E-02  0.1312668E+00
        -11   -1    0    0    0    0  0.00000000000E+00  0.00000000000E+00  0.45593999997E+02  0.45594000000E+02  0.51100000000E-03 0.  1.
         11   -1    0    0    0    0 -0.00000000000E+00 -0.00000000000E+00 -0.45593999997E+02  0.45594000000E+02  0.51100000000E-03 0. -1.
    9900012    2    1    2    0    0 -0.21489180213E+02  0.12250980575E+02  0.35661618171E+02  0.47787281091E+02  0.20000045806E+02 0.  0.
         12    1    1    2    0    0  0.21489180213E+02 -0.12250980575E+02 -0.35661618171E+02  0.43400718909E+02  0.00000000000E+00 0. -1.
         11    1    3    3    0    0  0.16607362581E+01  0.92936267943E+00  0.10334016233E+01  0.21655666892E+01  0.51100000000E-03 0. -1.
        -11    1    3    3    0    0 -0.24049832425E+02  0.12859054792E+02  0.34282814324E+02  0.43807089473E+02  0.51100000000E-03 0.  1.
        -12    1    3    3    0    0  0.89991595418E+00 -0.15374368973E+01  0.34540222376E+00  0.18146249293E+01  0.00000000000E+00 0.  1.
</event>
<event>
 7    1  0.2706925E-010  0.4778727E+02  0.7816164E-02  0.1312668E+00
        -11   -1    0    0    0    0  0.00000000000E+00  0.00000000000E+00  0.45593999997E+02  0.45594000000E+02  0.51100000000E-03 0. -1.
         11   -1    0    0    0    0 -0.00000000000E+00 -0.00000000000E+00 -0.45593999997E+02  0.45594000000E+02  0.51100000000E-03 0.  1.
    9900012    2    1    2    0    0  0.72760703298E+01  0.38349245355E+02 -0.18974121907E+02  0.47787272807E+02  0.20000008035E+02 0.  0.
         12    1    1    2    0    0 -0.72760703298E+01 -0.38349245355E+02  0.18974121907E+02  0.43400727193E+02  0.00000000000E+00 0. -1.
         11    1    3    3    0    0  0.43997039614E+01  0.31549371957E+01  0.26835313766E+01  0.60425461990E+01  0.51100000000E-03 0. -1.
        -11    1    3    3    0    0  0.78397387222E+00  0.23641781185E+02 -0.16925492992E+02  0.29086435772E+02  0.51100000000E-03 0.  1.
        -12    1    3    3    0    0  0.20923924962E+01  0.11552526975E+02 -0.47321602911E+01  0.12658290836E+02  0.00000000000E+00 0.  1.
</event>
<event>
 7    1  0.2706925E-010  0.4778728E+02  0.7816164E-02  0.1312668E+00
        -11   -1    0    0    0    0  0.00000000000E+00  0.00000000000E+00  0.45593999997E+02  0.45594000000E+02  0.51100000000E-03 0.  1.
         11   -1    0    0    0    0 -0.00000000000E+00 -0.00000000000E+00 -0.45593999997E+02  0.45594000000E+02  0.51100000000E-03 0. -1.
    9900012    2    1    2    0    0 -0.17900288043E+02  0.36203171583E+02 -0.15891284961E+02  0.47787275555E+02  0.20000020565E+02 0.  0.
         12    1    1    2    0    0  0.17900288043E+02 -0.36203171583E+02  0.15891284961E+02  0.43400724445E+02  0.00000000000E+00 0. -1.
         11    1    3    3    0    0 -0.16952511679E+02  0.29485742989E+02 -0.11931677108E+02  0.36043884511E+02  0.51100000000E-03 0. -1.
        -11    1    3    3    0    0  0.16292126540E+01  0.58856083979E+01  0.90719922975E+00  0.61739558461E+01  0.51100000000E-03 0.  1.
         12    1    3    3    0    0 -0.25769890187E+01  0.83182019605E+00 -0.48668070824E+01  0.55694351975E+01  0.00000000000E+00 0. -1.
</event>
<event>
 7    1  0.2706925E-010  0.4778725E+02  0.7816164E-02  0.1312668E+00
        -11   -1    0    0    0    0  0.00000000000E+00  0.00000000000E+00  0.45593999997E+02  0.45594000000E+02  0.51100000000E-03 0.  1.
         11   -1    0    0    0    0 -0.00000000000E+00 -0.00000000000E+00 -0.45593999997E+02  0.45594000000E+02  0.51100000000E-03 0. -1.
    9900012    2    1    2    0    0 -0.80169619697E+01  0.17865279915E+02  0.38732225920E+02  0.47787248504E+02  0.19999897229E+02 0.  0.
         12    1    1    2    0    0  0.80169619697E+01 -0.17865279915E+02 -0.38732225920E+02  0.43400751496E+02  0.00000000000E+00 0. -1.
         11    1    3    3    0    0 -0.86569056068E+01  0.11565426252E+02  0.21124274150E+02  0.25591718538E+02  0.51100000000E-03 0.  1.
        -11    1    3    3    0    0  0.60472274419E+00  0.18392776683E+01 -0.15780650957E+01  0.24977833465E+01  0.51100000000E-03 0. -1.
        -12    1    3    3    0    0  0.35220892915E-01  0.44605759944E+01  0.19186016866E+02  0.19697746620E+02  0.00000000000E+00 0.  1.
</event>
<event>
 7    1  0.2706925E-010  0.4778727E+02  0.7816164E-02  0.1312668E+00
        -11   -1    0    0    0    0  0.00000000000E+00  0.00000000000E+00  0.45593999997E+02  0.45594000000E+02  0.51100000000E-03 0. -1.
         11   -1    0    0    0    0 -0.00000000000E+00 -0.00000000000E+00 -0.45593999997E+02  0.45594000000E+02  0.51100000000E-03 0.  1.
    9900012    2    1    2    0    0 -0.38404795037E+02  0.16826025307E+02 -0.11206243061E+02  0.47787270824E+02  0.19999998996E+02 0.  0.
         12    1    1    2    0    0  0.38404795037E+02 -0.16826025307E+02  0.11206243061E+02  0.43400729176E+02  0.00000000000E+00 0. -1.
         11    1    3    3    0    0 -0.86467249026E+01 -0.36501484329E+00 -0.72232280190E+01  0.11272715318E+02  0.51100000000E-03 0. -1.
        -11    1    3    3    0    0 -0.12021616770E+02  0.94464328441E+01  0.36357326535E+01  0.15715371947E+02  0.51100000000E-03 0.  1.
        -12    1    3    3    0    0 -0.17736453364E+02  0.77446073060E+01 -0.76187476957E+01  0.20799183559E+02  0.00000000000E+00 0.  1.
</event>
<event>
 7    1  0.2706925E-010  0.4778726E+02  0.7816164E-02  0.1312668E+00
        -11   -1    0    0    0    0  0.00000000000E+00  0.00000000000E+00  0.45593999997E+02  0.45594000000E+02  0.51100000000E-03 0. -1.
         11   -1    0    0    0    0 -0.00000000000E+00 -0.00000000000E+00 -0.45593999997E+02  0.45594000000E+02  0.51100000000E-03 0.  1.
    9900012    2    1    2    0    0 -0.25678725520E+02 -0.32576354232E+02 -0.12767466490E+02  0.47787262679E+02  0.19999961859E+02 0.  0.
         12    1    1    2    0    0  0.25678725520E+02  0.32576354232E+02  0.12767466490E+02  0.43400737321E+02  0.00000000000E+00 0. -1.
         11    1    3    3    0    0 -0.10988715437E+02 -0.57878620250E+01  0.14383474983E+01  0.12502801989E+02  0.51100000000E-03 0. -1.
        -11    1    3    3    0    0 -0.14601151320E+02 -0.27634405195E+02 -0.13099086327E+02  0.33888641655E+02  0.51100000000E-03 0.  1.
         12    1    3    3    0    0 -0.88858762873E-01  0.84591298795E+00 -0.11067276612E+01  0.13958190352E+01  0.00000000000E+00 0. -1.
</event>
<event>
 7    1  0.2706925E-010  0.4778727E+02  0.7816164E-02  0.1312668E+00
        -11   -1    0    0    0    0  0.00000000000E+00  0.00000000000E+00  0.45593999997E+02  0.45594000000E+02  0.51100000000E-03 0.  1.
         11   -1    0    0    0    0 -0.00000000000E+00 -0.00000000000E+00 -0.45593999997E+02  0.45594000000E+02  0.51100000000E-03 0. -1.
    9900012    2    1    2    0    0  0.82627657080E+01  0.17687295564E+02  0.38762219378E+02  0.47787269906E+02  0.19999994811E+02 0.  0.
         12    1    1    2    0    0 -0.82627657080E+01 -0.17687295564E+02 -0.38762219378E+02  0.43400730094E+02  0.00000000000E+00 0. -1.
         11    1    3    3    0    0  0.39881441056E+01  0.38698661763E+01  0.86540439391E+00  0.56240628247E+01  0.51100000000E-03 0. -1.
        -11    1    3    3    0    0  0.41348290869E+01  0.15650112500E+02  0.30362161125E+02  0.34407610514E+02  0.51100000000E-03 0.  1.
        -12    1    3    3    0    0  0.13979251542E+00 -0.18326831118E+01  0.75346538597E+01  0.77555965678E+01  0.00000000000E+00 0.  1.
</event>
<event>
 7    1  0.2706925E-010  0.4778728E+02  0.7816164E-02  0.1312668E+00
        -11   -1    0    0    0    0  0.00000000000E+00  0.00000000000E+00  0.45593999997E+02  0.45594000000E+02  0.51100000000E-03 0.  1.
         11   -1    0    0    0    0 -0.00000000000E+00 -0.00000000000E+00 -0.45593999997E+02  0.45594000000E+02  0.51100000000E-03 0. -1.
    9900012    2    1    2    0    0 -0.26758123626E+02  0.56348338302E+01  0.33702735096E+02  0.47787275522E+02  0.20000020414E+02 0.  0.
         12    1    1    2    0    0  0.26758123626E+02 -0.56348338302E+01 -0.33702735096E+02  0.43400724478E+02  0.00000000000E+00 0. -1.
         11    1    3    3    0    0 -0.78747450481E+00  0.20127226741E+00  0.88234687569E+01  0.88608254574E+01  0.51100000000E-03 0. -1.
        -11    1    3    3    0    0 -0.16143672715E+02 -0.34123706525E+01  0.11473443731E+02  0.20097322048E+02  0.51100000000E-03 0.  1.
        -12    1    3    3    0    0 -0.98269764062E+01  0.88459322152E+01  0.13405822608E+02  0.18829128016E+02  0.00000000000E+00 0.  1.
</event>
<event>
 7    1  0.2706925E-010  0.4778727E+02  0.7816164E-02  0.1312668E+00
        -11   -1    0    0    0    0  0.00000000000E+00  0.00000000000E+00  0.45593999997E+02  0.45594000000E+02  0.51100000000E-03 0. -1.
         11   -1    0    0    0    0 -0.00000000000E+00 -0.00000000000E+00 -0.45593999997E+02  0.45594000000E+02  0.51100000000E-03 0.  1.
    9900012    2    1    2    0    0  0.34104697680E+01  0.36803018372E+02  0.22749287598E+02  0.47787267845E+02  0.19999985413E+02 0.  0.
         12    1    1    2    0    0 -0.34104697680E+01 -0.36803018372E+02 -0.22749287598E+02  0.43400732155E+02  0.00000000000E+00 0. -1.
         11    1    3    3    0    0 -0.92542794477E+00  0.99731113816E+00  0.17606313031E+01  0.22250548833E+01  0.51100000000E-03 0. -1.
        -11    1    3    3    0    0 -0.12902926626E+01  0.23701891187E+02  0.41859593534E+01  0.24103252000E+02  0.51100000000E-03 0.  1.
        -12    1    3    3    0    0  0.56261903754E+01  0.12103816047E+02  0.16802696942E+02  0.21458960962E+02  0.00000000000E+00 0.  1.
</event>
<event>
 7    1  0.2706925E-010  0.4778726E+02  0.7816164E-02  0.1312668E+00
        -11   -1    0    0    0    0  0.00000000000E+00  0.00000000000E+00  0.45593999997E+02  0.45594000000E+02  0.51100000000E-03 0.  1.
         11   -1    0    0    0    0 -0.00000000000E+00 -0.00000000000E+00 -0.45593999997E+02  0.45594000000E+02  0.51100000000E-03 0. -1.
    9900012    2    1    2    0    0 -0.15935981717E+02  0.51324473791E+00  0.40365896771E+02  0.47787256278E+02  0.19999932676E+02 0.  0.
         12    1    1    2    0    0  0.15935981717E+02 -0.51324473791E+00 -0.40365896771E+02  0.43400743722E+02  0.00000000000E+00 0. -1.
         11    1    3    3    0    0 -0.68832237897E+01 -0.76524978749E+01  0.16917001915E+02  0.19802132398E+02  0.51100000000E-03 0.  1.
        -11    1    3    3    0    0 -0.39350699551E+01  0.65456480806E-01  0.18344233831E+01  0.43421388177E+01  0.51100000000E-03 0. -1.
         12    1    3    3    0    0 -0.51176879724E+01  0.81002861321E+01  0.21614471473E+02  0.23642985062E+02  0.00000000000E+00 0. -1.
</event>
<event>
 7    1  0.2706925E-010  0.4778728E+02  0.7816164E-02  0.1312668E+00
        -11   -1    0    0    0    0  0.00000000000E+00  0.00000000000E+00  0.45593999997E+02  0.45594000000E+02  0.51100000000E-03 0.  1.
         11   -1    0    0    0    0 -0.00000000000E+00 -0.00000000000E+00 -0.45593999997E+02  0.45594000000E+02  0.51100000000E-03 0. -1.
    9900012    2    1    2    0    0  0.35708538259E+02 -0.24666293518E+02  0.31137822907E+00  0.47787277691E+02  0.20000030306E+02 0.  0.
         12    1    1    2    0    0 -0.35708538259E+02  0.24666293518E+02 -0.31137822907E+00  0.43400722309E+02  0.00000000000E+00 0. -1.
         11    1    3    3    0    0 -0.26971546343E+00 -0.14744394739E+01 -0.54757842127E+00  0.15957946553E+01  0.51100000000E-03 0. -1.
        -11    1    3    3    0    0  0.10087629388E+02 -0.49544572770E+01 -0.74088910576E+01  0.13461002212E+02  0.51100000000E-03 0.  1.
        -12    1    3    3    0    0  0.25890624334E+02 -0.18237396767E+02  0.82678477079E+01  0.32730480824E+02  0.00000000000E+00 0.  1.
</event>
<event>
 7    1  0.2706925E-010  0.4778727E+02  0.7816164E-02  0.1312668E+00
        -11   -1    0    0    0    0  0.00000000000E+00  0.00000000000E+00  0.45593999997E+02  0.45594000000E+02  0.51100000000E-03 0. -1.
         11   -1    0    0    0    0 -0.00000000000E+00 -0.00000000000E+00 -0.45593999997E+02  0.45594000000E+02  0.51100000000E-03 0.  1.
    9900012    2    1    2    0    0  0.14935228341E+02  0.32026436424E+02 -0.25196619548E+02  0.47787270602E+02  0.19999997983E+02 0.  0.
         12    1    1    2    0    0 -0.14935228341E+02 -0.32026436424E+02  0.25196619548E+02  0.43400729398E+02  0.00000000000E+00 0. -1.
         11    1    3    3    0    0  0.31216754629E+01  0.77055619703E+01 -0.95114915069E+01  0.12632854544E+02  0.51100000000E-03 0. -1.
        -11    1    3    3    0    0 -0.30497792296E+01  0.11246341596E+02 -0.53215988584E+01  0.12810182173E+02  0.51100000000E-03 0.  1.
        -12    1    3    3    0    0  0.14863332108E+02  0.13074532858E+02 -0.10363529183E+02  0.22344233885E+02  0.00000000000E+00 0.  1.
</event>
<event>
 7    1  0.2706925E-010  0.4778727E+02  0.7816164E-02  0.1312668E+00
        -11   -1    0    0    0    0  0.00000000000E+00  0.00000000000E+00  0.45593999997E+02  0.45594000000E+02  0.51100000000E-03 0.  1.
         11   -1    0    0    0    0 -0.00000000000E+00 -0.00000000000E+00 -0.45593999997E+02  0.45594000000E+02  0.51100000000E-03 0. -1.
    9900012    2    1    2    0    0  0.11957804928E+02 -0.41447206038E+02 -0.47710804454E+01  0.47787271946E+02  0.20000004109E+02 0.  0.
         12    1    1    2    0    0 -0.11957804928E+02  0.41447206038E+02  0.47710804454E+01  0.43400728054E+02  0.00000000000E+00 0. -1.
         11    1    3    3    0    0 -0.18728219705E+01 -0.13550299510E+02 -0.11921922412E+01  0.13730965063E+02  0.51100000000E-03 0. -1.
        -11    1    3    3    0    0  0.11746850519E+02 -0.24385933254E+02  0.20017401700E+01  0.27141650682E+02  0.51100000000E-03 0.  1.
        -12    1    3    3    0    0  0.20837763792E+01 -0.35109732741E+01 -0.55806283742E+01  0.69146562012E+01  0.00000000000E+00 0.  1.
</event>
<event>
 7    1  0.2706925E-010  0.4778727E+02  0.7816164E-02  0.1312668E+00
        -11   -1    0    0    0    0  0.00000000000E+00  0.00000000000E+00  0.45593999997E+02  0.45594000000E+02  0.51100000000E-03 0.  1.
         11   -1    0    0    0    0 -0.00000000000E+00 -0.00000000000E+00 -0.45593999997E+02  0.45594000000E+02  0.51100000000E-03 0. -1.
    9900012    2    1    2    0    0  0.24606312546E+01 -0.12450714765E+02  0.41503589821E+02  0.47787274518E+02  0.20000015839E+02 0.  0.
         12    1    1    2    0    0 -0.24606312546E+01  0.12450714765E+02 -0.41503589821E+02  0.43400725482E+02  0.00000000000E+00 0. -1.
         11    1    3    3    0    0 -0.64296580202E+01 -0.40102962397E+01  0.56569948407E+01  0.94564564756E+01  0.51100000000E-03 0. -1.
        -11    1    3    3    0    0  0.61376854025E+01 -0.82663363858E+01  0.31866571198E+02  0.33488533254E+02  0.51100000000E-03 0.  1.
        -12    1    3    3    0    0  0.27526038723E+01 -0.17408213943E+00  0.39800237823E+01  0.48422847889E+01  0.00000000000E+00 0.  1.
</event>
<event>
 7    1  0.2706925E-010  0.4778727E+02  0.7816164E-02  0.1312668E+00
        -11   -1    0    0    0    0  0.00000000000E+00  0.00000000000E+00  0.45593999997E+02  0.45594000000E+02  0.51100000000E-03 0.  1.
         11   -1    0    0    0    0 -0.00000000000E+00 -0.00000000000E+00 -0.45593999997E+02  0.45594000000E+02  0.51100000000E-03 0. -1.
    9900012    2    1    2    0    0  0.42667851434E+02 -0.64852325337E+01  0.45847229914E+01  0.47787268763E+02  0.19999989597E+02 0.  0.
         12    1    1    2    0    0 -0.42667851434E+02  0.64852325337E+01 -0.45847229914E+01  0.43400731237E+02  0.00000000000E+00 0. -1.
         11    1    3    3    0    0  0.29516282259E+01  0.41327977100E+01  0.38278712776E+01  0.63596167239E+01  0.51100000000E-03 0. -1.
        -11    1    3    3    0    0  0.33019832541E+02 -0.10503389339E+02  0.15420302606E+01  0.34684411285E+02  0.51100000000E-03 0.  1.
         12    1    3    3    0    0  0.66963906677E+01 -0.11464090447E+00 -0.78517854685E+00  0.67432407536E+01  0.00000000000E+00 0. -1.
</event>
<event>
 7    1  0.2706925E-010  0.4778729E+02  0.7816164E-02  0.1312668E+00
        -11   -1    0    0    0    0  0.00000000000E+00  0.00000000000E+00  0.45593999997E+02  0.45594000000E+02  0.51100000000E-03 0. -1.
         11   -1    0    0    0    0 -0.00000000000E+00 -0.00000000000E+00 -0.45593999997E+02  0.45594000000E+02  0.51100000000E-03 0.  1.
    9900012    2    1    2    0    0 -0.22274832880E+02  0.19786527140E+02 -0.31558629195E+02  0.47787286725E+02  0.20000071493E+02 0.  0.
         12    1    1    2    0    0  0.22274832880E+02 -0.19786527140E+02  0.31558629195E+02  0.43400713275E+02  0.00000000000E+00 0. -1.
         11    1    3    3    0    0 -0.51744103643E+01  0.12434108194E+02 -0.16004516970E+02  0.20917125350E+02  0.51100000000E-03 0. -1.
        -11    1    3    3    0    0 -0.10003602971E+02  0.75593575806E+00 -0.20332475841E+01  0.10236093359E+02  0.51100000000E-03 0.  1.
        -12    1    3    3    0    0 -0.70968195452E+01  0.65964831884E+01 -0.13520864641E+02  0.16634068016E+02  0.00000000000E+00 0.  1.
</event>
<event>
 7    1  0.2706925E-010  0.4778727E+02  0.7816164E-02  0.1312668E+00
        -11   -1    0    0    0    0  0.00000000000E+00  0.00000000000E+00  0.45593999997E+02  0.45594000000E+02  0.51100000000E-03 0.  1.
         11   -1    0    0    0    0 -0.00000000000E+00 -0.00000000000E+00 -0.45593999997E+02  0.45594000000E+02  0.51100000000E-03 0. -1.
    9900012    2    1    2    0    0  0.20202890437E+02 -0.33112997730E+02  0.19467813690E+02  0.47787272235E+02  0.20000005427E+02 0.  0.
         12    1    1    2    0    0 -0.20202890437E+02  0.33112997730E+02 -0.19467813690E+02  0.43400727765E+02  0.00000000000E+00 0. -1.
         11    1    3    3    0    0  0.46245384755E+01 -0.18996323510E+02  0.95276380567E+01  0.21749081595E+02  0.51100000000E-03 0. -1.
        -11    1    3    3    0    0  0.42040158898E+01 -0.10311890152E+02  0.83938541549E+01  0.13945092898E+02  0.51100000000E-03 0.  1.
         12    1    3    3    0    0  0.11374336072E+02 -0.38047840678E+01  0.15463214783E+01  0.12093097742E+02  0.00000000000E+00 0. -1.
</event>
<event>
 7    1  0.2706925E-010  0.4778727E+02  0.7816164E-02  0.1312668E+00
        -11   -1    0    0    0    0  0.00000000000E+00  0.00000000000E+00  0.45593999997E+02  0.45594000000E+02  0.51100000000E-03 0.  1.
         11   -1    0    0    0    0 -0.00000000000E+00 -0.00000000000E+00 -0.45593999997E+02  0.45594000000E+02  0.51100000000E-03 0. -1.
    9900012    2    1    2    0    0 -0.10293155136E+02  0.47220405958E+01  0.41897212554E+02  0.47787272704E+02  0.20000007567E+02 0.  0.
         12    1    1    2    0    0  0.10293155136E+02 -0.47220405958E+01 -0.41897212554E+02  0.43400727296E+02  0.00000000000E+00 0. -1.
         11    1    3    3    0    0 -0.57944960609E+01 -0.38464147754E+01  0.45216636392E+01  0.82955731298E+01  0.51100000000E-03 0. -1.
        -11    1    3    3    0    0  0.12103570656E+01  0.28027886768E+01  0.20950981976E+02  0.21172251525E+02  0.51100000000E-03 0.  1.
        -12    1    3    3    0    0 -0.57090161406E+01  0.57656666944E+01  0.16424566938E+02  0.18319448049E+02  0.00000000000E+00 0.  1.
</event>
<event>
 7    1  0.2706925E-010  0.4778727E+02  0.7816164E-02  0.1312668E+00
        -11   -1    0    0    0    0  0.00000000000E+00  0.00000000000E+00  0.45593999997E+02  0.45594000000E+02  0.51100000000E-03 0.  1.
         11   -1    0    0    0    0 -0.00000000000E+00 -0.00000000000E+00 -0.45593999997E+02  0.45594000000E+02  0.51100000000E-03 0. -1.
    9900012    2    1    2    0    0 -0.78815906549E+01 -0.94119545429E+01  0.41628343129E+02  0.47787270614E+02  0.19999998038E+02 0.  0.
         12    1    1    2    0    0  0.78815906549E+01  0.94119545429E+01 -0.41628343129E+02  0.43400729386E+02  0.00000000000E+00 0. -1.
         11    1    3    3    0    0 -0.32268009937E+01  0.45375977067E+01  0.14352696463E+02  0.15394867120E+02  0.51100000000E-03 0. -1.
        -11    1    3    3    0    0 -0.35800988598E+01 -0.14487850853E+00  0.65721230450E+01  0.74853790290E+01  0.51100000000E-03 0.  1.
         12    1    3    3    0    0 -0.10746908014E+01 -0.13804673741E+02  0.20703523620E+02  0.24907024465E+02  0.00000000000E+00 0. -1.
</event>
<event>
 7    1  0.2706925E-010  0.4778727E+02  0.7816164E-02  0.1312668E+00
        -11   -1    0    0    0    0  0.00000000000E+00  0.00000000000E+00  0.45593999997E+02  0.45594000000E+02  0.51100000000E-03 0. -1.
         11   -1    0    0    0    0 -0.00000000000E+00 -0.00000000000E+00 -0.45593999997E+02  0.45594000000E+02  0.51100000000E-03 0.  1.
    9900012    2    1    2    0    0 -0.35900430653E+02 -0.10324164042E+01 -0.24366292675E+02  0.47787273930E+02  0.20000013154E+02 0.  0.
         12    1    1    2    0    0  0.35900430653E+02  0.10324164042E+01  0.24366292675E+02  0.43400726070E+02  0.00000000000E+00 0. -1.
         11    1    3    3    0    0 -0.13537203011E+02  0.57784103948E+01 -0.12952968399E+02  0.19606766247E+02  0.51100000000E-03 0. -1.
        -11    1    3    3    0    0 -0.44592950775E+01 -0.52249055907E+01  0.36770190544E-01  0.68692287288E+01  0.51100000000E-03 0.  1.
         12    1    3    3    0    0 -0.17903932564E+02 -0.15859212083E+01 -0.11450094467E+02  0.21311278953E+02  0.00000000000E+00 0. -1.
</event>
<event>
 7    1  0.2706925E-010  0.4778727E+02  0.7816164E-02  0.1312668E+00
        -11   -1    0    0    0    0  0.00000000000E+00  0.00000000000E+00  0.45593999997E+02  0.45594000000E+02  0.51100000000E-03 0.  1.
         11   -1    0    0    0    0 -0.00000000000E+00 -0.00000000000E+00 -0.45593999997E+02  0.45594000000E+02  0.51100000000E-03 0. -1.
    9900012    2    1    2    0    0  0.30766563234E+02  0.18606803243E+02  0.24306967326E+02  0.47787271887E+02  0.20000003841E+02 0.  0.
         12    1    1    2    0    0 -0.30766563234E+02 -0.18606803243E+02 -0.24306967326E+02  0.43400728113E+02  0.00000000000E+00 0. -1.
         11    1    3    3    0    0  0.37867537155E+00  0.44620479002E+01  0.30697909506E+01  0.54292617585E+01  0.51100000000E-03 0. -1.
        -11    1    3    3    0    0  0.23106169900E+02  0.32747697535E+01  0.15839369787E+02  0.28204695352E+02  0.51100000000E-03 0.  1.
        -12    1    3    3    0    0  0.72817179626E+01  0.10869985589E+02  0.53978065883E+01  0.14153314777E+02  0.00000000000E+00 0.  1.
</event>
<event>
 7    1  0.2706925E-010  0.4778728E+02  0.7816164E-02  0.1312668E+00
        -11   -1    0    0    0    0  0.00000000000E+00  0.00000000000E+00  0.45593999997E+02  0.45594000000E+02  0.51100000000E-03 0. -1.
         11   -1    0    0    0    0 -0.00000000000E+00 -0.00000000000E+00 -0.45593999997E+02  0.45594000000E+02  0.51100000000E-03 0.  1.
    9900012    2    1    2    0    0 -0.38392539334E+02  0.54177317898E+01  0.19500857707E+02  0.47787281739E+02  0.20000048763E+02 0.  0.
         12    1    1    2    0    0  0.38392539334E+02 -0.54177317898E+01 -0.19500857707E+02  0.43400718261E+02  0.00000000000E+00 0. -1.
         11    1    3    3    0    0 -0.11777745904E+02  0.91236331639E+01  0.79457320981E+01  0.16884627314E+02  0.51100000000E-03 0. -1.
        -11    1    3    3    0    0 -0.26770355332E+02 -0.18903051591E+01  0.10736604894E+02  0.28905014498E+02  0.51100000000E-03 0.  1.
        -12    1    3    3    0    0  0.15556190247E+00 -0.18155962150E+01  0.81852071410E+00  0.19976399278E+01  0.00000000000E+00 0.  1.
</event>
<event>
 7    1  0.2706925E-010  0.4778727E+02  0.7816164E-02  0.1312668E+00
        -11   -1    0    0    0    0  0.00000000000E+00  0.00000000000E+00  0.45593999997E+02  0.45594000000E+02  0.51100000000E-03 0. -1.
         11   -1    0    0    0    0 -0.00000000000E+00 -0.00000000000E+00 -0.45593999997E+02  0.45594000000E+02  0.51100000000E-03 0.  1.
    9900012    2    1    2    0    0 -0.24509166444E+02 -0.57059252438E+01 -0.35360520308E+02  0.47787271676E+02  0.20000002879E+02 0.  0.
         12    1    1    2    0    0  0.24509166444E+02  0.57059252438E+01  0.35360520308E+02  0.43400728324E+02  0.00000000000E+00 0. -1.
         11    1    3    3    0    0  0.22841673183E+00 -0.70957011223E+01 -0.72127959205E+01  0.10120552054E+02  0.51100000000E-03 0. -1.
        -11    1    3    3    0    0 -0.21123732627E+02  0.12497314810E+00 -0.24834828240E+02  0.32603625448E+02  0.51100000000E-03 0.  1.
         12    1    3    3    0    0 -0.36138505487E+01  0.12648027305E+01 -0.33128961471E+01  0.50630941742E+01  0.00000000000E+00 0. -1.
</event>
<event>
 7    1  0.2706925E-010  0.4778728E+02  0.7816164E-02  0.1312668E+00
        -11   -1    0    0    0    0  0.00000000000E+00  0.00000000000E+00  0.45593999997E+02  0.45594000000E+02  0.51100000000E-03 0.  1.
         11   -1    0    0    0    0 -0.00000000000E+00 -0.00000000000E+00 -0.45593999997E+02  0.45594000000E+02  0.51100000000E-03 0. -1.
    9900012    2    1    2    0    0 -0.21378598410E+01  0.17031060136E+02  0.39862203311E+02  0.47787277577E+02  0.20000029785E+02 0.  0.
         12    1    1    2    0    0  0.21378598410E+01 -0.17031060136E+02 -0.39862203311E+02  0.43400722423E+02  0.00000000000E+00 0. -1.
         11    1    3    3    0    0 -0.74325396021E+01  0.75193455485E+01  0.12200625844E+02  0.16144301585E+02  0.51100000000E-03 0. -1.
        -11    1    3    3    0    0 -0.28092941173E+01  0.53934482354E+00  0.86675970700E+01  0.91274457274E+01  0.51100000000E-03 0.  1.
         12    1    3    3    0    0  0.81039738784E+01  0.89723697638E+01  0.18993980397E+02  0.22515530265E+02  0.00000000000E+00 0. -1.
</event>
<event>
 7    1  0.2706925E-010  0.4778727E+02  0.7816164E-02  0.1312668E+00
        -11   -1    0    0    0    0  0.00000000000E+00  0.00000000000E+00  0.45593999997E+02  0.45594000000E+02  0.51100000000E-03 0.  1.
         11   -1    0    0    0    0 -0.00000000000E+00 -0.00000000000E+00 -0.45593999997E+02  0.45594000000E+02  0.51100000000E-03 0. -1.
    9900012    2    1    2    0    0  0.14508280696E+02  0.10553996916E+02  0.39518933094E+02  0.47787272673E+02  0.20000007423E+02 0.  0.
         12    1    1    2    0    0 -0.14508280696E+02 -0.10553996916E+02 -0.39518933094E+02  0.43400727327E+02  0.00000000000E+00 0. -1.
         11    1    3    3    0    0  0.52595684041E+01 -0.18345431386E+01  0.21508004705E+02  0.22217625323E+02  0.51100000000E-03 0. -1.
        -11    1    3    3    0    0  0.12793992250E+00  0.29386091825E+01  0.94380400897E+01  0.98857672210E+01  0.51100000000E-03 0.  1.
         12    1    3    3    0    0  0.91207723698E+01  0.94499308717E+01  0.85728882990E+01  0.15683880129E+02  0.00000000000E+00 0. -1.
</event>
<event>
 7    1  0.2706925E-010  0.4778727E+02  0.7816164E-02  0.1312668E+00
        -11   -1    0    0    0    0  0.00000000000E+00  0.00000000000E+00  0.45593999997E+02  0.45594000000E+02  0.51100000000E-03 0.  1.
         11   -1    0    0    0    0 -0.00000000000E+00 -0.00000000000E+00 -0.45593999997E+02  0.45594000000E+02  0.51100000000E-03 0. -1.
    9900012    2    1    2    0    0 -0.32950374124E+02  0.78123060877E+01  0.27145243933E+02  0.47787267869E+02  0.19999985522E+02 0.  0.
         12    1    1    2    0    0  0.32950374124E+02 -0.78123060877E+01 -0.27145243933E+02  0.43400732131E+02  0.00000000000E+00 0. -1.
         11    1    3    3    0    0 -0.54660347392E+01  0.83808371068E+01  0.65751125870E+01  0.11972805526E+02  0.51100000000E-03 0. -1.
        -11    1    3    3    0    0 -0.23953267081E+02 -0.40181513860E+01  0.15977902135E+02  0.29072287514E+02  0.51100000000E-03 0.  1.
        -12    1    3    3    0    0 -0.35310723040E+01  0.34496203668E+01  0.45922292110E+01  0.67421748285E+01  0.00000000000E+00 0.  1.
</event>
<event>
 7    1  0.2706925E-010  0.4778727E+02  0.7816164E-02  0.1312668E+00
        -11   -1    0    0    0    0  0.00000000000E+00  0.00000000000E+00  0.45593999997E+02  0.45594000000E+02  0.51100000000E-03 0.  1.
         11   -1    0    0    0    0 -0.00000000000E+00 -0.00000000000E+00 -0.45593999997E+02  0.45594000000E+02  0.51100000000E-03 0. -1.
    9900012    2    1    2    0    0 -0.68184841420E+01  0.26741660858E+02  0.33496490490E+02  0.47787273893E+02  0.20000012990E+02 0.  0.
         12    1    1    2    0    0  0.68184841420E+01 -0.26741660858E+02 -0.33496490490E+02  0.43400726107E+02  0.00000000000E+00 0. -1.
         11    1    3    3    0    0 -0.13547460788E+01  0.12368988545E+02  0.41119482204E+01  0.13104782829E+02  0.51100000000E-03 0. -1.
        -11    1    3    3    0    0 -0.39662772430E+01  0.10855735584E+01  0.29572942278E+01  0.50651174251E+01  0.51100000000E-03 0.  1.
         12    1    3    3    0    0 -0.14974608201E+01  0.13287098754E+02  0.26427248042E+02  0.29617373639E+02  0.00000000000E+00 0. -1.
</event>
<event>
 7    1  0.2706925E-010  0.4778727E+02  0.7816164E-02  0.1312668E+00
        -11   -1    0    0    0    0  0.00000000000E+00  0.00000000000E+00  0.45593999997E+02  0.45594000000E+02  0.51100000000E-03 0. -1.
         11   -1    0    0    0    0 -0.00000000000E+00 -0.00000000000E+00 -0.45593999997E+02  0.45594000000E+02  0.51100000000E-03 0.  1.
    9900012    2    1    2    0    0  0.13255789695E+02 -0.45320922750E+01 -0.41077582505E+02  0.47787267226E+02  0.19999982591E+02 0.  0.
         12    1    1    2    0    0 -0.13255789695E+02  0.45320922750E+01  0.41077582505E+02  0.43400732774E+02  0.00000000000E+00 0. -1.
         11    1    3    3    0    0  0.13313593904E+02 -0.47073550858E+01 -0.29186105334E+02  0.32422827134E+02  0.51100000000E-03 0. -1.
        -11    1    3    3    0    0 -0.23549385120E+01 -0.12189323446E+01 -0.12356113022E+02  0.12637446765E+02  0.51100000000E-03 0.  1.
         12    1    3    3    0    0  0.22971343029E+01  0.13941951554E+01  0.46463585020E+00  0.27269933279E+01  0.00000000000E+00 0. -1.
</event>
<event>
 7    1  0.2706925E-010  0.4778727E+02  0.7816164E-02  0.1312668E+00
        -11   -1    0    0    0    0  0.00000000000E+00  0.00000000000E+00  0.45593999997E+02  0.45594000000E+02  0.51100000000E-03 0. -1.
         11   -1    0    0    0    0 -0.00000000000E+00 -0.00000000000E+00 -0.45593999997E+02  0.45594000000E+02  0.51100000000E-03 0.  1.
    9900012    2    1    2    0    0 -0.40144015322E+02 -0.16476755246E+02 -0.77332061896E+00  0.47787268964E+02  0.19999990516E+02 0.  0.
         12    1    1    2    0    0  0.40144015322E+02  0.16476755246E+02  0.77332061896E+00  0.43400731036E+02  0.00000000000E+00 0. -1.
         11    1    3    3    0    0 -0.55270262243E+01 -0.93131959714E+01 -0.31225939693E+01  0.11270946342E+02  0.51100000000E-03 0. -1.
        -11    1    3    3    0    0 -0.34873048078E+02 -0.61944120108E+01  0.20879381779E+01  0.35480413026E+02  0.51100000000E-03 0.  1.
         12    1    3    3    0    0  0.25605897951E+00 -0.96914726380E+00  0.26133517248E+00  0.10359095966E+01  0.00000000000E+00 0. -1.
</event>
<event>
 7    1  0.2706925E-010  0.4778727E+02  0.7816164E-02  0.1312668E+00
        -11   -1    0    0    0    0  0.00000000000E+00  0.00000000000E+00  0.45593999997E+02  0.45594000000E+02  0.51100000000E-03 0.  1.
         11   -1    0    0    0    0 -0.00000000000E+00 -0.00000000000E+00 -0.45593999997E+02  0.45594000000E+02  0.51100000000E-03 0. -1.
    9900012    2    1    2    0    0 -0.24685130050E+02 -0.21456166146E+02  0.28528947099E+02  0.47787268049E+02  0.19999986344E+02 0.  0.
         12    1    1    2    0    0  0.24685130050E+02  0.21456166146E+02 -0.28528947099E+02  0.43400731951E+02  0.00000000000E+00 0. -1.
         11    1    3    3    0    0 -0.41699312005E+01 -0.32400631217E+01 -0.20711447003E+01  0.56723871412E+01  0.51100000000E-03 0. -1.
        -11    1    3    3    0    0 -0.15582774043E+02 -0.18242056275E+02  0.25830252712E+02  0.35253332033E+02  0.51100000000E-03 0.  1.
        -12    1    3    3    0    0 -0.49324248064E+01  0.25953250879E-01  0.47698390873E+01  0.68615488748E+01  0.00000000000E+00 0.  1.
</event>
<event>
 7    1  0.2706925E-010  0.4778727E+02  0.7816164E-02  0.1312668E+00
        -11   -1    0    0    0    0  0.00000000000E+00  0.00000000000E+00  0.45593999997E+02  0.45594000000E+02  0.51100000000E-03 0.  1.
         11   -1    0    0    0    0 -0.00000000000E+00 -0.00000000000E+00 -0.45593999997E+02  0.45594000000E+02  0.51100000000E-03 0. -1.
    9900012    2    1    2    0    0  0.25359503922E+02 -0.13397987102E+02  0.32573186950E+02  0.47787274135E+02  0.20000014089E+02 0.  0.
         12    1    1    2    0    0 -0.25359503922E+02  0.13397987102E+02 -0.32573186950E+02  0.43400725865E+02  0.00000000000E+00 0. -1.
         11    1    3    3    0    0  0.27725596923E+01 -0.12226863799E+01  0.72574803060E+01  0.78646722681E+01  0.51100000000E-03 0. -1.
        -11    1    3    3    0    0  0.10939880013E+02 -0.12932972594E+02  0.22044591220E+02  0.27801200641E+02  0.51100000000E-03 0.  1.
        -12    1    3    3    0    0  0.11647064217E+02  0.75767187102E+00  0.32711154240E+01  0.12121401225E+02  0.00000000000E+00 0.  1.
</event>
<event>
 7    1  0.2706925E-010  0.4778727E+02  0.7816164E-02  0.1312668E+00
        -11   -1    0    0    0    0  0.00000000000E+00  0.00000000000E+00  0.45593999997E+02  0.45594000000E+02  0.51100000000E-03 0.  1.
         11   -1    0    0    0    0 -0.00000000000E+00 -0.00000000000E+00 -0.45593999997E+02  0.45594000000E+02  0.51100000000E-03 0. -1.
    9900012    2    1    2    0    0 -0.85283876081E+00 -0.10293891596E+02  0.42153673032E+02  0.47787266271E+02  0.19999978237E+02 0.  0.
         12    1    1    2    0    0  0.85283876081E+00  0.10293891596E+02 -0.42153673032E+02  0.43400733729E+02  0.00000000000E+00 0. -1.
         11    1    3    3    0    0 -0.10910711310E+01 -0.68605316112E+01  0.66441710254E+01  0.96126135404E+01  0.51100000000E-03 0. -1.
        -11    1    3    3    0    0 -0.28806881985E+01 -0.79703768667E+01  0.20230236995E+02  0.21933712887E+02  0.51100000000E-03 0.  1.
        -12    1    3    3    0    0  0.31189205687E+01  0.45370168823E+01  0.15279265012E+02  0.16240939844E+02  0.00000000000E+00 0.  1.
</event>
<event>
 7    1  0.2706925E-010  0.4778728E+02  0.7816164E-02  0.1312668E+00
        -11   -1    0    0    0    0  0.00000000000E+00  0.00000000000E+00  0.45593999997E+02  0.45594000000E+02  0.51100000000E-03 0. -1.
         11   -1    0    0    0    0 -0.00000000000E+00 -0.00000000000E+00 -0.45593999997E+02  0.45594000000E+02  0.51100000000E-03 0.  1.
    9900012    2    1    2    0    0 -0.36549345646E+02 -0.21454608943E+02 -0.93524014642E+01  0.47787281974E+02  0.20000049832E+02 0.  0.
         12    1    1    2    0    0  0.36549345646E+02  0.21454608943E+02  0.93524014642E+01  0.43400718026E+02  0.00000000000E+00 0. -1.
         11    1    3    3    0    0 -0.61528281254E+01 -0.68270991762E+01  0.56200878266E+01  0.10772741737E+02  0.51100000000E-03 0. -1.
        -11    1    3    3    0    0 -0.15181458302E+02 -0.71716999504E+01 -0.59128328148E+01  0.17800886172E+02  0.51100000000E-03 0.  1.
         12    1    3    3    0    0 -0.15215059219E+02 -0.74558098160E+01 -0.90596564760E+01  0.19213654064E+02  0.00000000000E+00 0. -1.
</event>
<event>
 7    1  0.2706925E-010  0.4778726E+02  0.7816164E-02  0.1312668E+00
        -11   -1    0    0    0    0  0.00000000000E+00  0.00000000000E+00  0.45593999997E+02  0.45594000000E+02  0.51100000000E-03 0. -1.
         11   -1    0    0    0    0 -0.00000000000E+00 -0.00000000000E+00 -0.45593999997E+02  0.45594000000E+02  0.51100000000E-03 0.  1.
    9900012    2    1    2    0    0  0.11602409688E+02 -0.27088297190E+02 -0.31862708468E+02  0.47787263300E+02  0.19999964688E+02 0.  0.
         12    1    1    2    0    0 -0.11602409688E+02  0.27088297190E+02  0.31862708468E+02  0.43400736700E+02  0.00000000000E+00 0. -1.
         11    1    3    3    0    0 -0.45572387895E+00 -0.18807985131E+02 -0.25124719017E+02  0.31387887710E+02  0.51100000000E-03 0. -1.
        -11    1    3    3    0    0  0.62443704150E+01 -0.49443678085E+01 -0.52315186563E+01  0.95293086117E+01  0.51100000000E-03 0.  1.
         12    1    3    3    0    0  0.58137631519E+01 -0.33359442504E+01 -0.15064707950E+01  0.68700669782E+01  0.00000000000E+00 0. -1.
</event>
<event>
 7    1  0.2706925E-010  0.4778727E+02  0.7816164E-02  0.1312668E+00
        -11   -1    0    0    0    0  0.00000000000E+00  0.00000000000E+00  0.45593999997E+02  0.45594000000E+02  0.51100000000E-03 0.  1.
         11   -1    0    0    0    0 -0.00000000000E+00 -0.00000000000E+00 -0.45593999997E+02  0.45594000000E+02  0.51100000000E-03 0. -1.
    9900012    2    1    2    0    0  0.10616344320E+02 -0.48033464141E+01  0.41807229254E+02  0.47787270497E+02  0.19999997502E+02 0.  0.
         12    1    1    2    0    0 -0.10616344320E+02  0.48033464141E+01 -0.41807229254E+02  0.43400729503E+02  0.00000000000E+00 0. -1.
         11    1    3    3    0    0  0.10545754500E+02 -0.27150032487E+01  0.88345034760E+01  0.14022575817E+02  0.51100000000E-03 0. -1.
        -11    1    3    3    0    0  0.31239504420E+00 -0.46665924962E+01  0.20718121821E+02  0.21239473822E+02  0.51100000000E-03 0.  1.
         12    1    3    3    0    0 -0.24180522405E+00  0.25782493308E+01  0.12254603958E+02  0.12525220858E+02  0.00000000000E+00 0. -1.
</event>
<event>
 7    1  0.2706925E-010  0.4778727E+02  0.7816164E-02  0.1312668E+00
        -11   -1    0    0    0    0  0.00000000000E+00  0.00000000000E+00  0.45593999997E+02  0.45594000000E+02  0.51100000000E-03 0.  1.
         11   -1    0    0    0    0 -0.00000000000E+00 -0.00000000000E+00 -0.45593999997E+02  0.45594000000E+02  0.51100000000E-03 0. -1.
    9900012    2    1    2    0    0 -0.13006452162E+02  0.39456171019E+02  0.12556509907E+02  0.47787272237E+02  0.20000005437E+02 0.  0.
         12    1    1    2    0    0  0.13006452162E+02 -0.39456171019E+02 -0.12556509907E+02  0.43400727763E+02  0.00000000000E+00 0. -1.
         11    1    3    3    0    0 -0.12391184034E+02  0.12657588863E+02  0.28247283450E+01  0.17936975444E+02  0.51100000000E-03 0. -1.
        -11    1    3    3    0    0 -0.18416192879E+01  0.11395942339E+02  0.85277779268E+01  0.14352075112E+02  0.51100000000E-03 0.  1.
         12    1    3    3    0    0  0.12263511608E+01  0.15402639817E+02  0.12040036347E+01  0.15498221681E+02  0.00000000000E+00 0. -1.
</event>
<event>
 7    1  0.2706925E-010  0.4778730E+02  0.7816164E-02  0.1312668E+00
        -11   -1    0    0    0    0  0.00000000000E+00  0.00000000000E+00  0.45593999997E+02  0.45594000000E+02  0.51100000000E-03 0.  1.
         11   -1    0    0    0    0 -0.00000000000E+00 -0.00000000000E+00 -0.45593999997E+02  0.45594000000E+02  0.51100000000E-03 0. -1.
    9900012    2    1    2    0    0  0.14037683558E+02 -0.97646869152E+01  0.39890041513E+02  0.47787296294E+02  0.20000115122E+02 0.  0.
         12    1    1    2    0    0 -0.14037683558E+02  0.97646869152E+01 -0.39890041513E+02  0.43400703706E+02  0.00000000000E+00 0. -1.
         11    1    3    3    0    0  0.25791616213E+01 -0.27511217298E+00 -0.10844176530E+01  0.28113561289E+01  0.51100000000E-03 0. -1.
        -11    1    3    3    0    0  0.12185556091E+02 -0.10327889022E+02  0.30379067045E+02  0.34322598732E+02  0.51100000000E-03 0.  1.
        -12    1    3    3    0    0 -0.72703415428E+00  0.83831427939E+00  0.10595392121E+02  0.10653341433E+02  0.00000000000E+00 0.  1.
</event>
<event>
 7    1  0.3023605E-010  0.4778727E+02  0.7816164E-02  0.1312668E+00
        -11   -1    0    0    0    0  0.00000000000E+00  0.00000000000E+00  0.45593999997E+02  0.45594000000E+02  0.51100000000E-03 0. -1.
         11   -1    0    0    0    0 -0.00000000000E+00 -0.00000000000E+00 -0.45593999997E+02  0.45594000000E+02  0.51100000000E-03 0.  1.
    9900012    2    1    2    0    0 -0.33994879292E+02  0.26630184260E+02 -0.43364200673E+01  0.47787273384E+02  0.20000010666E+02 0.  0.
         12    1    1    2    0    0  0.33994879292E+02 -0.26630184260E+02  0.43364200673E+01  0.43400726616E+02  0.00000000000E+00 0. -1.
         11    1    3    3    0    0 -0.40559116479E+01 -0.57561089810E+00 -0.41257585131E+01  0.58140889889E+01  0.51100000000E-03 0. -1.
        -11    1    3    3    0    0 -0.17160144534E+02  0.13064050653E+02  0.51502510422E+01  0.22173521731E+02  0.51100000000E-03 0.  1.
        -12    1    3    3    0    0 -0.12778823110E+02  0.14141744505E+02 -0.53609125963E+01  0.19799662663E+02  0.00000000000E+00 0.  1.
</event>
<event>
 7    1  0.2706925E-010  0.4778726E+02  0.7816164E-02  0.1312668E+00
        -11   -1    0    0    0    0  0.00000000000E+00  0.00000000000E+00  0.45593999997E+02  0.45594000000E+02  0.51100000000E-03 0.  1.
         11   -1    0    0    0    0 -0.00000000000E+00 -0.00000000000E+00 -0.45593999997E+02  0.45594000000E+02  0.51100000000E-03 0. -1.
    9900012    2    1    2    0    0  0.14479515113E+02 -0.36777988176E+02  0.17926176196E+02  0.47787256168E+02  0.19999932170E+02 0.  0.
         12    1    1    2    0    0 -0.14479515113E+02  0.36777988176E+02 -0.17926176196E+02  0.43400743832E+02  0.00000000000E+00 0. -1.
         11    1    3    3    0    0  0.71569498279E+01 -0.28302272100E+01  0.29288485615E+01  0.82346992086E+01  0.51100000000E-03 0. -1.
        -11    1    3    3    0    0 -0.10790845315E+01 -0.16011614928E+02  0.10692285093E+02  0.19283702881E+02  0.51100000000E-03 0.  1.
        -12    1    3    3    0    0  0.84016498162E+01 -0.17936146038E+02  0.43050425410E+01  0.20268854078E+02  0.00000000000E+00 0.  1.
</event>
<event>
 7    1  0.2706925E-010  0.4778727E+02  0.7816164E-02  0.1312668E+00
        -11   -1    0    0    0    0  0.00000000000E+00  0.00000000000E+00  0.45593999997E+02  0.45594000000E+02  0.51100000000E-03 0.  1.
         11   -1    0    0    0    0 -0.00000000000E+00 -0.00000000000E+00 -0.45593999997E+02  0.45594000000E+02  0.51100000000E-03 0. -1.
    9900012    2    1    2    0    0  0.14623701600E+02 -0.40862071330E+02  0.24928952370E+00  0.47787266514E+02  0.19999979344E+02 0.  0.
         12    1    1    2    0    0 -0.14623701600E+02  0.40862071330E+02 -0.24928952370E+00  0.43400733486E+02  0.00000000000E+00 0. -1.
         11    1    3    3    0    0  0.48112841081E+01 -0.21177513132E+02  0.35744047100E+00  0.21720112366E+02  0.51100000000E-03 0. -1.
        -11    1    3    3    0    0  0.10104202368E+02 -0.69665348484E+01 -0.37528131028E+01  0.12833983003E+02  0.51100000000E-03 0.  1.
        -12    1    3    3    0    0 -0.29178487580E+00 -0.12718023350E+02  0.36446621555E+01  0.13233171145E+02  0.00000000000E+00 0.  1.
</event>
<event>
 7    1  0.2706925E-010  0.4778727E+02  0.7816164E-02  0.1312668E+00
        -11   -1    0    0    0    0  0.00000000000E+00  0.00000000000E+00  0.45593999997E+02  0.45594000000E+02  0.51100000000E-03 0.  1.
         11   -1    0    0    0    0 -0.00000000000E+00 -0.00000000000E+00 -0.45593999997E+02  0.45594000000E+02  0.51100000000E-03 0. -1.
    9900012    2    1    2    0    0 -0.31590627473E+02 -0.19717130500E+02  0.22291034390E+02  0.47787271971E+02  0.20000004225E+02 0.  0.
         12    1    1    2    0    0  0.31590627473E+02  0.19717130500E+02 -0.22291034390E+02  0.43400728029E+02  0.00000000000E+00 0. -1.
         11    1    3    3    0    0 -0.11529278270E+02 -0.70768745730E+01  0.16522108073E+02  0.21353839622E+02  0.51100000000E-03 0. -1.
        -11    1    3    3    0    0 -0.17555792659E+02 -0.13915956338E+02  0.68423582550E+01  0.23423867388E+02  0.51100000000E-03 0.  1.
         12    1    3    3    0    0 -0.25055565432E+01  0.12757004109E+01 -0.10734319376E+01  0.30095649610E+01  0.00000000000E+00 0. -1.
</event>
<event>
 7    1  0.2706925E-010  0.4778727E+02  0.7816164E-02  0.1312668E+00
        -11   -1    0    0    0    0  0.00000000000E+00  0.00000000000E+00  0.45593999997E+02  0.45594000000E+02  0.51100000000E-03 0.  1.
         11   -1    0    0    0    0 -0.00000000000E+00 -0.00000000000E+00 -0.45593999997E+02  0.45594000000E+02  0.51100000000E-03 0. -1.
    9900012    2    1    2    0    0 -0.17145101284E+02  0.27918839262E+02  0.28464132660E+02  0.47787274984E+02  0.20000017964E+02 0.  0.
         12    1    1    2    0    0  0.17145101284E+02 -0.27918839262E+02 -0.28464132660E+02  0.43400725016E+02  0.00000000000E+00 0. -1.
         11    1    3    3    0    0 -0.14404989959E+02  0.18494607821E+02  0.23648341898E+02  0.33298623529E+02  0.51100000000E-03 0. -1.
        -11    1    3    3    0    0 -0.59407413752E+01  0.36328370881E+01  0.32724651554E+01  0.76940848611E+01  0.51100000000E-03 0.  1.
         12    1    3    3    0    0  0.32006300500E+01  0.57913943531E+01  0.15433256065E+01  0.67945665938E+01  0.00000000000E+00 0. -1.
</event>
<event>
 7    1  0.2706925E-010  0.4778727E+02  0.7816164E-02  0.1312668E+00
        -11   -1    0    0    0    0  0.00000000000E+00  0.00000000000E+00  0.45593999997E+02  0.45594000000E+02  0.51100000000E-03 0.  1.
         11   -1    0    0    0    0 -0.00000000000E+00 -0.00000000000E+00 -0.45593999997E+02  0.45594000000E+02  0.51100000000E-03 0. -1.
    9900012    2    1    2    0    0  0.19973592499E+02  0.23543508562E+02  0.30502168254E+02  0.47787268890E+02  0.19999990176E+02 0.  0.
         12    1    1    2    0    0 -0.19973592499E+02 -0.23543508562E+02 -0.30502168254E+02  0.43400731110E+02  0.00000000000E+00 0. -1.
         11    1    3    3    0    0  0.12452459640E+02  0.16980656740E+02  0.96403367868E+01  0.23159070535E+02  0.51100000000E-03 0. -1.
        -11    1    3    3    0    0  0.87414376737E+00  0.63563007677E+01  0.95141113591E+01  0.11475408576E+02  0.51100000000E-03 0.  1.
         12    1    3    3    0    0  0.66469890910E+01  0.20655105411E+00  0.11347720108E+02  0.13152789779E+02  0.00000000000E+00 0. -1.
</event>
<event>
 7    1  0.2706925E-010  0.4778727E+02  0.7816164E-02  0.1312668E+00
        -11   -1    0    0    0    0  0.00000000000E+00  0.00000000000E+00  0.45593999997E+02  0.45594000000E+02  0.51100000000E-03 0.  1.
         11   -1    0    0    0    0 -0.00000000000E+00 -0.00000000000E+00 -0.45593999997E+02  0.45594000000E+02  0.51100000000E-03 0. -1.
    9900012    2    1    2    0    0  0.16521867158E+01 -0.20501311025E+02  0.38217667733E+02  0.47787267269E+02  0.19999982785E+02 0.  0.
         12    1    1    2    0    0 -0.16521867158E+01  0.20501311025E+02 -0.38217667733E+02  0.43400732731E+02  0.00000000000E+00 0. -1.
         11    1    3    3    0    0 -0.40254804359E+01 -0.73229231018E+01  0.24638223579E+02  0.26016759154E+02  0.51100000000E-03 0. -1.
        -11    1    3    3    0    0  0.58899403267E+00 -0.67186162228E+00  0.64310756506E+01  0.64928457778E+01  0.51100000000E-03 0.  1.
         12    1    3    3    0    0  0.50886731190E+01 -0.12506526301E+02  0.71483685036E+01  0.15277662337E+02  0.00000000000E+00 0. -1.
</event>
<event>
 7    1  0.2706925E-010  0.4778727E+02  0.7816164E-02  0.1312668E+00
        -11   -1    0    0    0    0  0.00000000000E+00  0.00000000000E+00  0.45593999997E+02  0.45594000000E+02  0.51100000000E-03 0.  1.
         11   -1    0    0    0    0 -0.00000000000E+00 -0.00000000000E+00 -0.45593999997E+02  0.45594000000E+02  0.51100000000E-03 0. -1.
    9900012    2    1    2    0    0 -0.11065323409E+02 -0.28314956472E+01  0.41870807207E+02  0.47787271367E+02  0.20000001470E+02 0.  0.
         12    1    1    2    0    0  0.11065323409E+02  0.28314956472E+01 -0.41870807207E+02  0.43400728633E+02  0.00000000000E+00 0. -1.
         11    1    3    3    0    0  0.39884221905E+01 -0.11508791225E+01  0.17992638274E+02  0.18465293570E+02  0.51100000000E-03 0. -1.
        -11    1    3    3    0    0 -0.11260506035E+02  0.12489326928E+01  0.20617084802E+02  0.23524944528E+02  0.51100000000E-03 0.  1.
         12    1    3    3    0    0 -0.37932395644E+01 -0.29295492175E+01  0.32610841308E+01  0.57970332687E+01  0.00000000000E+00 0. -1.
</event>
<event>
 7    1  0.2706925E-010  0.4778727E+02  0.7816164E-02  0.1312668E+00
        -11   -1    0    0    0    0  0.00000000000E+00  0.00000000000E+00  0.45593999997E+02  0.45594000000E+02  0.51100000000E-03 0.  1.
         11   -1    0    0    0    0 -0.00000000000E+00 -0.00000000000E+00 -0.45593999997E+02  0.45594000000E+02  0.51100000000E-03 0. -1.
    9900012    2    1    2    0    0 -0.17476152603E+02  0.10661219868E+02  0.38269384615E+02  0.47787270540E+02  0.19999997701E+02 0.  0.
         12    1    1    2    0    0  0.17476152603E+02 -0.10661219868E+02 -0.38269384615E+02  0.43400729460E+02  0.00000000000E+00 0. -1.
         11    1    3    3    0    0  0.24250874468E+01  0.95893552486E+00 -0.56940773702E-01  0.26084188656E+01  0.51100000000E-03 0. -1.
        -11    1    3    3    0    0 -0.44424406019E+00  0.41886105614E+00  0.77092942729E+01  0.77334349300E+01  0.51100000000E-03 0.  1.
         12    1    3    3    0    0 -0.19456995989E+02  0.92834232865E+01  0.30617031115E+02  0.37445416745E+02  0.00000000000E+00 0. -1.
</event>
<event>
 7    1  0.2706925E-010  0.4778727E+02  0.7816164E-02  0.1312668E+00
        -11   -1    0    0    0    0  0.00000000000E+00  0.00000000000E+00  0.45593999997E+02  0.45594000000E+02  0.51100000000E-03 0. -1.
         11   -1    0    0    0    0 -0.00000000000E+00 -0.00000000000E+00 -0.45593999997E+02  0.45594000000E+02  0.51100000000E-03 0.  1.
    9900012    2    1    2    0    0  0.42132418505E+02  0.11590724426E+01 -0.10350800184E+02  0.47787271867E+02  0.20000003750E+02 0.  0.
         12    1    1    2    0    0 -0.42132418505E+02 -0.11590724426E+01  0.10350800184E+02  0.43400728133E+02  0.00000000000E+00 0. -1.
         11    1    3    3    0    0  0.22619572204E+02  0.20529621558E+01  0.17411774774E+01  0.22779187860E+02  0.51100000000E-03 0. -1.
        -11    1    3    3    0    0  0.12259471983E+02  0.83392141103E-01 -0.12714933714E+02  0.17662704978E+02  0.51100000000E-03 0.  1.
        -12    1    3    3    0    0  0.72533743189E+01 -0.97728185429E+00  0.62295605201E+00  0.73453790287E+01  0.00000000000E+00 0.  1.
</event>
<event>
 7    1  0.2706925E-010  0.4778727E+02  0.7816164E-02  0.1312668E+00
        -11   -1    0    0    0    0  0.00000000000E+00  0.00000000000E+00  0.45593999997E+02  0.45594000000E+02  0.51100000000E-03 0. -1.
         11   -1    0    0    0    0 -0.00000000000E+00 -0.00000000000E+00 -0.45593999997E+02  0.45594000000E+02  0.51100000000E-03 0.  1.
    9900012    2    1    2    0    0  0.39249762908E+02  0.16642458789E+02  0.81306891305E+01  0.47787269262E+02  0.19999991873E+02 0.  0.
         12    1    1    2    0    0 -0.39249762908E+02 -0.16642458789E+02 -0.81306891305E+01  0.43400730738E+02  0.00000000000E+00 0. -1.
         11    1    3    3    0    0  0.85150743670E+01 -0.11271121864E+00  0.73174430694E+01  0.11227830094E+02  0.51100000000E-03 0. -1.
        -11    1    3    3    0    0  0.31245449316E+02  0.16873097828E+02 -0.95431944372E-01  0.35510401867E+02  0.51100000000E-03 0.  1.
         12    1    3    3    0    0 -0.51076077502E+00 -0.11792781985E+00  0.90867800549E+00  0.10490373004E+01  0.00000000000E+00 0. -1.
</event>
<event>
 7    1  0.2706925E-010  0.4778727E+02  0.7816164E-02  0.1312668E+00
        -11   -1    0    0    0    0  0.00000000000E+00  0.00000000000E+00  0.45593999997E+02  0.45594000000E+02  0.51100000000E-03 0.  1.
         11   -1    0    0    0    0 -0.00000000000E+00 -0.00000000000E+00 -0.45593999997E+02  0.45594000000E+02  0.51100000000E-03 0. -1.
    9900012    2    1    2    0    0 -0.33306918108E+02  0.88226696769E+01 -0.26390013438E+02  0.47787273009E+02  0.20000008957E+02 0.  0.
         12    1    1    2    0    0  0.33306918108E+02 -0.88226696769E+01  0.26390013438E+02  0.43400726991E+02  0.00000000000E+00 0. -1.
         11    1    3    3    0    0 -0.10290265273E+02 -0.12689510178E+01  0.48099711224E+00  0.10379361953E+02  0.51100000000E-03 0. -1.
        -11    1    3    3    0    0 -0.13008629120E+02  0.20395052367E+01 -0.14177826925E+02  0.19349283960E+02  0.51100000000E-03 0.  1.
         12    1    3    3    0    0 -0.10008023715E+02  0.80521154579E+01 -0.12693183625E+02  0.18058627095E+02  0.00000000000E+00 0. -1.
</event>
<event>
 7    1  0.2706925E-010  0.4778723E+02  0.7816164E-02  0.1312668E+00
        -11   -1    0    0    0    0  0.00000000000E+00  0.00000000000E+00  0.45593999997E+02  0.45594000000E+02  0.51100000000E-03 0.  1.
         11   -1    0    0    0    0 -0.00000000000E+00 -0.00000000000E+00 -0.45593999997E+02  0.45594000000E+02  0.51100000000E-03 0. -1.
    9900012    2    1    2    0    0 -0.34684781217E+02 -0.26061342929E+02 -0.11830469568E+01  0.47787225313E+02  0.19999791491E+02 0.  0.
         12    1    1    2    0    0  0.34684781217E+02  0.26061342929E+02  0.11830469568E+01  0.43400774687E+02  0.00000000000E+00 0. -1.
         11    1    3    3    0    0 -0.44122384064E+01  0.93319702387E+00  0.48827160716E+01  0.66467752284E+01  0.51100000000E-03 0. -1.
        -11    1    3    3    0    0 -0.18051148943E+02 -0.14028356300E+02 -0.29247227786E+01  0.23047619448E+02  0.51100000000E-03 0.  1.
         12    1    3    3    0    0 -0.12221393868E+02 -0.12966183653E+02 -0.31410402497E+01  0.18092830637E+02  0.00000000000E+00 0. -1.
</event>
<event>
 7    1  0.2706925E-010  0.4778730E+02  0.7816164E-02  0.1312668E+00
        -11   -1    0    0    0    0  0.00000000000E+00  0.00000000000E+00  0.45593999997E+02  0.45594000000E+02  0.51100000000E-03 0.  1.
         11   -1    0    0    0    0 -0.00000000000E+00 -0.00000000000E+00 -0.45593999997E+02  0.45594000000E+02  0.51100000000E-03 0. -1.
    9900012    2    1    2    0    0  0.12310731455E+02  0.17314620645E+02  0.37845354822E+02  0.47787296335E+02  0.20000115307E+02 0.  0.
         12    1    1    2    0    0 -0.12310731455E+02 -0.17314620645E+02 -0.37845354822E+02  0.43400703665E+02  0.00000000000E+00 0. -1.
         11    1    3    3    0    0  0.65707182574E+01  0.15506318607E+01  0.15954634114E+01  0.69371681069E+01  0.51100000000E-03 0. -1.
        -11    1    3    3    0    0  0.11053002718E+01  0.13551803828E+02  0.28107330265E+02  0.31223310051E+02  0.51100000000E-03 0.  1.
         12    1    3    3    0    0  0.46347129262E+01  0.22121849571E+01  0.81425611454E+01  0.96268181763E+01  0.00000000000E+00 0. -1.
</event>
<event>
 7    1  0.2706925E-010  0.4778727E+02  0.7816164E-02  0.1312668E+00
        -11   -1    0    0    0    0  0.00000000000E+00  0.00000000000E+00  0.45593999997E+02  0.45594000000E+02  0.51100000000E-03 0.  1.
         11   -1    0    0    0    0 -0.00000000000E+00 -0.00000000000E+00 -0.45593999997E+02  0.45594000000E+02  0.51100000000E-03 0. -1.
    9900012    2    1    2    0    0  0.17709486053E+01 -0.11566703573E+02  0.41793518978E+02  0.47787272828E+02  0.20000008130E+02 0.  0.
         12    1    1    2    0    0 -0.17709486053E+01  0.11566703573E+02 -0.41793518978E+02  0.43400727172E+02  0.00000000000E+00 0. -1.
         11    1    3    3    0    0  0.51992421138E+01  0.21248389018E+01  0.52462277843E+01  0.76856987413E+01  0.51100000000E-03 0. -1.
        -11    1    3    3    0    0 -0.47976566859E+01 -0.50719536048E+01  0.10315677974E+02  0.12456140468E+02  0.51100000000E-03 0.  1.
         12    1    3    3    0    0  0.13693631774E+01 -0.86195888703E+01  0.26231613220E+02  0.27645433618E+02  0.00000000000E+00 0. -1.
</event>
<event>
 7    1  0.2706925E-010  0.4778727E+02  0.7816164E-02  0.1312668E+00
        -11   -1    0    0    0    0  0.00000000000E+00  0.00000000000E+00  0.45593999997E+02  0.45594000000E+02  0.51100000000E-03 0.  1.
         11   -1    0    0    0    0 -0.00000000000E+00 -0.00000000000E+00 -0.45593999997E+02  0.45594000000E+02  0.51100000000E-03 0. -1.
    9900012    2    1    2    0    0  0.90785656329E+01  0.34025746884E+02  0.25366344319E+02  0.47787271560E+02  0.20000002351E+02 0.  0.
         12    1    1    2    0    0 -0.90785656329E+01 -0.34025746884E+02 -0.25366344319E+02  0.43400728440E+02  0.00000000000E+00 0. -1.
         11    1    3    3    0    0  0.20466142136E+01  0.20324985342E+02  0.21792319794E+02  0.29869698042E+02  0.51100000000E-03 0. -1.
        -11    1    3    3    0    0  0.14232059244E+00  0.48004682305E+01 -0.21829108386E+01  0.52754004942E+01  0.51100000000E-03 0.  1.
         12    1    3    3    0    0  0.68896308269E+01  0.89002933118E+01  0.57569353643E+01  0.12642173023E+02  0.00000000000E+00 0. -1.
</event>
<event>
 7    1  0.2706925E-010  0.4778727E+02  0.7816164E-02  0.1312668E+00
        -11   -1    0    0    0    0  0.00000000000E+00  0.00000000000E+00  0.45593999997E+02  0.45594000000E+02  0.51100000000E-03 0.  1.
         11   -1    0    0    0    0 -0.00000000000E+00 -0.00000000000E+00 -0.45593999997E+02  0.45594000000E+02  0.51100000000E-03 0. -1.
    9900012    2    1    2    0    0 -0.12498848829E+02  0.14959950870E+02  0.38776307144E+02  0.47787270193E+02  0.19999996117E+02 0.  0.
         12    1    1    2    0    0  0.12498848829E+02 -0.14959950870E+02 -0.38776307144E+02  0.43400729807E+02  0.00000000000E+00 0. -1.
         11    1    3    3    0    0 -0.14613403370E+02  0.16166722330E+02  0.30102152139E+02  0.37162535337E+02  0.51100000000E-03 0.  1.
        -11    1    3    3    0    0  0.17351973792E+01 -0.20790748003E+01  0.99215369176E+00  0.28840650442E+01  0.51100000000E-03 0. -1.
        -12    1    3    3    0    0  0.37935716183E+00  0.87230334015E+00  0.76820013124E+01  0.77406698120E+01  0.00000000000E+00 0.  1.
</event>
<event>
 7    1  0.2706925E-010  0.4778726E+02  0.7816164E-02  0.1312668E+00
        -11   -1    0    0    0    0  0.00000000000E+00  0.00000000000E+00  0.45593999997E+02  0.45594000000E+02  0.51100000000E-03 0. -1.
         11   -1    0    0    0    0 -0.00000000000E+00 -0.00000000000E+00 -0.45593999997E+02  0.45594000000E+02  0.51100000000E-03 0.  1.
    9900012    2    1    2    0    0 -0.17019318477E+02 -0.30513955568E+02 -0.25746176621E+02  0.47787259264E+02  0.19999946289E+02 0.  0.
         12    1    1    2    0    0  0.17019318477E+02  0.30513955568E+02  0.25746176621E+02  0.43400740736E+02  0.00000000000E+00 0. -1.
         11    1    3    3    0    0 -0.56151114402E+01 -0.93836301902E+01  0.11536288345E+01  0.10996038004E+02  0.51100000000E-03 0. -1.
        -11    1    3    3    0    0 -0.10824907369E+02 -0.14496184932E+02 -0.16772081601E+02  0.24670239533E+02  0.51100000000E-03 0.  1.
         12    1    3    3    0    0 -0.57929966784E+00 -0.66341404457E+01 -0.10127723855E+02  0.12120981728E+02  0.00000000000E+00 0. -1.
</event>
<event>
 7    1  0.2706925E-010  0.4778727E+02  0.7816164E-02  0.1312668E+00
        -11   -1    0    0    0    0  0.00000000000E+00  0.00000000000E+00  0.45593999997E+02  0.45594000000E+02  0.51100000000E-03 0.  1.
         11   -1    0    0    0    0 -0.00000000000E+00 -0.00000000000E+00 -0.45593999997E+02  0.45594000000E+02  0.51100000000E-03 0. -1.
    9900012    2    1    2    0    0 -0.16737650104E+02 -0.14239585842E+02  0.37426038152E+02  0.47787273419E+02  0.20000010829E+02 0.  0.
         12    1    1    2    0    0  0.16737650104E+02  0.14239585842E+02 -0.37426038152E+02  0.43400726581E+02  0.00000000000E+00 0. -1.
         11    1    3    3    0    0 -0.77440891910E+01 -0.37994506314E+01  0.90483289541E+01  0.12501159931E+02  0.51100000000E-03 0. -1.
        -11    1    3    3    0    0 -0.23776475218E+01  0.38974772172E+01  0.32322553860E+01  0.55938369245E+01  0.51100000000E-03 0.  1.
        -12    1    3    3    0    0 -0.66159133908E+01 -0.14337612428E+02  0.25145453812E+02  0.29692276564E+02  0.00000000000E+00 0.  1.
</event>
<event>
 7    1  0.2706925E-010  0.4778727E+02  0.7816164E-02  0.1312668E+00
        -11   -1    0    0    0    0  0.00000000000E+00  0.00000000000E+00  0.45593999997E+02  0.45594000000E+02  0.51100000000E-03 0.  1.
         11   -1    0    0    0    0 -0.00000000000E+00 -0.00000000000E+00 -0.45593999997E+02  0.45594000000E+02  0.51100000000E-03 0. -1.
    9900012    2    1    2    0    0  0.31923582574E+02  0.12655900879E+02  0.26539336279E+02  0.47787270495E+02  0.19999997496E+02 0.  0.
         12    1    1    2    0    0 -0.31923582574E+02 -0.12655900879E+02 -0.26539336279E+02  0.43400729505E+02  0.00000000000E+00 0. -1.
         11    1    3    3    0    0  0.45126854360E+01  0.73378126473E+01  0.10893011163E+02  0.13887602988E+02  0.51100000000E-03 0. -1.
        -11    1    3    3    0    0  0.10526506892E+02  0.35796142874E+01  0.12334296313E+02  0.16605898096E+02  0.51100000000E-03 0.  1.
         12    1    3    3    0    0  0.16884390246E+02  0.17384739440E+01  0.33120288027E+01  0.17293769411E+02  0.00000000000E+00 0. -1.
</event>
<event>
 7    1  0.2706925E-010  0.4778727E+02  0.7816164E-02  0.1312668E+00
        -11   -1    0    0    0    0  0.00000000000E+00  0.00000000000E+00  0.45593999997E+02  0.45594000000E+02  0.51100000000E-03 0. -1.
         11   -1    0    0    0    0 -0.00000000000E+00 -0.00000000000E+00 -0.45593999997E+02  0.45594000000E+02  0.51100000000E-03 0.  1.
    9900012    2    1    2    0    0 -0.30411573697E+02  0.54899485947E+01 -0.30473270969E+02  0.47787267359E+02  0.19999983195E+02 0.  0.
         12    1    1    2    0    0  0.30411573697E+02 -0.54899485947E+01  0.30473270969E+02  0.43400732641E+02  0.00000000000E+00 0. -1.
         11    1    3    3    0    0 -0.14307354338E+02 -0.11764588441E+01 -0.92373575306E+01  0.17070829446E+02  0.51100000000E-03 0. -1.
        -11    1    3    3    0    0 -0.39231439375E+00  0.33491769743E+01  0.78504557158E+00  0.34622527059E+01  0.51100000000E-03 0.  1.
        -12    1    3    3    0    0 -0.15711904966E+02  0.33172304645E+01 -0.22020959010E+02  0.27254185207E+02  0.00000000000E+00 0.  1.
</event>
<event>
 7    1  0.2706925E-010  0.4778727E+02  0.7816164E-02  0.1312668E+00
        -11   -1    0    0    0    0  0.00000000000E+00  0.00000000000E+00  0.45593999997E+02  0.45594000000E+02  0.51100000000E-03 0.  1.
         11   -1    0    0    0    0 -0.00000000000E+00 -0.00000000000E+00 -0.45593999997E+02  0.45594000000E+02  0.51100000000E-03 0. -1.
    9900012    2    1    2    0    0  0.15194839820E+02  0.20573822583E+02  0.35063627775E+02  0.47787270449E+02  0.19999997286E+02 0.  0.
         12    1    1    2    0    0 -0.15194839820E+02 -0.20573822583E+02 -0.35063627775E+02  0.43400729551E+02  0.00000000000E+00 0. -1.
         11    1    3    3    0    0  0.19851663670E+01  0.61442509568E+01 -0.44351020839E+00  0.64722026305E+01  0.51100000000E-03 0. -1.
        -11    1    3    3    0    0  0.13951756937E+02  0.11454660152E+02  0.30021305694E+02  0.35030551761E+02  0.51100000000E-03 0.  1.
        -12    1    3    3    0    0 -0.74208348446E+00  0.29749114742E+01  0.54858322889E+01  0.62845160576E+01  0.00000000000E+00 0.  1.
</event>
<event>
 7    1  0.2706925E-010  0.4778727E+02  0.7816164E-02  0.1312668E+00
        -11   -1    0    0    0    0  0.00000000000E+00  0.00000000000E+00  0.45593999997E+02  0.45594000000E+02  0.51100000000E-03 0.  1.
         11   -1    0    0    0    0 -0.00000000000E+00 -0.00000000000E+00 -0.45593999997E+02  0.45594000000E+02  0.51100000000E-03 0. -1.
    9900012    2    1    2    0    0 -0.27116506221E+01  0.11069454575E+02  0.41877646524E+02  0.47787272448E+02  0.20000006398E+02 0.  0.
         12    1    1    2    0    0  0.27116506221E+01 -0.11069454575E+02 -0.41877646524E+02  0.43400727552E+02  0.00000000000E+00 0. -1.
         11    1    3    3    0    0 -0.67073149972E+00  0.40109601647E+01 -0.41512505537E+00  0.40877880645E+01  0.51100000000E-03 0. -1.
        -11    1    3    3    0    0 -0.23675765484E+01  0.94950182127E+00  0.28462237724E+02  0.28576317974E+02  0.51100000000E-03 0.  1.
         12    1    3    3    0    0  0.32665742604E+00  0.61089925888E+01  0.13830533855E+02  0.15123166409E+02  0.00000000000E+00 0. -1.
</event>
<event>
 7    1  0.2706925E-010  0.4778727E+02  0.7816164E-02  0.1312668E+00
        -11   -1    0    0    0    0  0.00000000000E+00  0.00000000000E+00  0.45593999997E+02  0.45594000000E+02  0.51100000000E-03 0.  1.
         11   -1    0    0    0    0 -0.00000000000E+00 -0.00000000000E+00 -0.45593999997E+02  0.45594000000E+02  0.51100000000E-03 0. -1.
    9900012    2    1    2    0    0  0.17564661892E+02 -0.39656933701E+02 -0.15599642540E+01  0.47787271591E+02  0.20000002491E+02 0.  0.
         12    1    1    2    0    0 -0.17564661892E+02  0.39656933701E+02  0.15599642540E+01  0.43400728409E+02  0.00000000000E+00 0. -1.
         11    1    3    3    0    0  0.14458838970E+02 -0.15302721871E+02  0.11356022730E+01  0.21083664620E+02  0.51100000000E-03 0.  1.
        -11    1    3    3    0    0 -0.22561919960E+01 -0.68421973823E+01  0.25665966565E+01  0.76481034250E+01  0.51100000000E-03 0. -1.
        -12    1    3    3    0    0  0.53620149179E+01 -0.17512014448E+02 -0.52621631836E+01  0.19055503546E+02  0.00000000000E+00 0.  1.
</event>
<event>
 7    1  0.2706925E-010  0.4778727E+02  0.7816164E-02  0.1312668E+00
        -11   -1    0    0    0    0  0.00000000000E+00  0.00000000000E+00  0.45593999997E+02  0.45594000000E+02  0.51100000000E-03 0.  1.
         11   -1    0    0    0    0 -0.00000000000E+00 -0.00000000000E+00 -0.45593999997E+02  0.45594000000E+02  0.51100000000E-03 0. -1.
    9900012    2    1    2    0    0 -0.28658297072E+02  0.17295863031E+02  0.27625689529E+02  0.47787267391E+02  0.19999983342E+02 0.  0.
         12    1    1    2    0    0  0.28658297072E+02 -0.17295863031E+02 -0.27625689529E+02  0.43400732609E+02  0.00000000000E+00 0. -1.
         11    1    3    3    0    0 -0.47192419824E+01  0.13607495165E+01  0.98276414174E+01  0.10986601851E+02  0.51100000000E-03 0. -1.
        -11    1    3    3    0    0 -0.15753168790E+02  0.47273968547E+01  0.33853858672E+01  0.16792005410E+02  0.51100000000E-03 0.  1.
        -12    1    3    3    0    0 -0.81858862995E+01  0.11207716660E+02  0.14412662245E+02  0.20008660130E+02  0.00000000000E+00 0.  1.
</event>
<event>
 7    1  0.2706925E-010  0.4778727E+02  0.7816164E-02  0.1312668E+00
        -11   -1    0    0    0    0  0.00000000000E+00  0.00000000000E+00  0.45593999997E+02  0.45594000000E+02  0.51100000000E-03 0.  1.
         11   -1    0    0    0    0 -0.00000000000E+00 -0.00000000000E+00 -0.45593999997E+02  0.45594000000E+02  0.51100000000E-03 0. -1.
    9900012    2    1    2    0    0  0.38493806189E+02  0.11115783365E+02 -0.16682013717E+02  0.47787270324E+02  0.19999996715E+02 0.  0.
         12    1    1    2    0    0 -0.38493806189E+02 -0.11115783365E+02  0.16682013717E+02  0.43400729676E+02  0.00000000000E+00 0. -1.
         11    1    3    3    0    0  0.72988574135E+01  0.90417869737E+01 -0.69471244659E+01  0.13538455223E+02  0.51100000000E-03 0. -1.
        -11    1    3    3    0    0  0.19245152620E+02 -0.36229903248E+01 -0.53061382643E+01  0.20289333695E+02  0.51100000000E-03 0.  1.
         12    1    3    3    0    0  0.11949796156E+02  0.56969867159E+01 -0.44287509869E+01  0.13959481406E+02  0.00000000000E+00 0. -1.
</event>
<event>
 7    1  0.5300221E-010  0.4778726E+02  0.7816164E-02  0.1312668E+00
        -11   -1    0    0    0    0  0.00000000000E+00  0.00000000000E+00  0.45593999997E+02  0.45594000000E+02  0.51100000000E-03 0.  1.
         11   -1    0    0    0    0 -0.00000000000E+00 -0.00000000000E+00 -0.45593999997E+02  0.45594000000E+02  0.51100000000E-03 0. -1.
    9900012    2    1    2    0    0  0.24591836476E+00  0.94232971912E+01  0.42364665772E+02  0.47787263695E+02  0.19999966492E+02 0.  0.
         12    1    1    2    0    0 -0.24591836476E+00 -0.94232971912E+01 -0.42364665772E+02  0.43400736305E+02  0.00000000000E+00 0. -1.
         11    1    3    3    0    0 -0.59832954320E+00  0.40068038847E+01  0.29366640442E+01  0.50036458291E+01  0.51100000000E-03 0. -1.
        -11    1    3    3    0    0  0.50646927678E+01 -0.26006391471E+01  0.65424960850E+01  0.86728710407E+01  0.51100000000E-03 0.  1.
        -12    1    3    3    0    0 -0.42204448598E+01  0.80171324535E+01  0.32885505643E+02  0.34110746825E+02  0.00000000000E+00 0.  1.
</event>
<event>
 7    1  0.2706925E-010  0.4778731E+02  0.7816164E-02  0.1312668E+00
        -11   -1    0    0    0    0  0.00000000000E+00  0.00000000000E+00  0.45593999997E+02  0.45594000000E+02  0.51100000000E-03 0. -1.
         11   -1    0    0    0    0 -0.00000000000E+00 -0.00000000000E+00 -0.45593999997E+02  0.45594000000E+02  0.51100000000E-03 0.  1.
    9900012    2    1    2    0    0 -0.29831549200E+02 -0.14064783083E+02 -0.28211351016E+02  0.47787311331E+02  0.20000183680E+02 0.  0.
         12    1    1    2    0    0  0.29831549200E+02  0.14064783083E+02  0.28211351016E+02  0.43400688669E+02  0.00000000000E+00 0. -1.
         11    1    3    3    0    0 -0.11582901182E+02 -0.52059073184E+01 -0.19031381885E+02  0.22879216934E+02  0.51100000000E-03 0. -1.
        -11    1    3    3    0    0 -0.18266327901E+02 -0.64291319155E+01 -0.48816820395E+01  0.19970560633E+02  0.51100000000E-03 0.  1.
        -12    1    3    3    0    0  0.17679883152E-01 -0.24297438486E+01 -0.42982870920E+01  0.49375337643E+01  0.00000000000E+00 0.  1.
</event>
<event>
 7    1  0.2706925E-010  0.4778727E+02  0.7816164E-02  0.1312668E+00
        -11   -1    0    0    0    0  0.00000000000E+00  0.00000000000E+00  0.45593999997E+02  0.45594000000E+02  0.51100000000E-03 0. -1.
         11   -1    0    0    0    0 -0.00000000000E+00 -0.00000000000E+00 -0.45593999997E+02  0.45594000000E+02  0.51100000000E-03 0.  1.
    9900012    2    1    2    0    0 -0.26949595342E+01 -0.40746749694E+02  0.14699075829E+02  0.47787271346E+02  0.20000001375E+02 0.  0.
         12    1    1    2    0    0  0.26949595342E+01  0.40746749694E+02 -0.14699075829E+02  0.43400728654E+02  0.00000000000E+00 0. -1.
         11    1    3    3    0    0 -0.27331605504E+01  0.10862268750E+01 -0.55445477393E+00  0.29929042376E+01  0.51100000000E-03 0. -1.
        -11    1    3    3    0    0 -0.28510500932E+00 -0.27525993257E+02  0.12448714567E+02  0.30211456176E+02  0.51100000000E-03 0.  1.
         12    1    3    3    0    0  0.32330602549E+00 -0.14306983312E+02  0.28048160355E+01  0.14582910932E+02  0.00000000000E+00 0. -1.
</event>
<event>
 7    1  0.2706925E-010  0.4778727E+02  0.7816164E-02  0.1312668E+00
        -11   -1    0    0    0    0  0.00000000000E+00  0.00000000000E+00  0.45593999997E+02  0.45594000000E+02  0.51100000000E-03 0. -1.
         11   -1    0    0    0    0 -0.00000000000E+00 -0.00000000000E+00 -0.45593999997E+02  0.45594000000E+02  0.51100000000E-03 0.  1.
    9900012    2    1    2    0    0  0.17750606183E+02 -0.37527359816E+02 -0.12658450259E+02  0.47787272845E+02  0.20000008209E+02 0.  0.
         12    1    1    2    0    0 -0.17750606183E+02  0.37527359816E+02  0.12658450259E+02  0.43400727155E+02  0.00000000000E+00 0. -1.
         11    1    3    3    0    0 -0.16790737782E+01 -0.37747587628E+01 -0.34684725670E+01  0.53942927876E+01  0.51100000000E-03 0. -1.
        -11    1    3    3    0    0  0.99946725817E+01 -0.26406270592E+02 -0.17052159906E+01  0.28285904059E+02  0.51100000000E-03 0.  1.
        -12    1    3    3    0    0  0.94350073792E+01 -0.73463304610E+01 -0.74847617014E+01  0.14107075998E+02  0.00000000000E+00 0.  1.
</event>
<event>
 7    1  0.2706925E-010  0.4778727E+02  0.7816164E-02  0.1312668E+00
        -11   -1    0    0    0    0  0.00000000000E+00  0.00000000000E+00  0.45593999997E+02  0.45594000000E+02  0.51100000000E-03 0. -1.
         11   -1    0    0    0    0 -0.00000000000E+00 -0.00000000000E+00 -0.45593999997E+02  0.45594000000E+02  0.51100000000E-03 0.  1.
    9900012    2    1    2    0    0 -0.32431051040E+02  0.25101814380E+02 -0.14203842710E+02  0.47787270692E+02  0.19999998395E+02 0.  0.
         12    1    1    2    0    0  0.32431051040E+02 -0.25101814380E+02  0.14203842710E+02  0.43400729308E+02  0.00000000000E+00 0. -1.
         11    1    3    3    0    0 -0.32387558911E+02  0.23736661263E+02 -0.14138746923E+02  0.42570966926E+02  0.51100000000E-03 0.  1.
        -11    1    3    3    0    0 -0.86932058976E+00 -0.16734900500E+01  0.63630238126E+00  0.19902683781E+01  0.51100000000E-03 0. -1.
         12    1    3    3    0    0  0.82582846109E+00  0.30386431661E+01 -0.70139816859E+00  0.32260353887E+01  0.00000000000E+00 0. -1.
</event>
<event>
 7    1  0.2706925E-010  0.4778726E+02  0.7816164E-02  0.1312668E+00
        -11   -1    0    0    0    0  0.00000000000E+00  0.00000000000E+00  0.45593999997E+02  0.45594000000E+02  0.51100000000E-03 0.  1.
         11   -1    0    0    0    0 -0.00000000000E+00 -0.00000000000E+00 -0.45593999997E+02  0.45594000000E+02  0.51100000000E-03 0. -1.
    9900012    2    1    2    0    0 -0.15361275348E+02  0.19200222761E+02  0.35763200179E+02  0.47787264736E+02  0.19999971237E+02 0.  0.
         12    1    1    2    0    0  0.15361275348E+02 -0.19200222761E+02 -0.35763200179E+02  0.43400735264E+02  0.00000000000E+00 0. -1.
         11    1    3    3    0    0 -0.10572630568E+02  0.93949550160E+01  0.11474099417E+02  0.18212650948E+02  0.51100000000E-03 0. -1.
        -11    1    3    3    0    0 -0.56940944043E+01  0.80052503189E+01  0.25428294754E+02  0.27259950809E+02  0.51100000000E-03 0.  1.
        -12    1    3    3    0    0  0.90544962367E+00  0.18000174263E+01 -0.11391939915E+01  0.23146629790E+01  0.00000000000E+00 0.  1.
</event>
<event>
 7    1  0.2706925E-010  0.4778727E+02  0.7816164E-02  0.1312668E+00
        -11   -1    0    0    0    0  0.00000000000E+00  0.00000000000E+00  0.45593999997E+02  0.45594000000E+02  0.51100000000E-03 0. -1.
         11   -1    0    0    0    0 -0.00000000000E+00 -0.00000000000E+00 -0.45593999997E+02  0.45594000000E+02  0.51100000000E-03 0.  1.
    9900012    2    1    2    0    0 -0.49928190609E+00  0.35984250205E+02 -0.24259176569E+02  0.47787271976E+02  0.20000004246E+02 0.  0.
         12    1    1    2    0    0  0.49928190609E+00 -0.35984250205E+02  0.24259176569E+02  0.43400728024E+02  0.00000000000E+00 0. -1.
         11    1    3    3    0    0 -0.16125572126E+01  0.66256464083E+01 -0.84434341554E+00  0.68711314321E+01  0.51100000000E-03 0. -1.
        -11    1    3    3    0    0  0.80713561420E+01  0.12552576081E+02 -0.72926967930E+01  0.16610159031E+02  0.51100000000E-03 0.  1.
        -12    1    3    3    0    0 -0.69580808355E+01  0.16806027716E+02 -0.16122136360E+02  0.24305981513E+02  0.00000000000E+00 0.  1.
</event>
<event>
 7    1  0.2706925E-010  0.4778727E+02  0.7816164E-02  0.1312668E+00
        -11   -1    0    0    0    0  0.00000000000E+00  0.00000000000E+00  0.45593999997E+02  0.45594000000E+02  0.51100000000E-03 0. -1.
         11   -1    0    0    0    0 -0.00000000000E+00 -0.00000000000E+00 -0.45593999997E+02  0.45594000000E+02  0.51100000000E-03 0.  1.
    9900012    2    1    2    0    0 -0.12173285513E+02  0.31309111950E+02  0.27480426720E+02  0.47787271619E+02  0.20000002618E+02 0.  0.
         12    1    1    2    0    0  0.12173285513E+02 -0.31309111950E+02 -0.27480426720E+02  0.43400728381E+02  0.00000000000E+00 0. -1.
         11    1    3    3    0    0 -0.17504697722E+01 -0.72023677009E+00  0.54511350559E+00  0.19697802983E+01  0.51100000000E-03 0. -1.
        -11    1    3    3    0    0 -0.24574540695E+01  0.23758821042E+02  0.24223472273E+02  0.34019072107E+02  0.51100000000E-03 0.  1.
        -12    1    3    3    0    0 -0.79653616718E+01  0.82705276787E+01  0.27118409416E+01  0.11798419214E+02  0.00000000000E+00 0.  1.
</event>
<event>
 7    1  0.2706925E-010  0.4778728E+02  0.7816164E-02  0.1312668E+00
        -11   -1    0    0    0    0  0.00000000000E+00  0.00000000000E+00  0.45593999997E+02  0.45594000000E+02  0.51100000000E-03 0. -1.
         11   -1    0    0    0    0 -0.00000000000E+00 -0.00000000000E+00 -0.45593999997E+02  0.45594000000E+02  0.51100000000E-03 0.  1.
    9900012    2    1    2    0    0 -0.35195987582E+02  0.96067783344E+01 -0.23506913365E+02  0.47787277566E+02  0.20000029736E+02 0.  0.
         12    1    1    2    0    0  0.35195987582E+02 -0.96067783344E+01  0.23506913365E+02  0.43400722434E+02  0.00000000000E+00 0. -1.
         11    1    3    3    0    0 -0.20177376145E+02  0.26151134237E+01 -0.38565755092E+01  0.20708416193E+02  0.51100000000E-03 0. -1.
        -11    1    3    3    0    0 -0.90263650537E+01  0.92844554148E+00 -0.56555608419E+01  0.10692176855E+02  0.51100000000E-03 0.  1.
         12    1    3    3    0    0 -0.59922463835E+01  0.60632193692E+01 -0.13994777014E+02  0.16386684518E+02  0.00000000000E+00 0. -1.
</event>
<event>
 7    1  0.2706925E-010  0.4778727E+02  0.7816164E-02  0.1312668E+00
        -11   -1    0    0    0    0  0.00000000000E+00  0.00000000000E+00  0.45593999997E+02  0.45594000000E+02  0.51100000000E-03 0.  1.
         11   -1    0    0    0    0 -0.00000000000E+00 -0.00000000000E+00 -0.45593999997E+02  0.45594000000E+02  0.51100000000E-03 0. -1.
    9900012    2    1    2    0    0 -0.22994339057E+02  0.35267016021E+02  0.10541392782E+02  0.47787274090E+02  0.20000013888E+02 0.  0.
         12    1    1    2    0    0  0.22994339057E+02 -0.35267016021E+02 -0.10541392782E+02  0.43400725910E+02  0.00000000000E+00 0. -1.
         11    1    3    3    0    0 -0.45046588887E+00 -0.11801987335E+01  0.20922603962E+01  0.24440422243E+01  0.51100000000E-03 0. -1.
        -11    1    3    3    0    0 -0.17053581193E+02  0.34720102941E+02  0.84183601966E+01  0.39587611299E+02  0.51100000000E-03 0.  1.
         12    1    3    3    0    0 -0.54902919743E+01  0.17271118140E+01  0.30772189538E-01  0.57556205668E+01  0.00000000000E+00 0. -1.
</event>
<event>
 7    1  0.2706925E-010  0.4778727E+02  0.7816164E-02  0.1312668E+00
        -11   -1    0    0    0    0  0.00000000000E+00  0.00000000000E+00  0.45593999997E+02  0.45594000000E+02  0.51100000000E-03 0. -1.
         11   -1    0    0    0    0 -0.00000000000E+00 -0.00000000000E+00 -0.45593999997E+02  0.45594000000E+02  0.51100000000E-03 0.  1.
    9900012    2    1    2    0    0 -0.33399912774E+02  0.18358210486E+02 -0.20761632326E+02  0.47787269103E+02  0.19999991150E+02 0.  0.
         12    1    1    2    0    0  0.33399912774E+02 -0.18358210486E+02  0.20761632326E+02  0.43400730897E+02  0.00000000000E+00 0. -1.
         11    1    3    3    0    0  0.20920727583E+00  0.15009635171E+01 -0.51555308014E+01  0.53736539960E+01  0.51100000000E-03 0. -1.
        -11    1    3    3    0    0 -0.19428901308E+02  0.12847764876E+02 -0.39508495977E+01  0.23625335577E+02  0.51100000000E-03 0.  1.
        -12    1    3    3    0    0 -0.14180218742E+02  0.40094820922E+01 -0.11655251927E+02  0.18788279530E+02  0.00000000000E+00 0.  1.
</event>
<event>
 7    1  0.2706925E-010  0.4778727E+02  0.7816164E-02  0.1312668E+00
        -11   -1    0    0    0    0  0.00000000000E+00  0.00000000000E+00  0.45593999997E+02  0.45594000000E+02  0.51100000000E-03 0. -1.
         11   -1    0    0    0    0 -0.00000000000E+00 -0.00000000000E+00 -0.45593999997E+02  0.45594000000E+02  0.51100000000E-03 0.  1.
    9900012    2    1    2    0    0 -0.26586259920E+02 -0.99665920022E+01 -0.32824704445E+02  0.47787269654E+02  0.19999993660E+02 0.  0.
         12    1    1    2    0    0  0.26586259920E+02  0.99665920022E+01  0.32824704445E+02  0.43400730346E+02  0.00000000000E+00 0. -1.
         11    1    3    3    0    0 -0.68261677715E+01  0.22243914171E+01 -0.16326182985E+01  0.73627390549E+01  0.51100000000E-03 0. -1.
        -11    1    3    3    0    0 -0.16068894025E+02 -0.80893564190E+01 -0.29674049658E+02  0.34701531175E+02  0.51100000000E-03 0.  1.
         12    1    3    3    0    0 -0.36911981228E+01 -0.41016270003E+01 -0.15180364883E+01  0.57229994243E+01  0.00000000000E+00 0. -1.
</event>
<event>
 7    1  0.2706925E-010  0.4778725E+02  0.7816164E-02  0.1312668E+00
        -11   -1    0    0    0    0  0.00000000000E+00  0.00000000000E+00  0.45593999997E+02  0.45594000000E+02  0.51100000000E-03 0.  1.
         11   -1    0    0    0    0 -0.00000000000E+00 -0.00000000000E+00 -0.45593999997E+02  0.45594000000E+02  0.51100000000E-03 0. -1.
    9900012    2    1    2    0    0  0.29249884106E+02  0.85533832078E+01  0.30901601045E+02  0.47787250794E+02  0.19999907669E+02 0.  0.
         12    1    1    2    0    0 -0.29249884106E+02 -0.85533832078E+01 -0.30901601045E+02  0.43400749206E+02  0.00000000000E+00 0. -1.
         11    1    3    3    0    0  0.64523350143E+01  0.11284686415E+02  0.11240966344E+02  0.17185345479E+02  0.51100000000E-03 0. -1.
        -11    1    3    3    0    0  0.12304318703E+02  0.41157017854E+00  0.12313489875E+02  0.17412285374E+02  0.51100000000E-03 0.  1.
         12    1    3    3    0    0  0.10493230389E+02 -0.31428733857E+01  0.73471448247E+01  0.13189619941E+02  0.00000000000E+00 0. -1.
</event>
<event>
 7    1  0.2706925E-010  0.4778728E+02  0.7816164E-02  0.1312668E+00
        -11   -1    0    0    0    0  0.00000000000E+00  0.00000000000E+00  0.45593999997E+02  0.45594000000E+02  0.51100000000E-03 0.  1.
         11   -1    0    0    0    0 -0.00000000000E+00 -0.00000000000E+00 -0.45593999997E+02  0.45594000000E+02  0.51100000000E-03 0. -1.
    9900012    2    1    2    0    0  0.33686141879E+02  0.22186708273E+00  0.27364523788E+02  0.47787279478E+02  0.20000038452E+02 0.  0.
         12    1    1    2    0    0 -0.33686141879E+02 -0.22186708273E+00 -0.27364523788E+02  0.43400720522E+02  0.00000000000E+00 0. -1.
         11    1    3    3    0    0  0.60692398016E+01  0.51866429379E+01  0.11210475802E+02  0.13762692495E+02  0.51100000000E-03 0. -1.
        -11    1    3    3    0    0  0.14276027639E+02 -0.40562055597E+01  0.27547772563E+01  0.15094587331E+02  0.51100000000E-03 0.  1.
        -12    1    3    3    0    0  0.13340874438E+02 -0.90857029550E+00  0.13399270730E+02  0.18929999653E+02  0.00000000000E+00 0.  1.
</event>
<event>
 7    1  0.2706925E-010  0.4778727E+02  0.7816164E-02  0.1312668E+00
        -11   -1    0    0    0    0  0.00000000000E+00  0.00000000000E+00  0.45593999997E+02  0.45594000000E+02  0.51100000000E-03 0.  1.
         11   -1    0    0    0    0 -0.00000000000E+00 -0.00000000000E+00 -0.45593999997E+02  0.45594000000E+02  0.51100000000E-03 0. -1.
    9900012    2    1    2    0    0  0.30935464938E+02  0.12390154695E+02  0.27804748261E+02  0.47787274774E+02  0.20000017005E+02 0.  0.
         12    1    1    2    0    0 -0.30935464938E+02 -0.12390154695E+02 -0.27804748261E+02  0.43400725226E+02  0.00000000000E+00 0. -1.
         11    1    3    3    0    0  0.12472005000E+01  0.42713867839E+01  0.25119996409E+01  0.51098333243E+01  0.51100000000E-03 0. -1.
        -11    1    3    3    0    0  0.15817940310E+02  0.11772618299E+02  0.17445258167E+02  0.26327529509E+02  0.51100000000E-03 0.  1.
        -12    1    3    3    0    0  0.13870324128E+02 -0.36538503877E+01  0.78474904527E+01  0.16349911941E+02  0.00000000000E+00 0.  1.
</event>
<event>
 7    1  0.2706925E-010  0.4778728E+02  0.7816164E-02  0.1312668E+00
        -11   -1    0    0    0    0  0.00000000000E+00  0.00000000000E+00  0.45593999997E+02  0.45594000000E+02  0.51100000000E-03 0.  1.
         11   -1    0    0    0    0 -0.00000000000E+00 -0.00000000000E+00 -0.45593999997E+02  0.45594000000E+02  0.51100000000E-03 0. -1.
    9900012    2    1    2    0    0  0.33659531150E+02 -0.81402869854E+01  0.26160933329E+02  0.47787277171E+02  0.20000027932E+02 0.  0.
         12    1    1    2    0    0 -0.33659531150E+02  0.81402869854E+01 -0.26160933329E+02  0.43400722829E+02  0.00000000000E+00 0. -1.
         11    1    3    3    0    0 -0.11601079692E+01 -0.38546804204E+01  0.48224828656E+01  0.62817794369E+01  0.51100000000E-03 0. -1.
        -11    1    3    3    0    0  0.17179521385E+02 -0.41631517287E+01  0.13291211752E+02  0.22116150150E+02  0.51100000000E-03 0.  1.
         12    1    3    3    0    0  0.17640117734E+02 -0.12245483619E+00  0.80472387108E+01  0.19389347584E+02  0.00000000000E+00 0. -1.
</event>
<event>
 7    1  0.2706925E-010  0.4778727E+02  0.7816164E-02  0.1312668E+00
        -11   -1    0    0    0    0  0.00000000000E+00  0.00000000000E+00  0.45593999997E+02  0.45594000000E+02  0.51100000000E-03 0.  1.
         11   -1    0    0    0    0 -0.00000000000E+00 -0.00000000000E+00 -0.45593999997E+02  0.45594000000E+02  0.51100000000E-03 0. -1.
    9900012    2    1    2    0    0  0.10440749466E+02 -0.56066306100E+01  0.41751404049E+02  0.47787270787E+02  0.19999998825E+02 0.  0.
         12    1    1    2    0    0 -0.10440749466E+02  0.56066306100E+01 -0.41751404049E+02  0.43400729213E+02  0.00000000000E+00 0. -1.
         11    1    3    3    0    0 -0.72037716493E+00  0.26954917175E+01  0.21596381484E+02  0.21775865363E+02  0.51100000000E-03 0. -1.
        -11    1    3    3    0    0  0.76992198386E+01 -0.73134515030E+01  0.78914040000E+01  0.13230223595E+02  0.51100000000E-03 0.  1.
        -12    1    3    3    0    0  0.34619067919E+01 -0.98867082452E+00  0.12263618565E+02  0.12781181829E+02  0.00000000000E+00 0.  1.
</event>
<event>
 7    1  0.2706925E-010  0.4778727E+02  0.7816164E-02  0.1312668E+00
        -11   -1    0    0    0    0  0.00000000000E+00  0.00000000000E+00  0.45593999997E+02  0.45594000000E+02  0.51100000000E-03 0.  1.
         11   -1    0    0    0    0 -0.00000000000E+00 -0.00000000000E+00 -0.45593999997E+02  0.45594000000E+02  0.51100000000E-03 0. -1.
    9900012    2    1    2    0    0  0.36971942438E+02 -0.22657663709E+02  0.18244975512E+01  0.47787273696E+02  0.20000012091E+02 0.  0.
         12    1    1    2    0    0 -0.36971942438E+02  0.22657663709E+02 -0.18244975512E+01  0.43400726304E+02  0.00000000000E+00 0. -1.
         11    1    3    3    0    0  0.24250704249E+02 -0.10298109217E+02  0.87831847319E+01  0.27772145115E+02  0.51100000000E-03 0. -1.
        -11    1    3    3    0    0  0.49280026713E+01 -0.13600848269E+01 -0.72593706518E+00  0.51635284397E+01  0.51100000000E-03 0.  1.
         12    1    3    3    0    0  0.77932355176E+01 -0.10999469665E+02 -0.62327501155E+01  0.14851600141E+02  0.00000000000E+00 0. -1.
</event>
<event>
 7    1  0.2706925E-010  0.4778728E+02  0.7816164E-02  0.1312668E+00
        -11   -1    0    0    0    0  0.00000000000E+00  0.00000000000E+00  0.45593999997E+02  0.45594000000E+02  0.51100000000E-03 0.  1.
         11   -1    0    0    0    0 -0.00000000000E+00 -0.00000000000E+00 -0.45593999997E+02  0.45594000000E+02  0.51100000000E-03 0. -1.
    9900012    2    1    2    0    0  0.16911425529E+01 -0.33615014546E+02  0.27400602296E+02  0.47787283736E+02  0.20000057867E+02 0.  0.
         12    1    1    2    0    0 -0.16911425529E+01  0.33615014546E+02 -0.27400602296E+02  0.43400716264E+02  0.00000000000E+00 0. -1.
         11    1    3    3    0    0 -0.56578679319E+01 -0.17375316824E+02  0.74640042410E+01  0.19738907362E+02  0.51100000000E-03 0. -1.
        -11    1    3    3    0    0  0.51335972853E+01 -0.66395054990E+01  0.14607894191E+02  0.16847178616E+02  0.51100000000E-03 0.  1.
        -12    1    3    3    0    0  0.22154131994E+01 -0.96001922228E+01  0.53287038641E+01  0.11201197759E+02  0.00000000000E+00 0.  1.
</event>
<event>
 7    1  0.2706925E-010  0.4778727E+02  0.7816164E-02  0.1312668E+00
        -11   -1    0    0    0    0  0.00000000000E+00  0.00000000000E+00  0.45593999997E+02  0.45594000000E+02  0.51100000000E-03 0.  1.
         11   -1    0    0    0    0 -0.00000000000E+00 -0.00000000000E+00 -0.45593999997E+02  0.45594000000E+02  0.51100000000E-03 0. -1.
    9900012    2    1    2    0    0  0.34751515216E+01 -0.88147616513E+01  0.42353825854E+02  0.47787271140E+02  0.20000000437E+02 0.  0.
         12    1    1    2    0    0 -0.34751515216E+01  0.88147616513E+01 -0.42353825854E+02  0.43400728860E+02  0.00000000000E+00 0. -1.
         11    1    3    3    0    0  0.57472230258E+01  0.21122834102E+01  0.53182954195E+01  0.81102762064E+01  0.51100000000E-03 0. -1.
        -11    1    3    3    0    0 -0.52834778807E+01 -0.44890452541E+01  0.21561361323E+02  0.22648597488E+02  0.51100000000E-03 0.  1.
        -12    1    3    3    0    0  0.30114063765E+01 -0.64379998074E+01  0.15474169112E+02  0.17028397446E+02  0.00000000000E+00 0.  1.
</event>
<event>
 7    1  0.2706925E-010  0.4778727E+02  0.7816164E-02  0.1312668E+00
        -11   -1    0    0    0    0  0.00000000000E+00  0.00000000000E+00  0.45593999997E+02  0.45594000000E+02  0.51100000000E-03 0. -1.
         11   -1    0    0    0    0 -0.00000000000E+00 -0.00000000000E+00 -0.45593999997E+02  0.45594000000E+02  0.51100000000E-03 0.  1.
    9900012    2    1    2    0    0 -0.50850099497E+01  0.36704649834E+02 -0.22595011745E+02  0.47787271879E+02  0.20000003807E+02 0.  0.
         12    1    1    2    0    0  0.50850099497E+01 -0.36704649834E+02  0.22595011745E+02  0.43400728121E+02  0.00000000000E+00 0. -1.
         11    1    3    3    0    0 -0.10407971592E+02  0.15164798625E+02 -0.14998496821E+02  0.23732928541E+02  0.51100000000E-03 0. -1.
        -11    1    3    3    0    0  0.63837786966E+01  0.18367421598E+02 -0.69324428512E+01  0.20643971778E+02  0.51100000000E-03 0.  1.
        -12    1    3    3    0    0 -0.10608170541E+01  0.31724296117E+01 -0.66407207222E+00  0.34103715605E+01  0.00000000000E+00 0.  1.
</event>
<event>
 7    1  0.2706925E-010  0.4778726E+02  0.7816164E-02  0.1312668E+00
        -11   -1    0    0    0    0  0.00000000000E+00  0.00000000000E+00  0.45593999997E+02  0.45594000000E+02  0.51100000000E-03 0.  1.
         11   -1    0    0    0    0 -0.00000000000E+00 -0.00000000000E+00 -0.45593999997E+02  0.45594000000E+02  0.51100000000E-03 0. -1.
    9900012    2    1    2    0    0  0.19580715999E+02 -0.38731290908E+02  0.32646857149E+00  0.47787263645E+02  0.19999966264E+02 0.  0.
         12    1    1    2    0    0 -0.19580715999E+02  0.38731290908E+02 -0.32646857149E+00  0.43400736355E+02  0.00000000000E+00 0. -1.
         11    1    3    3    0    0  0.77366138073E+01 -0.25342775184E+02 -0.49841034429E+01  0.26962061023E+02  0.51100000000E-03 0. -1.
        -11    1    3    3    0    0  0.99312353376E+01 -0.42565607229E+01  0.27200739171E+01  0.11142106932E+02  0.51100000000E-03 0.  1.
        -12    1    3    3    0    0  0.19128668542E+01 -0.91319550011E+01  0.25904980973E+01  0.96830956897E+01  0.00000000000E+00 0.  1.
</event>
<event>
 7    1  0.2706925E-010  0.4778726E+02  0.7816164E-02  0.1312668E+00
        -11   -1    0    0    0    0  0.00000000000E+00  0.00000000000E+00  0.45593999997E+02  0.45594000000E+02  0.51100000000E-03 0.  1.
         11   -1    0    0    0    0 -0.00000000000E+00 -0.00000000000E+00 -0.45593999997E+02  0.45594000000E+02  0.51100000000E-03 0. -1.
    9900012    2    1    2    0    0 -0.42821603598E+02  0.47570166009E+01 -0.52254873560E+01  0.47787255078E+02  0.19999927203E+02 0.  0.
         12    1    1    2    0    0  0.42821603598E+02 -0.47570166009E+01  0.52254873560E+01  0.43400744922E+02  0.00000000000E+00 0. -1.
         11    1    3    3    0    0 -0.36710024241E+01 -0.36183407778E+01  0.34066324532E+01  0.61784944537E+01  0.51100000000E-03 0. -1.
        -11    1    3    3    0    0 -0.31809611831E+02  0.60097165068E+01 -0.40168450537E+01  0.32620593829E+02  0.51100000000E-03 0.  1.
         12    1    3    3    0    0 -0.73409893434E+01  0.23656408719E+01 -0.46152747554E+01  0.89881667954E+01  0.00000000000E+00 0. -1.
</event>
<event>
 7    1  0.2706925E-010  0.4778727E+02  0.7816164E-02  0.1312668E+00
        -11   -1    0    0    0    0  0.00000000000E+00  0.00000000000E+00  0.45593999997E+02  0.45594000000E+02  0.51100000000E-03 0. -1.
         11   -1    0    0    0    0 -0.00000000000E+00 -0.00000000000E+00 -0.45593999997E+02  0.45594000000E+02  0.51100000000E-03 0.  1.
    9900012    2    1    2    0    0  0.12351919205E+01 -0.30269943682E+02 -0.31077774148E+02  0.47787271486E+02  0.20000002012E+02 0.  0.
         12    1    1    2    0    0 -0.12351919205E+01  0.30269943682E+02  0.31077774148E+02  0.43400728514E+02  0.00000000000E+00 0. -1.
         11    1    3    3    0    0 -0.26094018784E+01 -0.26509195341E+02 -0.16553824878E+02  0.31362007814E+02  0.51100000000E-03 0.  1.
        -11    1    3    3    0    0  0.32850304574E+00  0.12288125819E+01 -0.46155598003E+01  0.47876181076E+01  0.51100000000E-03 0. -1.
        -12    1    3    3    0    0  0.35160907532E+01 -0.49895609229E+01 -0.99083894703E+01  0.11637645564E+02  0.00000000000E+00 0.  1.
</event>
<event>
 7    1  0.2706925E-010  0.4778727E+02  0.7816164E-02  0.1312668E+00
        -11   -1    0    0    0    0  0.00000000000E+00  0.00000000000E+00  0.45593999997E+02  0.45594000000E+02  0.51100000000E-03 0. -1.
         11   -1    0    0    0    0 -0.00000000000E+00 -0.00000000000E+00 -0.45593999997E+02  0.45594000000E+02  0.51100000000E-03 0.  1.
    9900012    2    1    2    0    0 -0.33091862924E+02  0.22778161620E+01 -0.27988630824E+02  0.47787270817E+02  0.19999998961E+02 0.  0.
         12    1    1    2    0    0  0.33091862924E+02 -0.22778161620E+01  0.27988630824E+02  0.43400729183E+02  0.00000000000E+00 0. -1.
         11    1    3    3    0    0 -0.24530320699E+02  0.91867454627E+01 -0.16291678099E+02  0.30847231664E+02  0.51100000000E-03 0. -1.
        -11    1    3    3    0    0 -0.39120017607E+01 -0.48725170085E+01 -0.31457449249E+01  0.69957766665E+01  0.51100000000E-03 0.  1.
        -12    1    3    3    0    0 -0.46495404650E+01 -0.20364122921E+01 -0.85512078001E+01  0.99442624865E+01  0.00000000000E+00 0.  1.
</event>
<event>
 7    1  0.2706925E-010  0.4778728E+02  0.7816164E-02  0.1312668E+00
        -11   -1    0    0    0    0  0.00000000000E+00  0.00000000000E+00  0.45593999997E+02  0.45594000000E+02  0.51100000000E-03 0. -1.
         11   -1    0    0    0    0 -0.00000000000E+00 -0.00000000000E+00 -0.45593999997E+02  0.45594000000E+02  0.51100000000E-03 0.  1.
    9900012    2    1    2    0    0 -0.12918707569E+02  0.34301813680E+02 -0.23240381306E+02  0.47787277077E+02  0.20000027506E+02 0.  0.
         12    1    1    2    0    0  0.12918707569E+02 -0.34301813680E+02  0.23240381306E+02  0.43400722923E+02  0.00000000000E+00 0. -1.
         11    1    3    3    0    0 -0.55665727765E+01  0.63015160539E+00 -0.36953799847E+01  0.67111591409E+01  0.51100000000E-03 0. -1.
        -11    1    3    3    0    0 -0.39920229374E+01  0.32214005597E+02 -0.17354080989E+02  0.36808185652E+02  0.51100000000E-03 0.  1.
        -12    1    3    3    0    0 -0.33601118547E+01  0.14576564772E+01 -0.21909203325E+01  0.42679322845E+01  0.00000000000E+00 0.  1.
</event>
<event>
 7    1  0.2706925E-010  0.4778727E+02  0.7816164E-02  0.1312668E+00
        -11   -1    0    0    0    0  0.00000000000E+00  0.00000000000E+00  0.45593999997E+02  0.45594000000E+02  0.51100000000E-03 0.  1.
         11   -1    0    0    0    0 -0.00000000000E+00 -0.00000000000E+00 -0.45593999997E+02  0.45594000000E+02  0.51100000000E-03 0. -1.
    9900012    2    1    2    0    0 -0.98626694987E+01  0.22997259290E+02  0.35460923737E+02  0.47787270781E+02  0.19999998799E+02 0.  0.
         12    1    1    2    0    0  0.98626694987E+01 -0.22997259290E+02 -0.35460923737E+02  0.43400729219E+02  0.00000000000E+00 0. -1.
         11    1    3    3    0    0 -0.11004970055E+02  0.84640500556E+01  0.19262683046E+02  0.23744482889E+02  0.51100000000E-03 0. -1.
        -11    1    3    3    0    0  0.13211385682E+01  0.13879424677E+02  0.17619347226E+02  0.22468316213E+02  0.51100000000E-03 0.  1.
        -12    1    3    3    0    0 -0.17883801163E+00  0.65378455753E+00 -0.14211065363E+01  0.15744716795E+01  0.00000000000E+00 0.  1.
</event>
<event>
 7    1  0.2706925E-010  0.4778726E+02  0.7816164E-02  0.1312668E+00
        -11   -1    0    0    0    0  0.00000000000E+00  0.00000000000E+00  0.45593999997E+02  0.45594000000E+02  0.51100000000E-03 0.  1.
         11   -1    0    0    0    0 -0.00000000000E+00 -0.00000000000E+00 -0.45593999997E+02  0.45594000000E+02  0.51100000000E-03 0. -1.
    9900012    2    1    2    0    0  0.33620517295E+02  0.11240635598E+02 -0.25038639133E+02  0.47787256672E+02  0.19999934469E+02 0.  0.
         12    1    1    2    0    0 -0.33620517295E+02 -0.11240635598E+02  0.25038639133E+02  0.43400743328E+02  0.00000000000E+00 0. -1.
         11    1    3    3    0    0  0.17176865206E+02 -0.21462977364E+01 -0.94125368833E+01  0.19703988000E+02  0.51100000000E-03 0. -1.
        -11    1    3    3    0    0  0.10222384252E+02  0.91904274586E+01 -0.41276088240E+01  0.14352639184E+02  0.51100000000E-03 0.  1.
         12    1    3    3    0    0  0.62212678365E+01  0.41965058763E+01 -0.11498493426E+02  0.13730629488E+02  0.00000000000E+00 0. -1.
</event>
<event>
 7    1  0.2706925E-010  0.4778728E+02  0.7816164E-02  0.1312668E+00
        -11   -1    0    0    0    0  0.00000000000E+00  0.00000000000E+00  0.45593999997E+02  0.45594000000E+02  0.51100000000E-03 0.  1.
         11   -1    0    0    0    0 -0.00000000000E+00 -0.00000000000E+00 -0.45593999997E+02  0.45594000000E+02  0.51100000000E-03 0. -1.
    9900012    2    1    2    0    0 -0.13872974535E+02 -0.27409717783E+02  0.30657309299E+02  0.47787278061E+02  0.20000031990E+02 0.  0.
         12    1    1    2    0    0  0.13872974535E+02  0.27409717783E+02 -0.30657309299E+02  0.43400721939E+02  0.00000000000E+00 0. -1.
         11    1    3    3    0    0 -0.48343182393E+01 -0.13877673023E+02  0.21023469986E+02  0.25650472352E+02  0.51100000000E-03 0. -1.
        -11    1    3    3    0    0  0.11252659561E+01 -0.60698414833E+01  0.68552601384E+01  0.92251715936E+01  0.51100000000E-03 0.  1.
        -12    1    3    3    0    0 -0.10163922252E+02 -0.74622032765E+01  0.27785791742E+01  0.12911634115E+02  0.00000000000E+00 0.  1.
</event>
<event>
 7    1  0.2706925E-010  0.4778727E+02  0.7816164E-02  0.1312668E+00
        -11   -1    0    0    0    0  0.00000000000E+00  0.00000000000E+00  0.45593999997E+02  0.45594000000E+02  0.51100000000E-03 0.  1.
         11   -1    0    0    0    0 -0.00000000000E+00 -0.00000000000E+00 -0.45593999997E+02  0.45594000000E+02  0.51100000000E-03 0. -1.
    9900012    2    1    2    0    0  0.11063932348E+02 -0.41781512995E+02  0.39392667957E+01  0.47787271319E+02  0.20000001252E+02 0.  0.
         12    1    1    2    0    0 -0.11063932348E+02  0.41781512995E+02 -0.39392667957E+01  0.43400728681E+02  0.00000000000E+00 0. -1.
         11    1    3    3    0    0  0.79798077919E+01 -0.11379452448E+02 -0.37760496548E+01  0.14402354726E+02  0.51100000000E-03 0. -1.
        -11    1    3    3    0    0  0.24904948652E+01 -0.11264912797E+02  0.83280740879E+01  0.14228761130E+02  0.51100000000E-03 0.  1.
        -12    1    3    3    0    0  0.59362969085E+00 -0.19137147750E+02 -0.61275763743E+00  0.19156155463E+02  0.00000000000E+00 0.  1.
</event>
<event>
 7    1  0.2706925E-010  0.4778731E+02  0.7816164E-02  0.1312668E+00
        -11   -1    0    0    0    0  0.00000000000E+00  0.00000000000E+00  0.45593999997E+02  0.45594000000E+02  0.51100000000E-03 0. -1.
         11   -1    0    0    0    0 -0.00000000000E+00 -0.00000000000E+00 -0.45593999997E+02  0.45594000000E+02  0.51100000000E-03 0.  1.
    9900012    2    1    2    0    0 -0.25451847076E+02 -0.35151612577E+02  0.43345439240E+00  0.47787305662E+02  0.20000157833E+02 0.  0.
         12    1    1    2    0    0  0.25451847076E+02  0.35151612577E+02 -0.43345439240E+00  0.43400694338E+02  0.00000000000E+00 0. -1.
         11    1    3    3    0    0 -0.91540259808E+01 -0.11790561771E+02  0.90950730810E+01  0.17479527830E+02  0.51100000000E-03 0. -1.
        -11    1    3    3    0    0 -0.83917166860E+01 -0.80739803522E+01 -0.51960981095E+01  0.12751843141E+02  0.51100000000E-03 0.  1.
         12    1    3    3    0    0 -0.79061044088E+01 -0.15287070454E+02 -0.34655205791E+01  0.17555934691E+02  0.00000000000E+00 0. -1.
</event>
<event>
 7    1  0.2706925E-010  0.4778726E+02  0.7816164E-02  0.1312668E+00
        -11   -1    0    0    0    0  0.00000000000E+00  0.00000000000E+00  0.45593999997E+02  0.45594000000E+02  0.51100000000E-03 0.  1.
         11   -1    0    0    0    0 -0.00000000000E+00 -0.00000000000E+00 -0.45593999997E+02  0.45594000000E+02  0.51100000000E-03 0. -1.
    9900012    2    1    2    0    0  0.41357136702E+02  0.12554863387E+02  0.39480042195E+01  0.47787261663E+02  0.19999957228E+02 0.  0.
         12    1    1    2    0    0 -0.41357136702E+02 -0.12554863387E+02 -0.39480042195E+01  0.43400738337E+02  0.00000000000E+00 0. -1.
         11    1    3    3    0    0  0.62791092892E+01  0.95901895878E+01  0.21742483625E+01  0.11667317858E+02  0.51100000000E-03 0. -1.
        -11    1    3    3    0    0  0.93885641574E+01  0.29486631782E+01 -0.23092322306E+01  0.10108031719E+02  0.51100000000E-03 0.  1.
         12    1    3    3    0    0  0.25689463255E+02  0.16010621316E-01  0.40829880876E+01  0.26011912086E+02  0.00000000000E+00 0. -1.
</event>
<event>
 7    1  0.2706925E-010  0.4778727E+02  0.7816164E-02  0.1312668E+00
        -11   -1    0    0    0    0  0.00000000000E+00  0.00000000000E+00  0.45593999997E+02  0.45594000000E+02  0.51100000000E-03 0.  1.
         11   -1    0    0    0    0 -0.00000000000E+00 -0.00000000000E+00 -0.45593999997E+02  0.45594000000E+02  0.51100000000E-03 0. -1.
    9900012    2    1    2    0    0  0.29058080417E+02  0.36306096445E+01  0.32032321988E+02  0.47787274017E+02  0.20000013552E+02 0.  0.
         12    1    1    2    0    0 -0.29058080417E+02 -0.36306096445E+01 -0.32032321988E+02  0.43400725983E+02  0.00000000000E+00 0. -1.
         11    1    3    3    0    0  0.19289880985E+02 -0.47732792632E+01  0.13090030588E+02  0.23795642550E+02  0.51100000000E-03 0. -1.
        -11    1    3    3    0    0  0.12317471280E+01  0.47048142471E+01  0.98388808767E+01  0.10975247389E+02  0.51100000000E-03 0.  1.
         12    1    3    3    0    0  0.85364523044E+01  0.36990746606E+01  0.91034105234E+01  0.13016384077E+02  0.00000000000E+00 0. -1.
</event>
<event>
 7    1  0.2706925E-010  0.4778727E+02  0.7816164E-02  0.1312668E+00
        -11   -1    0    0    0    0  0.00000000000E+00  0.00000000000E+00  0.45593999997E+02  0.45594000000E+02  0.51100000000E-03 0.  1.
         11   -1    0    0    0    0 -0.00000000000E+00 -0.00000000000E+00 -0.45593999997E+02  0.45594000000E+02  0.51100000000E-03 0. -1.
    9900012    2    1    2    0    0 -0.40110728070E+02  0.12736463119E+02  0.10608255742E+02  0.47787273175E+02  0.20000009712E+02 0.  0.
         12    1    1    2    0    0  0.40110728070E+02 -0.12736463119E+02 -0.10608255742E+02  0.43400726825E+02  0.00000000000E+00 0. -1.
         11    1    3    3    0    0 -0.78284217477E+01 -0.37470160734E+01  0.41116259802E+00  0.86886921603E+01  0.51100000000E-03 0. -1.
        -11    1    3    3    0    0 -0.29073625398E+02  0.10700965971E+02  0.70386001886E+01  0.31769926965E+02  0.51100000000E-03 0.  1.
         12    1    3    3    0    0 -0.32086809251E+01  0.57825132212E+01  0.31584929549E+01  0.73286540495E+01  0.00000000000E+00 0. -1.
</event>
<event>
 7    1  0.2706925E-010  0.4778728E+02  0.7816164E-02  0.1312668E+00
        -11   -1    0    0    0    0  0.00000000000E+00  0.00000000000E+00  0.45593999997E+02  0.45594000000E+02  0.51100000000E-03 0. -1.
         11   -1    0    0    0    0 -0.00000000000E+00 -0.00000000000E+00 -0.45593999997E+02  0.45594000000E+02  0.51100000000E-03 0.  1.
    9900012    2    1    2    0    0  0.13780351272E+02  0.31993470024E+02 -0.25887107625E+02  0.47787279423E+02  0.20000038203E+02 0.  0.
         12    1    1    2    0    0 -0.13780351272E+02 -0.31993470024E+02  0.25887107625E+02  0.43400720577E+02  0.00000000000E+00 0. -1.
         11    1    3    3    0    0  0.28982729332E+01  0.39113390824E+01 -0.13171749745E+02  0.14042562125E+02  0.51100000000E-03 0. -1.
        -11    1    3    3    0    0  0.11492123111E+02  0.26995198192E+02 -0.13473993991E+02  0.32285571597E+02  0.51100000000E-03 0.  1.
        -12    1    3    3    0    0 -0.61004477270E+00  0.10869327502E+01  0.75863611149E+00  0.14591457014E+01  0.00000000000E+00 0.  1.
</event>
<event>
 7    1  0.2706925E-010  0.4778727E+02  0.7816164E-02  0.1312668E+00
        -11   -1    0    0    0    0  0.00000000000E+00  0.00000000000E+00  0.45593999997E+02  0.45594000000E+02  0.51100000000E-03 0.  1.
         11   -1    0    0    0    0 -0.00000000000E+00 -0.00000000000E+00 -0.45593999997E+02  0.45594000000E+02  0.51100000000E-03 0. -1.
    9900012    2    1    2    0    0 -0.21987307112E+02  0.14424382763E+02  0.34527078632E+02  0.47787266700E+02  0.19999980193E+02 0.  0.
         12    1    1    2    0    0  0.21987307112E+02 -0.14424382763E+02 -0.34527078632E+02  0.43400733300E+02  0.00000000000E+00 0. -1.
         11    1    3    3    0    0 -0.50219545861E+01 -0.22159980567E+00  0.20427454216E+01  0.54260430755E+01  0.51100000000E-03 0. -1.
        -11    1    3    3    0    0 -0.77222437700E+01  0.14514961180E+01  0.21425379152E+02  0.22820752877E+02  0.51100000000E-03 0.  1.
        -12    1    3    3    0    0 -0.92431087555E+01  0.13194486451E+02  0.11058954058E+02  0.19540470748E+02  0.00000000000E+00 0.  1.
</event>
<event>
 7    1  0.2706925E-010  0.4778726E+02  0.7816164E-02  0.1312668E+00
        -11   -1    0    0    0    0  0.00000000000E+00  0.00000000000E+00  0.45593999997E+02  0.45594000000E+02  0.51100000000E-03 0.  1.
         11   -1    0    0    0    0 -0.00000000000E+00 -0.00000000000E+00 -0.45593999997E+02  0.45594000000E+02  0.51100000000E-03 0. -1.
    9900012    2    1    2    0    0  0.36091979082E+02  0.60517176834E+01  0.23331736738E+02  0.47787260603E+02  0.19999952395E+02 0.  0.
         12    1    1    2    0    0 -0.36091979082E+02 -0.60517176834E+01 -0.23331736738E+02  0.43400739397E+02  0.00000000000E+00 0. -1.
         11    1    3    3    0    0  0.25933461571E+02  0.40697912155E+01  0.23900101819E+02  0.35501021067E+02  0.51100000000E-03 0. -1.
        -11    1    3    3    0    0  0.81971887932E+01  0.32662111720E+01  0.17425401181E+01  0.89943585572E+01  0.51100000000E-03 0.  1.
         12    1    3    3    0    0  0.19613287176E+01 -0.12842847041E+01 -0.23109051993E+01  0.32918809789E+01  0.00000000000E+00 0. -1.
</event>
<event>
 7    1  0.2706925E-010  0.4778728E+02  0.7816164E-02  0.1312668E+00
        -11   -1    0    0    0    0  0.00000000000E+00  0.00000000000E+00  0.45593999997E+02  0.45594000000E+02  0.51100000000E-03 0.  1.
         11   -1    0    0    0    0 -0.00000000000E+00 -0.00000000000E+00 -0.45593999997E+02  0.45594000000E+02  0.51100000000E-03 0. -1.
    9900012    2    1    2    0    0 -0.28378005140E+02  0.32607476477E+02  0.38812104880E+01  0.47787280043E+02  0.20000041029E+02 0.  0.
         12    1    1    2    0    0  0.28378005140E+02 -0.32607476477E+02 -0.38812104880E+01  0.43400719957E+02  0.00000000000E+00 0. -1.
         11    1    3    3    0    0 -0.14818923953E+01  0.13084250628E+02 -0.30536258744E+01  0.13517331498E+02  0.51100000000E-03 0. -1.
        -11    1    3    3    0    0 -0.22693900452E+02  0.15213000975E+02  0.41399873704E+01  0.27633096317E+02  0.51100000000E-03 0.  1.
        -12    1    3    3    0    0 -0.42022122930E+01  0.43102248739E+01  0.27948489920E+01  0.66368522288E+01  0.00000000000E+00 0.  1.
</event>
<event>
 7    1  0.2706925E-010  0.4778727E+02  0.7816164E-02  0.1312668E+00
        -11   -1    0    0    0    0  0.00000000000E+00  0.00000000000E+00  0.45593999997E+02  0.45594000000E+02  0.51100000000E-03 0. -1.
         11   -1    0    0    0    0 -0.00000000000E+00 -0.00000000000E+00 -0.45593999997E+02  0.45594000000E+02  0.51100000000E-03 0.  1.
    9900012    2    1    2    0    0 -0.29916068654E+02 -0.90504545618E+01 -0.30112146543E+02  0.47787271194E+02  0.20000000681E+02 0.  0.
         12    1    1    2    0    0  0.29916068654E+02  0.90504545618E+01  0.30112146543E+02  0.43400728806E+02  0.00000000000E+00 0. -1.
         11    1    3    3    0    0  0.15017897672E+01 -0.17355048933E+01  0.69788592919E+00  0.23988319597E+01  0.51100000000E-03 0. -1.
        -11    1    3    3    0    0 -0.17639436060E+02 -0.79044248981E+01 -0.20450646426E+02  0.28139981823E+02  0.51100000000E-03 0.  1.
        -12    1    3    3    0    0 -0.13778422361E+02  0.58947522959E+00 -0.10359386046E+02  0.17248457411E+02  0.00000000000E+00 0.  1.
</event>
<event>
 7    1  0.2706925E-010  0.4778727E+02  0.7816164E-02  0.1312668E+00
        -11   -1    0    0    0    0  0.00000000000E+00  0.00000000000E+00  0.45593999997E+02  0.45594000000E+02  0.51100000000E-03 0.  1.
         11   -1    0    0    0    0 -0.00000000000E+00 -0.00000000000E+00 -0.45593999997E+02  0.45594000000E+02  0.51100000000E-03 0. -1.
    9900012    2    1    2    0    0 -0.37813564813E+02 -0.57402358069E+01  0.20513592923E+02  0.47787268605E+02  0.19999988877E+02 0.  0.
         12    1    1    2    0    0  0.37813564813E+02  0.57402358069E+01 -0.20513592923E+02  0.43400731395E+02  0.00000000000E+00 0. -1.
         11    1    3    3    0    0 -0.59199806588E+01  0.83721458452E+00  0.55441387625E+01  0.81538073401E+01  0.51100000000E-03 0. -1.
        -11    1    3    3    0    0 -0.30334817045E+02 -0.75183227444E+01  0.18023910406E+02  0.36077522762E+02  0.51100000000E-03 0.  1.
        -12    1    3    3    0    0 -0.15587671091E+01  0.94087235297E+00 -0.30544562449E+01  0.35559385029E+01  0.00000000000E+00 0.  1.
</event>
<event>
 7    1  0.2706925E-010  0.4778729E+02  0.7816164E-02  0.1312668E+00
        -11   -1    0    0    0    0  0.00000000000E+00  0.00000000000E+00  0.45593999997E+02  0.45594000000E+02  0.51100000000E-03 0.  1.
         11   -1    0    0    0    0 -0.00000000000E+00 -0.00000000000E+00 -0.45593999997E+02  0.45594000000E+02  0.51100000000E-03 0. -1.
    9900012    2    1    2    0    0 -0.39120229627E+02 -0.50959530726E+01  0.18090345170E+02  0.47787289266E+02  0.20000083081E+02 0.  0.
         12    1    1    2    0    0  0.39120229627E+02  0.50959530726E+01 -0.18090345170E+02  0.43400710734E+02  0.00000000000E+00 0. -1.
         11    1    3    3    0    0 -0.79217380007E+01 -0.48690737255E-01 -0.12321625316E+00  0.79228458426E+01  0.51100000000E-03 0. -1.
        -11    1    3    3    0    0 -0.84970541511E+01  0.54893124851E+01  0.77240732679E+01  0.12727678064E+02  0.51100000000E-03 0.  1.
        -12    1    3    3    0    0 -0.22701437476E+02 -0.10536574820E+02  0.10489488155E+02  0.27136765359E+02  0.00000000000E+00 0.  1.
</event>
<event>
 7    1  0.2706925E-010  0.4778728E+02  0.7816164E-02  0.1312668E+00
        -11   -1    0    0    0    0  0.00000000000E+00  0.00000000000E+00  0.45593999997E+02  0.45594000000E+02  0.51100000000E-03 0.  1.
         11   -1    0    0    0    0 -0.00000000000E+00 -0.00000000000E+00 -0.45593999997E+02  0.45594000000E+02  0.51100000000E-03 0. -1.
    9900012    2    1    2    0    0 -0.78059076229E+01  0.33932012452E+01  0.42557923425E+02  0.47787275873E+02  0.20000022014E+02 0.  0.
         12    1    1    2    0    0  0.78059076229E+01 -0.33932012452E+01 -0.42557923425E+02  0.43400724127E+02  0.00000000000E+00 0. -1.
         11    1    3    3    0    0 -0.55766982866E+01 -0.46666997312E+01  0.89946100430E+01  0.11566358988E+02  0.51100000000E-03 0. -1.
        -11    1    3    3    0    0  0.19462565545E+01  0.89441875449E+01  0.19851641465E+02  0.21860331071E+02  0.51100000000E-03 0.  1.
        -12    1    3    3    0    0 -0.41754658908E+01 -0.88428656858E+00  0.13711671917E+02  0.14360585813E+02  0.00000000000E+00 0.  1.
</event>
<event>
 7    1  0.2706925E-010  0.4778727E+02  0.7816164E-02  0.1312668E+00
        -11   -1    0    0    0    0  0.00000000000E+00  0.00000000000E+00  0.45593999997E+02  0.45594000000E+02  0.51100000000E-03 0.  1.
         11   -1    0    0    0    0 -0.00000000000E+00 -0.00000000000E+00 -0.45593999997E+02  0.45594000000E+02  0.51100000000E-03 0. -1.
    9900012    2    1    2    0    0 -0.45917802804E+01 -0.41991632397E+02  0.99620079791E+01  0.47787271429E+02  0.20000001755E+02 0.  0.
         12    1    1    2    0    0  0.45917802804E+01  0.41991632397E+02 -0.99620079791E+01  0.43400728571E+02  0.00000000000E+00 0. -1.
         11    1    3    3    0    0  0.36190364461E+01 -0.53381409067E+01 -0.19336996472E+01  0.67329315847E+01  0.51100000000E-03 0. -1.
        -11    1    3    3    0    0 -0.94945890826E+01 -0.29069699656E+02  0.55447889251E+01  0.31079564740E+02  0.51100000000E-03 0.  1.
        -12    1    3    3    0    0  0.12837723561E+01 -0.75837918342E+01  0.63509187011E+01  0.99747751050E+01  0.00000000000E+00 0.  1.
</event>
<event>
 7    1  0.2706925E-010  0.4778727E+02  0.7816164E-02  0.1312668E+00
        -11   -1    0    0    0    0  0.00000000000E+00  0.00000000000E+00  0.45593999997E+02  0.45594000000E+02  0.51100000000E-03 0.  1.
         11   -1    0    0    0    0 -0.00000000000E+00 -0.00000000000E+00 -0.45593999997E+02  0.45594000000E+02  0.51100000000E-03 0. -1.
    9900012    2    1    2    0    0  0.30292331540E+02 -0.14654132643E+02  0.27409019699E+02  0.47787270577E+02  0.19999997867E+02 0.  0.
         12    1    1    2    0    0 -0.30292331540E+02  0.14654132643E+02 -0.27409019699E+02  0.43400729423E+02  0.00000000000E+00 0. -1.
         11    1    3    3    0    0  0.22744977945E+02 -0.40409977423E+01  0.21161045171E+02  0.31328158540E+02  0.51100000000E-03 0.  1.
        -11    1    3    3    0    0  0.39994591649E+01 -0.15266325496E+01  0.50669724882E+01  0.66332865919E+01  0.51100000000E-03 0. -1.
         12    1    3    3    0    0  0.35478944296E+01 -0.90865023509E+01  0.11810020395E+01  0.98258254449E+01  0.00000000000E+00 0. -1.
</event>
<event>
 7    1  0.2706925E-010  0.4778727E+02  0.7816164E-02  0.1312668E+00
        -11   -1    0    0    0    0  0.00000000000E+00  0.00000000000E+00  0.45593999997E+02  0.45594000000E+02  0.51100000000E-03 0.  1.
         11   -1    0    0    0    0 -0.00000000000E+00 -0.00000000000E+00 -0.45593999997E+02  0.45594000000E+02  0.51100000000E-03 0. -1.
    9900012    2    1    2    0    0  0.13290232683E+02  0.14883972698E+02  0.38541665852E+02  0.47787274952E+02  0.20000017817E+02 0.  0.
         12    1    1    2    0    0 -0.13290232683E+02 -0.14883972698E+02 -0.38541665852E+02  0.43400725048E+02  0.00000000000E+00 0. -1.
         11    1    3    3    0    0  0.73459855026E+01  0.15790659969E+02  0.21231687748E+02  0.27460753998E+02  0.51100000000E-03 0.  1.
        -11    1    3    3    0    0  0.59692415714E+01  0.88305857307E+00  0.48584815177E+01  0.77470304182E+01  0.51100000000E-03 0. -1.
         12    1    3    3    0    0 -0.24994390971E-01 -0.17897458442E+01  0.12451496586E+02  0.12579490536E+02  0.00000000000E+00 0. -1.
</event>
<event>
 7    1  0.2706925E-010  0.4778727E+02  0.7816164E-02  0.1312668E+00
        -11   -1    0    0    0    0  0.00000000000E+00  0.00000000000E+00  0.45593999997E+02  0.45594000000E+02  0.51100000000E-03 0.  1.
         11   -1    0    0    0    0 -0.00000000000E+00 -0.00000000000E+00 -0.45593999997E+02  0.45594000000E+02  0.51100000000E-03 0. -1.
    9900012    2    1    2    0    0 -0.80969602932E+01  0.21054152365E+02  0.37078093086E+02  0.47787273224E+02  0.20000009938E+02 0.  0.
         12    1    1    2    0    0  0.80969602932E+01 -0.21054152365E+02 -0.37078093086E+02  0.43400726776E+02  0.00000000000E+00 0. -1.
         11    1    3    3    0    0 -0.11037513500E+02  0.13566169861E+02  0.12456145122E+02  0.21471451291E+02  0.51100000000E-03 0. -1.
        -11    1    3    3    0    0 -0.10478774500E+01  0.25194490997E+01  0.51532585824E+01  0.58311015422E+01  0.51100000000E-03 0.  1.
         12    1    3    3    0    0  0.39884306570E+01  0.49685334042E+01  0.19468689381E+02  0.20484720391E+02  0.00000000000E+00 0. -1.
</event>
<event>
 7    1  0.2706925E-010  0.4778728E+02  0.7816164E-02  0.1312668E+00
        -11   -1    0    0    0    0  0.00000000000E+00  0.00000000000E+00  0.45593999997E+02  0.45594000000E+02  0.51100000000E-03 0.  1.
         11   -1    0    0    0    0 -0.00000000000E+00 -0.00000000000E+00 -0.45593999997E+02  0.45594000000E+02  0.51100000000E-03 0. -1.
    9900012    2    1    2    0    0 -0.31134147112E+02 -0.25323755122E+02 -0.16522556738E+02  0.47787279141E+02  0.20000036918E+02 0.  0.
         12    1    1    2    0    0  0.31134147112E+02  0.25323755122E+02  0.16522556738E+02  0.43400720859E+02  0.00000000000E+00 0. -1.
         11    1    3    3    0    0 -0.59439471762E+01 -0.12888609462E+01 -0.91492777714E+01  0.10986398617E+02  0.51100000000E-03 0. -1.
        -11    1    3    3    0    0 -0.25864835024E+02 -0.22394005602E+02 -0.65033364455E+01  0.34824912964E+02  0.51100000000E-03 0.  1.
        -12    1    3    3    0    0  0.67463508793E+00 -0.16408885734E+01 -0.86994252085E+00  0.19759675609E+01  0.00000000000E+00 0.  1.
</event>
<event>
 7    1  0.2706925E-010  0.4778726E+02  0.7816164E-02  0.1312668E+00
        -11   -1    0    0    0    0  0.00000000000E+00  0.00000000000E+00  0.45593999997E+02  0.45594000000E+02  0.51100000000E-03 0. -1.
         11   -1    0    0    0    0 -0.00000000000E+00 -0.00000000000E+00 -0.45593999997E+02  0.45594000000E+02  0.51100000000E-03 0.  1.
    9900012    2    1    2    0    0  0.10831121278E+02 -0.40122393427E+02 -0.12510176948E+02  0.47787260724E+02  0.19999952943E+02 0.  0.
         12    1    1    2    0    0 -0.10831121278E+02  0.40122393427E+02  0.12510176948E+02  0.43400739276E+02  0.00000000000E+00 0. -1.
         11    1    3    3    0    0  0.22284387535E+01 -0.69803593736E+01  0.53487099704E+01  0.90719377683E+01  0.51100000000E-03 0. -1.
        -11    1    3    3    0    0  0.32778753401E+01 -0.12902111916E+02 -0.84622734946E+01  0.15773998593E+02  0.51100000000E-03 0.  1.
         12    1    3    3    0    0  0.53248071846E+01 -0.20239922138E+02 -0.93966134237E+01  0.22941324363E+02  0.00000000000E+00 0. -1.
</event>
<event>
 7    1  0.2706925E-010  0.4778727E+02  0.7816164E-02  0.1312668E+00
        -11   -1    0    0    0    0  0.00000000000E+00  0.00000000000E+00  0.45593999997E+02  0.45594000000E+02  0.51100000000E-03 0.  1.
         11   -1    0    0    0    0 -0.00000000000E+00 -0.00000000000E+00 -0.45593999997E+02  0.45594000000E+02  0.51100000000E-03 0. -1.
    9900012    2    1    2    0    0 -0.12134188800E+00 -0.30348330762E+02  0.31025593496E+02  0.47787270102E+02  0.19999995703E+02 0.  0.
         12    1    1    2    0    0  0.12134188800E+00  0.30348330762E+02 -0.31025593496E+02  0.43400729898E+02  0.00000000000E+00 0. -1.
         11    1    3    3    0    0 -0.76195833585E+01 -0.73137309981E+01  0.44260914525E+01  0.11451593665E+02  0.51100000000E-03 0. -1.
        -11    1    3    3    0    0  0.28709482119E+01 -0.15584313277E+02  0.18908912965E+02  0.24671038765E+02  0.51100000000E-03 0.  1.
         12    1    3    3    0    0  0.46272932586E+01 -0.74502864871E+01  0.76905890787E+01  0.11664637672E+02  0.00000000000E+00 0. -1.
</event>
<event>
 7    1  0.2706925E-010  0.4778727E+02  0.7816164E-02  0.1312668E+00
        -11   -1    0    0    0    0  0.00000000000E+00  0.00000000000E+00  0.45593999997E+02  0.45594000000E+02  0.51100000000E-03 0. -1.
         11   -1    0    0    0    0 -0.00000000000E+00 -0.00000000000E+00 -0.45593999997E+02  0.45594000000E+02  0.51100000000E-03 0.  1.
    9900012    2    1    2    0    0  0.34032681393E+02 -0.22368032582E+02 -0.15002366253E+02  0.47787271002E+02  0.19999999807E+02 0.  0.
         12    1    1    2    0    0 -0.34032681393E+02  0.22368032582E+02  0.15002366253E+02  0.43400728998E+02  0.00000000000E+00 0. -1.
         11    1    3    3    0    0  0.64950429595E+01 -0.10136367213E+02 -0.85186642752E+01  0.14747852882E+02  0.51100000000E-03 0. -1.
        -11    1    3    3    0    0  0.19402951368E+02 -0.22827768451E+01 -0.35295835718E+01  0.19853048944E+02  0.51100000000E-03 0.  1.
        -12    1    3    3    0    0  0.81346870651E+01 -0.99488885241E+01 -0.29541184058E+01  0.13186369177E+02  0.00000000000E+00 0.  1.
</event>
<event>
 7    1  0.2706925E-010  0.4778727E+02  0.7816164E-02  0.1312668E+00
        -11   -1    0    0    0    0  0.00000000000E+00  0.00000000000E+00  0.45593999997E+02  0.45594000000E+02  0.51100000000E-03 0.  1.
         11   -1    0    0    0    0 -0.00000000000E+00 -0.00000000000E+00 -0.45593999997E+02  0.45594000000E+02  0.51100000000E-03 0. -1.
    9900012    2    1    2    0    0  0.24617469573E+02  0.31756156313E+02  0.16405799806E+02  0.47787267987E+02  0.19999986062E+02 0.  0.
         12    1    1    2    0    0 -0.24617469573E+02 -0.31756156313E+02 -0.16405799806E+02  0.43400732013E+02  0.00000000000E+00 0. -1.
         11    1    3    3    0    0  0.18395698575E+02  0.14297756773E+02  0.96318935967E+01  0.25211127490E+02  0.51100000000E-03 0. -1.
        -11    1    3    3    0    0  0.86053747421E+01  0.79650585469E+01  0.42007266739E+01  0.12455550448E+02  0.51100000000E-03 0.  1.
         12    1    3    3    0    0 -0.23836037446E+01  0.94933409935E+01  0.25731795350E+01  0.10120590049E+02  0.00000000000E+00 0. -1.
</event>
<event>
 7    1  0.2706925E-010  0.4778727E+02  0.7816164E-02  0.1312668E+00
        -11   -1    0    0    0    0  0.00000000000E+00  0.00000000000E+00  0.45593999997E+02  0.45594000000E+02  0.51100000000E-03 0.  1.
         11   -1    0    0    0    0 -0.00000000000E+00 -0.00000000000E+00 -0.45593999997E+02  0.45594000000E+02  0.51100000000E-03 0. -1.
    9900012    2    1    2    0    0  0.34640479710E+02  0.25668061286E+02 -0.49810757229E+01  0.47787270512E+02  0.19999997572E+02 0.  0.
         12    1    1    2    0    0 -0.34640479710E+02 -0.25668061286E+02  0.49810757229E+01  0.43400729488E+02  0.00000000000E+00 0. -1.
         11    1    3    3    0    0 -0.27279419949E+00  0.71848636217E+00  0.67942416805E+00  0.10257956859E+01  0.51100000000E-03 0. -1.
        -11    1    3    3    0    0  0.59743158517E+01  0.13919539329E+02  0.62484774432E+00  0.15160358175E+02  0.51100000000E-03 0.  1.
        -12    1    3    3    0    0  0.28938958058E+02  0.11030035595E+02 -0.62853476353E+01  0.31601116651E+02  0.00000000000E+00 0.  1.
</event>
<event>
 7    1  0.2706925E-010  0.4778727E+02  0.7816164E-02  0.1312668E+00
        -11   -1    0    0    0    0  0.00000000000E+00  0.00000000000E+00  0.45593999997E+02  0.45594000000E+02  0.51100000000E-03 0. -1.
         11   -1    0    0    0    0 -0.00000000000E+00 -0.00000000000E+00 -0.45593999997E+02  0.45594000000E+02  0.51100000000E-03 0.  1.
    9900012    2    1    2    0    0  0.38835425393E+02 -0.18319575522E+02 -0.63108273308E+01  0.47787266661E+02  0.19999980012E+02 0.  0.
         12    1    1    2    0    0 -0.38835425393E+02  0.18319575522E+02  0.63108273308E+01  0.43400733339E+02  0.00000000000E+00 0. -1.
         11    1    3    3    0    0  0.20773666172E+02 -0.17893964955E+01 -0.30609537450E+01  0.21074073743E+02  0.51100000000E-03 0. -1.
        -11    1    3    3    0    0  0.14489701587E+02 -0.15621038524E+02 -0.59759199344E+01  0.22128712479E+02  0.51100000000E-03 0.  1.
        -12    1    3    3    0    0  0.35720576347E+01 -0.90914050258E+00  0.27260463485E+01  0.45844804388E+01  0.00000000000E+00 0.  1.
</event>
<event>
 7    1  0.2706925E-010  0.4778728E+02  0.7816164E-02  0.1312668E+00
        -11   -1    0    0    0    0  0.00000000000E+00  0.00000000000E+00  0.45593999997E+02  0.45594000000E+02  0.51100000000E-03 0.  1.
         11   -1    0    0    0    0 -0.00000000000E+00 -0.00000000000E+00 -0.45593999997E+02  0.45594000000E+02  0.51100000000E-03 0. -1.
    9900012    2    1    2    0    0 -0.95517480960E-02 -0.30152036897E+02  0.31216620906E+02  0.47787276031E+02  0.20000022735E+02 0.  0.
         12    1    1    2    0    0  0.95517480960E-02  0.30152036897E+02 -0.31216620906E+02  0.43400723969E+02  0.00000000000E+00 0. -1.
         11    1    3    3    0    0  0.77744714728E+00 -0.57195478827E+01 -0.91782388674E+00  0.58446602123E+01  0.51100000000E-03 0. -1.
        -11    1    3    3    0    0 -0.69648341187E+00 -0.15711276269E+02  0.28382082245E+02  0.32447987364E+02  0.51100000000E-03 0.  1.
        -12    1    3    3    0    0 -0.90515483506E-01 -0.87212127453E+01  0.37523625470E+01  0.94946284543E+01  0.00000000000E+00 0.  1.
</event>
<event>
 7    1  0.2706925E-010  0.4778727E+02  0.7816164E-02  0.1312668E+00
        -11   -1    0    0    0    0  0.00000000000E+00  0.00000000000E+00  0.45593999997E+02  0.45594000000E+02  0.51100000000E-03 0.  1.
         11   -1    0    0    0    0 -0.00000000000E+00 -0.00000000000E+00 -0.45593999997E+02  0.45594000000E+02  0.51100000000E-03 0. -1.
    9900012    2    1    2    0    0  0.20364882631E+01  0.36569449521E+02  0.23284152556E+02  0.47787266331E+02  0.19999978512E+02 0.  0.
         12    1    1    2    0    0 -0.20364882631E+01 -0.36569449521E+02 -0.23284152556E+02  0.43400733669E+02  0.00000000000E+00 0. -1.
         11    1    3    3    0    0 -0.16054635689E+01  0.30129093838E+02  0.21069030135E+02  0.36800052172E+02  0.51100000000E-03 0. -1.
        -11    1    3    3    0    0 -0.15131208901E+01  0.21685151116E+01  0.32745524461E+01  0.42088818706E+01  0.51100000000E-03 0.  1.
         12    1    3    3    0    0  0.51550727221E+01  0.42718405714E+01 -0.10594300254E+01  0.67783322888E+01  0.00000000000E+00 0. -1.
</event>
<event>
 7    1  0.2706925E-010  0.4778727E+02  0.7816164E-02  0.1312668E+00
        -11   -1    0    0    0    0  0.00000000000E+00  0.00000000000E+00  0.45593999997E+02  0.45594000000E+02  0.51100000000E-03 0.  1.
         11   -1    0    0    0    0 -0.00000000000E+00 -0.00000000000E+00 -0.45593999997E+02  0.45594000000E+02  0.51100000000E-03 0. -1.
    9900012    2    1    2    0    0  0.20884643164E+02  0.31110800782E+02  0.21899150520E+02  0.47787273752E+02  0.20000012345E+02 0.  0.
         12    1    1    2    0    0 -0.20884643164E+02 -0.31110800782E+02 -0.21899150520E+02  0.43400726248E+02  0.00000000000E+00 0. -1.
         11    1    3    3    0    0  0.14584058505E+01  0.36418922971E+01  0.31806462239E+01  0.50504294660E+01  0.51100000000E-03 0. -1.
        -11    1    3    3    0    0  0.22815753068E+02  0.25951652385E+02  0.15714769941E+02  0.37960516911E+02  0.51100000000E-03 0.  1.
        -12    1    3    3    0    0 -0.33895157543E+01  0.15172560993E+01  0.30037343548E+01  0.47763273751E+01  0.00000000000E+00 0.  1.
</event>
<event>
 7    1  0.2706925E-010  0.4778722E+02  0.7816164E-02  0.1312668E+00
        -11   -1    0    0    0    0  0.00000000000E+00  0.00000000000E+00  0.45593999997E+02  0.45594000000E+02  0.51100000000E-03 0.  1.
         11   -1    0    0    0    0 -0.00000000000E+00 -0.00000000000E+00 -0.45593999997E+02  0.45594000000E+02  0.51100000000E-03 0. -1.
    9900012    2    1    2    0    0  0.10359998339E+02 -0.22070801037E+02  0.35905126505E+02  0.47787217365E+02  0.19999755253E+02 0.  0.
         12    1    1    2    0    0 -0.10359998339E+02  0.22070801037E+02 -0.35905126505E+02  0.43400782635E+02  0.00000000000E+00 0. -1.
         11    1    3    3    0    0  0.29978382703E+01 -0.80074059758E+00  0.28998088733E+00  0.31164577609E+01  0.51100000000E-03 0. -1.
        -11    1    3    3    0    0 -0.74640679627E+00 -0.18113987936E+02  0.21926460292E+02  0.28450717798E+02  0.51100000000E-03 0.  1.
        -12    1    3    3    0    0  0.81085668652E+01 -0.31560725037E+01  0.13688685325E+02  0.16220041806E+02  0.00000000000E+00 0.  1.
</event>
<event>
 7    1  0.2706925E-010  0.4778727E+02  0.7816164E-02  0.1312668E+00
        -11   -1    0    0    0    0  0.00000000000E+00  0.00000000000E+00  0.45593999997E+02  0.45594000000E+02  0.51100000000E-03 0.  1.
         11   -1    0    0    0    0 -0.00000000000E+00 -0.00000000000E+00 -0.45593999997E+02  0.45594000000E+02  0.51100000000E-03 0. -1.
    9900012    2    1    2    0    0 -0.41892766374E+02  0.61046537719E+01  0.95578688920E+01  0.47787268095E+02  0.19999986550E+02 0.  0.
         12    1    1    2    0    0  0.41892766374E+02 -0.61046537719E+01 -0.95578688920E+01  0.43400731905E+02  0.00000000000E+00 0. -1.
         11    1    3    3    0    0 -0.76881250345E+01  0.53274834613E+01 -0.30735324320E+01  0.98456055399E+01  0.51100000000E-03 0. -1.
        -11    1    3    3    0    0 -0.33873097452E+02  0.10819874155E+01  0.13873756542E+02  0.36620193181E+02  0.51100000000E-03 0.  1.
        -12    1    3    3    0    0 -0.33154388786E+00 -0.30481710482E+00 -0.12423552183E+01  0.13214693736E+01  0.00000000000E+00 0.  1.
</event>
<event>
 7    1  0.2706925E-010  0.4778727E+02  0.7816164E-02  0.1312668E+00
        -11   -1    0    0    0    0  0.00000000000E+00  0.00000000000E+00  0.45593999997E+02  0.45594000000E+02  0.51100000000E-03 0.  1.
         11   -1    0    0    0    0 -0.00000000000E+00 -0.00000000000E+00 -0.45593999997E+02  0.45594000000E+02  0.51100000000E-03 0. -1.
    9900012    2    1    2    0    0 -0.16655526883E+01 -0.11499196428E+02  0.41816479580E+02  0.47787267879E+02  0.19999985566E+02 0.  0.
         12    1    1    2    0    0  0.16655526883E+01  0.11499196428E+02 -0.41816479580E+02  0.43400732121E+02  0.00000000000E+00 0. -1.
         11    1    3    3    0    0 -0.47814441544E+01  0.29834233855E+01  0.44861078479E+01  0.72033455549E+01  0.51100000000E-03 0. -1.
        -11    1    3    3    0    0 -0.97831325451E+00 -0.13199168668E+01  0.81168800411E+01  0.82814865346E+01  0.51100000000E-03 0.  1.
         12    1    3    3    0    0  0.40942047207E+01 -0.13162702946E+02  0.29213491691E+02  0.32302435789E+02  0.00000000000E+00 0. -1.
</event>
<event>
 7    1  0.2706925E-010  0.4778727E+02  0.7816164E-02  0.1312668E+00
        -11   -1    0    0    0    0  0.00000000000E+00  0.00000000000E+00  0.45593999997E+02  0.45594000000E+02  0.51100000000E-03 0.  1.
         11   -1    0    0    0    0 -0.00000000000E+00 -0.00000000000E+00 -0.45593999997E+02  0.45594000000E+02  0.51100000000E-03 0. -1.
    9900012    2    1    2    0    0  0.81393140114E+01 -0.20083163612E+02  0.37603742252E+02  0.47787270460E+02  0.19999997337E+02 0.  0.
         12    1    1    2    0    0 -0.81393140114E+01  0.20083163612E+02 -0.37603742252E+02  0.43400729540E+02  0.00000000000E+00 0. -1.
         11    1    3    3    0    0 -0.52565084041E+01 -0.62574730421E+01  0.14773502083E+02  0.16883222842E+02  0.51100000000E-03 0.  1.
        -11    1    3    3    0    0  0.11325579014E+02 -0.12627428261E+02  0.22915677747E+02  0.28510506332E+02  0.51100000000E-03 0. -1.
        -12    1    3    3    0    0  0.20702434020E+01 -0.11982623094E+01 -0.85437578842E-01  0.23935412855E+01  0.00000000000E+00 0.  1.
</event>
<event>
 7    1  0.2706925E-010  0.4778726E+02  0.7816164E-02  0.1312668E+00
        -11   -1    0    0    0    0  0.00000000000E+00  0.00000000000E+00  0.45593999997E+02  0.45594000000E+02  0.51100000000E-03 0. -1.
         11   -1    0    0    0    0 -0.00000000000E+00 -0.00000000000E+00 -0.45593999997E+02  0.45594000000E+02  0.51100000000E-03 0.  1.
    9900012    2    1    2    0    0 -0.21930429870E+02  0.37262837433E+02  0.37631399514E+01  0.47787262332E+02  0.19999960275E+02 0.  0.
         12    1    1    2    0    0  0.21930429870E+02 -0.37262837433E+02 -0.37631399514E+01  0.43400737668E+02  0.00000000000E+00 0. -1.
         11    1    3    3    0    0 -0.56884207046E+01  0.12015389054E+01  0.38266712701E+01  0.69602614264E+01  0.51100000000E-03 0. -1.
        -11    1    3    3    0    0 -0.17159615106E+02  0.32016122379E+02  0.15951379180E+01  0.36359716006E+02  0.51100000000E-03 0.  1.
        -12    1    3    3    0    0  0.91760594081E+00  0.40451761488E+01 -0.16586692367E+01  0.44672848996E+01  0.00000000000E+00 0.  1.
</event>
<event>
 7    1  0.2706925E-010  0.4778727E+02  0.7816164E-02  0.1312668E+00
        -11   -1    0    0    0    0  0.00000000000E+00  0.00000000000E+00  0.45593999997E+02  0.45594000000E+02  0.51100000000E-03 0.  1.
         11   -1    0    0    0    0 -0.00000000000E+00 -0.00000000000E+00 -0.45593999997E+02  0.45594000000E+02  0.51100000000E-03 0. -1.
    9900012    2    1    2    0    0  0.50866956024E+01  0.17930149717E+00  0.43101241629E+02  0.47787266698E+02  0.19999980184E+02 0.  0.
         12    1    1    2    0    0 -0.50866956024E+01 -0.17930149717E+00 -0.43101241629E+02  0.43400733302E+02  0.00000000000E+00 0. -1.
         11    1    3    3    0    0  0.15469246767E+01 -0.60724016659E+01  0.18570894890E+02  0.19599621813E+02  0.51100000000E-03 0. -1.
        -11    1    3    3    0    0 -0.17218096449E+01 -0.10184662486E+01  0.14862316331E+02  0.14996344519E+02  0.51100000000E-03 0.  1.
         12    1    3    3    0    0  0.52615805706E+01  0.72701694117E+01  0.96680304086E+01  0.13191300366E+02  0.00000000000E+00 0. -1.
</event>
<event>
 7    1  0.2706925E-010  0.4778727E+02  0.7816164E-02  0.1312668E+00
        -11   -1    0    0    0    0  0.00000000000E+00  0.00000000000E+00  0.45593999997E+02  0.45594000000E+02  0.51100000000E-03 0. -1.
         11   -1    0    0    0    0 -0.00000000000E+00 -0.00000000000E+00 -0.45593999997E+02  0.45594000000E+02  0.51100000000E-03 0.  1.
    9900012    2    1    2    0    0  0.37574538740E+02  0.17600864047E+02 -0.12727411364E+02  0.47787269859E+02  0.19999994594E+02 0.  0.
         12    1    1    2    0    0 -0.37574538740E+02 -0.17600864047E+02  0.12727411364E+02  0.43400730141E+02  0.00000000000E+00 0. -1.
         11    1    3    3    0    0  0.73566723297E+01  0.55045467196E+01 -0.98109214985E+00  0.92403032647E+01  0.51100000000E-03 0. -1.
        -11    1    3    3    0    0  0.26632197794E+02  0.16028125569E+02 -0.81818053442E+01  0.32142132903E+02  0.51100000000E-03 0.  1.
        -12    1    3    3    0    0  0.35856686165E+01 -0.39318082418E+01 -0.35645138703E+01  0.64048336910E+01  0.00000000000E+00 0.  1.
</event>
<event>
 7    1  0.2706925E-010  0.4778727E+02  0.7816164E-02  0.1312668E+00
        -11   -1    0    0    0    0  0.00000000000E+00  0.00000000000E+00  0.45593999997E+02  0.45594000000E+02  0.51100000000E-03 0.  1.
         11   -1    0    0    0    0 -0.00000000000E+00 -0.00000000000E+00 -0.45593999997E+02  0.45594000000E+02  0.51100000000E-03 0. -1.
    9900012    2    1    2    0    0  0.20016434082E+02  0.27566777472E+02  0.26889376629E+02  0.47787269257E+02  0.19999991850E+02 0.  0.
         12    1    1    2    0    0 -0.20016434082E+02 -0.27566777472E+02 -0.26889376629E+02  0.43400730743E+02  0.00000000000E+00 0. -1.
         11    1    3    3    0    0  0.15296360607E+02  0.19702650200E+02  0.76573688777E+01  0.26092304826E+02  0.51100000000E-03 0. -1.
        -11    1    3    3    0    0  0.93451450903E+00  0.40539589844E+01  0.11899315509E+02  0.12605618218E+02  0.51100000000E-03 0.  1.
         12    1    3    3    0    0  0.37855589656E+01  0.38101682874E+01  0.73326922427E+01  0.90893462134E+01  0.00000000000E+00 0. -1.
</event>
<event>
 7    1  0.2706925E-010  0.4778728E+02  0.7816164E-02  0.1312668E+00
        -11   -1    0    0    0    0  0.00000000000E+00  0.00000000000E+00  0.45593999997E+02  0.45594000000E+02  0.51100000000E-03 0.  1.
         11   -1    0    0    0    0 -0.00000000000E+00 -0.00000000000E+00 -0.45593999997E+02  0.45594000000E+02  0.51100000000E-03 0. -1.
    9900012    2    1    2    0    0  0.34771897304E+02  0.25638700690E+02  0.41466110662E+01  0.47787283433E+02  0.20000056486E+02 0.  0.
         12    1    1    2    0    0 -0.34771897304E+02 -0.25638700690E+02 -0.41466110662E+01  0.43400716567E+02  0.00000000000E+00 0. -1.
         11    1    3    3    0    0  0.10756557263E+02  0.34184618109E+01  0.40289838472E+01  0.11984244507E+02  0.51100000000E-03 0. -1.
        -11    1    3    3    0    0  0.16053070048E+02  0.13137979042E+02 -0.68666075256E+01  0.21850808920E+02  0.51100000000E-03 0.  1.
        -12    1    3    3    0    0  0.79622699924E+01  0.90822598369E+01  0.69842347446E+01  0.13952230006E+02  0.00000000000E+00 0.  1.
</event>
<event>
 7    1  0.2706925E-010  0.4778722E+02  0.7816164E-02  0.1312668E+00
        -11   -1    0    0    0    0  0.00000000000E+00  0.00000000000E+00  0.45593999997E+02  0.45594000000E+02  0.51100000000E-03 0. -1.
         11   -1    0    0    0    0 -0.00000000000E+00 -0.00000000000E+00 -0.45593999997E+02  0.45594000000E+02  0.51100000000E-03 0.  1.
    9900012    2    1    2    0    0  0.11651818026E+02 -0.12423157706E+02 -0.39919016563E+02  0.47787221274E+02  0.19999773074E+02 0.  0.
         12    1    1    2    0    0 -0.11651818026E+02  0.12423157706E+02  0.39919016563E+02  0.43400778726E+02  0.00000000000E+00 0. -1.
         11    1    3    3    0    0  0.14158325264E+01 -0.58677370646E+01 -0.10065020395E+01  0.61194743744E+01  0.51100000000E-03 0. -1.
        -11    1    3    3    0    0 -0.14757237649E+00 -0.37412724426E+01 -0.63226287167E+01  0.73480971174E+01  0.51100000000E-03 0.  1.
         12    1    3    3    0    0  0.10383557876E+02 -0.28141481983E+01 -0.32589885807E+02  0.34319649782E+02  0.00000000000E+00 0. -1.
</event>
<event>
 7    1  0.2706925E-010  0.4778727E+02  0.7816164E-02  0.1312668E+00
        -11   -1    0    0    0    0  0.00000000000E+00  0.00000000000E+00  0.45593999997E+02  0.45594000000E+02  0.51100000000E-03 0.  1.
         11   -1    0    0    0    0 -0.00000000000E+00 -0.00000000000E+00 -0.45593999997E+02  0.45594000000E+02  0.51100000000E-03 0. -1.
    9900012    2    1    2    0    0  0.29209211949E+02 -0.15870196684E+02  0.27903085753E+02  0.47787269591E+02  0.19999993375E+02 0.  0.
         12    1    1    2    0    0 -0.29209211949E+02  0.15870196684E+02 -0.27903085753E+02  0.43400730409E+02  0.00000000000E+00 0. -1.
         11    1    3    3    0    0 -0.55712499387E+00 -0.52536937289E+01  0.24061292778E+01  0.58052686776E+01  0.51100000000E-03 0. -1.
        -11    1    3    3    0    0  0.25072490863E+02 -0.11556797856E+02  0.24862874546E+02  0.37153087432E+02  0.51100000000E-03 0.  1.
         12    1    3    3    0    0  0.46938460798E+01  0.94029490105E+00  0.63408192883E+00  0.48289134818E+01  0.00000000000E+00 0. -1.
</event>
<event>
 7    1  0.2706925E-010  0.4778727E+02  0.7816164E-02  0.1312668E+00
        -11   -1    0    0    0    0  0.00000000000E+00  0.00000000000E+00  0.45593999997E+02  0.45594000000E+02  0.51100000000E-03 0.  1.
         11   -1    0    0    0    0 -0.00000000000E+00 -0.00000000000E+00 -0.45593999997E+02  0.45594000000E+02  0.51100000000E-03 0. -1.
    9900012    2    1    2    0    0 -0.31489920782E+02 -0.10829318334E+02  0.27834041669E+02  0.47787272793E+02  0.20000007974E+02 0.  0.
         12    1    1    2    0    0  0.31489920782E+02  0.10829318334E+02 -0.27834041669E+02  0.43400727207E+02  0.00000000000E+00 0. -1.
         11    1    3    3    0    0 -0.55313844667E+01 -0.16546576844E+01  0.13959924287E+02  0.15106739970E+02  0.51100000000E-03 0. -1.
        -11    1    3    3    0    0 -0.25482048190E+02 -0.65434394910E+01  0.14344824394E+02  0.29965402842E+02  0.51100000000E-03 0.  1.
        -12    1    3    3    0    0 -0.47648812533E+00 -0.26312211591E+01 -0.47070701222E+00  0.27151299809E+01  0.00000000000E+00 0.  1.
</event>
<event>
 7    1  0.2706925E-010  0.4778727E+02  0.7816164E-02  0.1312668E+00
        -11   -1    0    0    0    0  0.00000000000E+00  0.00000000000E+00  0.45593999997E+02  0.45594000000E+02  0.51100000000E-03 0.  1.
         11   -1    0    0    0    0 -0.00000000000E+00 -0.00000000000E+00 -0.45593999997E+02  0.45594000000E+02  0.51100000000E-03 0. -1.
    9900012    2    1    2    0    0  0.12543173291E+02 -0.32733121536E+02  0.25589742765E+02  0.47787269862E+02  0.19999994610E+02 0.  0.
         12    1    1    2    0    0 -0.12543173291E+02  0.32733121536E+02 -0.25589742765E+02  0.43400730138E+02  0.00000000000E+00 0. -1.
         11    1    3    3    0    0 -0.31406294449E+00 -0.84340880414E+00 -0.27688039289E+01  0.29113999041E+01  0.51100000000E-03 0. -1.
        -11    1    3    3    0    0  0.88328021142E+01 -0.27152916127E+02  0.23712133082E+02  0.37115556078E+02  0.51100000000E-03 0.  1.
         12    1    3    3    0    0  0.40244341213E+01 -0.47367966042E+01  0.46464136118E+01  0.77603138801E+01  0.00000000000E+00 0. -1.
</event>
<event>
 7    1  0.2706925E-010  0.4778728E+02  0.7816164E-02  0.1312668E+00
        -11   -1    0    0    0    0  0.00000000000E+00  0.00000000000E+00  0.45593999997E+02  0.45594000000E+02  0.51100000000E-03 0.  1.
         11   -1    0    0    0    0 -0.00000000000E+00 -0.00000000000E+00 -0.45593999997E+02  0.45594000000E+02  0.51100000000E-03 0. -1.
    9900012    2    1    2    0    0 -0.29612259491E+02  0.20930227653E+02 -0.23846645743E+02  0.47787275871E+02  0.20000022006E+02 0.  0.
         12    1    1    2    0    0  0.29612259491E+02 -0.20930227653E+02  0.23846645743E+02  0.43400724129E+02  0.00000000000E+00 0. -1.
         11    1    3    3    0    0 -0.38832481764E+01 -0.30834685675E+01 -0.38169803903E+01  0.62575342082E+01  0.51100000000E-03 0. -1.
        -11    1    3    3    0    0 -0.20747562958E+02  0.15536473915E+02 -0.17812341928E+02  0.31450324571E+02  0.51100000000E-03 0.  1.
         12    1    3    3    0    0 -0.49814483561E+01  0.84772223051E+01 -0.22173234248E+01  0.10079417092E+02  0.00000000000E+00 0. -1.
</event>
<event>
 7    1  0.2706925E-010  0.4778729E+02  0.7816164E-02  0.1312668E+00
        -11   -1    0    0    0    0  0.00000000000E+00  0.00000000000E+00  0.45593999997E+02  0.45594000000E+02  0.51100000000E-03 0. -1.
         11   -1    0    0    0    0 -0.00000000000E+00 -0.00000000000E+00 -0.45593999997E+02  0.45594000000E+02  0.51100000000E-03 0.  1.
    9900012    2    1    2    0    0 -0.88550846466E+00  0.19586033579E+02 -0.38719825951E+02  0.47787288505E+02  0.20000079610E+02 0.  0.
         12    1    1    2    0    0  0.88550846466E+00 -0.19586033579E+02  0.38719825951E+02  0.43400711495E+02  0.00000000000E+00 0. -1.
         11    1    3    3    0    0  0.21738164474E+00  0.43730121383E+01 -0.16557250874E+02  0.17126384519E+02  0.51100000000E-03 0.  1.
        -11    1    3    3    0    0  0.16658596968E+00  0.18063210441E+02 -0.18700304438E+02  0.26000167473E+02  0.51100000000E-03 0. -1.
        -12    1    3    3    0    0 -0.12694760791E+01 -0.28501890009E+01 -0.34622706401E+01  0.46607365128E+01  0.00000000000E+00 0.  1.
</event>
<event>
 7    1  0.2706925E-010  0.4778725E+02  0.7816164E-02  0.1312668E+00
        -11   -1    0    0    0    0  0.00000000000E+00  0.00000000000E+00  0.45593999997E+02  0.45594000000E+02  0.51100000000E-03 0.  1.
         11   -1    0    0    0    0 -0.00000000000E+00 -0.00000000000E+00 -0.45593999997E+02  0.45594000000E+02  0.51100000000E-03 0. -1.
    9900012    2    1    2    0    0  0.13991694012E+02  0.39444330875E+02 -0.11489221737E+02  0.47787251670E+02  0.19999911664E+02 0.  0.
         12    1    1    2    0    0 -0.13991694012E+02 -0.39444330875E+02  0.11489221737E+02  0.43400748330E+02  0.00000000000E+00 0. -1.
         11    1    3    3    0    0  0.52497759958E+01  0.34811516135E+02 -0.12853730540E+02  0.37478262936E+02  0.51100000000E-03 0. -1.
        -11    1    3    3    0    0  0.71399954537E+01  0.30154598630E+01  0.20280698203E+00  0.77533002133E+01  0.51100000000E-03 0.  1.
         12    1    3    3    0    0  0.16019225627E+01  0.16173548767E+01  0.11617018213E+01  0.25556885208E+01  0.00000000000E+00 0. -1.
</event>
<event>
 7    1  0.2706925E-010  0.4778727E+02  0.7816164E-02  0.1312668E+00
        -11   -1    0    0    0    0  0.00000000000E+00  0.00000000000E+00  0.45593999997E+02  0.45594000000E+02  0.51100000000E-03 0.  1.
         11   -1    0    0    0    0 -0.00000000000E+00 -0.00000000000E+00 -0.45593999997E+02  0.45594000000E+02  0.51100000000E-03 0. -1.
    9900012    2    1    2    0    0  0.67477974755E+01  0.27382643766E+02  0.32989104515E+02  0.47787274579E+02  0.20000016117E+02 0.  0.
         12    1    1    2    0    0 -0.67477974755E+01 -0.27382643766E+02 -0.32989104515E+02  0.43400725421E+02  0.00000000000E+00 0. -1.
         11    1    3    3    0    0  0.44771949511E+01  0.17450177704E+02  0.65941742155E+01  0.19184293325E+02  0.51100000000E-03 0. -1.
        -11    1    3    3    0    0  0.32899355393E+01  0.73094949111E+01  0.16988033999E+02  0.18784187263E+02  0.51100000000E-03 0.  1.
         12    1    3    3    0    0 -0.10193330149E+01  0.26229711503E+01  0.94068963002E+01  0.98187939918E+01  0.00000000000E+00 0. -1.
</event>
<event>
 7    1  0.2706925E-010  0.4778727E+02  0.7816164E-02  0.1312668E+00
        -11   -1    0    0    0    0  0.00000000000E+00  0.00000000000E+00  0.45593999997E+02  0.45594000000E+02  0.51100000000E-03 0.  1.
         11   -1    0    0    0    0 -0.00000000000E+00 -0.00000000000E+00 -0.45593999997E+02  0.45594000000E+02  0.51100000000E-03 0. -1.
    9900012    2    1    2    0    0 -0.46088594607E+01 -0.19730044301E+02  0.38381074119E+02  0.47787273230E+02  0.20000009966E+02 0.  0.
         12    1    1    2    0    0  0.46088594607E+01  0.19730044301E+02 -0.38381074119E+02  0.43400726770E+02  0.00000000000E+00 0. -1.
         11    1    3    3    0    0  0.34196338932E+01  0.65039767616E+00  0.12993998623E+02  0.13452171334E+02  0.51100000000E-03 0. -1.
        -11    1    3    3    0    0 -0.72612930654E+01 -0.18729264085E+02  0.25556987134E+02  0.32506480920E+02  0.51100000000E-03 0.  1.
         12    1    3    3    0    0 -0.76720028845E+00 -0.16511778915E+01 -0.16991163876E+00  0.18286209768E+01  0.00000000000E+00 0. -1.
</event>
<event>
 7    1  0.2706925E-010  0.4778727E+02  0.7816164E-02  0.1312668E+00
        -11   -1    0    0    0    0  0.00000000000E+00  0.00000000000E+00  0.45593999997E+02  0.45594000000E+02  0.51100000000E-03 0.  1.
         11   -1    0    0    0    0 -0.00000000000E+00 -0.00000000000E+00 -0.45593999997E+02  0.45594000000E+02  0.51100000000E-03 0. -1.
    9900012    2    1    2    0    0  0.30237894516E+02 -0.21114249329E+02  0.22879721076E+02  0.47787269292E+02  0.19999992010E+02 0.  0.
         12    1    1    2    0    0 -0.30237894516E+02  0.21114249329E+02 -0.22879721076E+02  0.43400730708E+02  0.00000000000E+00 0. -1.
         11    1    3    3    0    0  0.22083214601E+01  0.46004002244E+00  0.16178430045E+01  0.27759208817E+01  0.51100000000E-03 0. -1.
        -11    1    3    3    0    0  0.20751712611E+02 -0.10645758850E+02  0.45572780222E+01  0.23764144021E+02  0.51100000000E-03 0.  1.
        -12    1    3    3    0    0  0.72778604444E+01 -0.10928530501E+02  0.16704600049E+02  0.21247204390E+02  0.00000000000E+00 0.  1.
</event>
<event>
 7    1  0.2706925E-010  0.4778727E+02  0.7816164E-02  0.1312668E+00
        -11   -1    0    0    0    0  0.00000000000E+00  0.00000000000E+00  0.45593999997E+02  0.45594000000E+02  0.51100000000E-03 0.  1.
         11   -1    0    0    0    0 -0.00000000000E+00 -0.00000000000E+00 -0.45593999997E+02  0.45594000000E+02  0.51100000000E-03 0. -1.
    9900012    2    1    2    0    0  0.30748031515E+01  0.35866833092E+02  0.24243330099E+02  0.47787272071E+02  0.20000004681E+02 0.  0.
         12    1    1    2    0    0 -0.30748031515E+01 -0.35866833092E+02 -0.24243330099E+02  0.43400727929E+02  0.00000000000E+00 0. -1.
         11    1    3    3    0    0 -0.22553795624E+01  0.46939554077E+01  0.68598726311E+00  0.52526691431E+01  0.51100000000E-03 0. -1.
        -11    1    3    3    0    0  0.22917845500E+00  0.29463243398E+02  0.22448927824E+02  0.37041727754E+02  0.51100000000E-03 0.  1.
        -12    1    3    3    0    0  0.51010042589E+01  0.17096342864E+01  0.11084150121E+01  0.54928751744E+01  0.00000000000E+00 0.  1.
</event>
<event>
 7    1  0.2706925E-010  0.4778727E+02  0.7816164E-02  0.1312668E+00
        -11   -1    0    0    0    0  0.00000000000E+00  0.00000000000E+00  0.45593999997E+02  0.45594000000E+02  0.51100000000E-03 0. -1.
         11   -1    0    0    0    0 -0.00000000000E+00 -0.00000000000E+00 -0.45593999997E+02  0.45594000000E+02  0.51100000000E-03 0.  1.
    9900012    2    1    2    0    0  0.27804515958E+02 -0.98957752382E+01 -0.31821466047E+02  0.47787272165E+02  0.20000005110E+02 0.  0.
         12    1    1    2    0    0 -0.27804515958E+02  0.98957752382E+01  0.31821466047E+02  0.43400727835E+02  0.00000000000E+00 0. -1.
         11    1    3    3    0    0  0.61323678004E+01 -0.10947967645E+02 -0.67512967330E+01  0.14249348695E+02  0.51100000000E-03 0. -1.
        -11    1    3    3    0    0  0.11745149895E+02  0.29812379097E+01 -0.14745396852E+02  0.19085676674E+02  0.51100000000E-03 0.  1.
         12    1    3    3    0    0  0.99269982622E+01 -0.19290455030E+01 -0.10324772462E+02  0.14452246796E+02  0.00000000000E+00 0. -1.
</event>
<event>
 7    1  0.2706925E-010  0.4778727E+02  0.7816164E-02  0.1312668E+00
        -11   -1    0    0    0    0  0.00000000000E+00  0.00000000000E+00  0.45593999997E+02  0.45594000000E+02  0.51100000000E-03 0.  1.
         11   -1    0    0    0    0 -0.00000000000E+00 -0.00000000000E+00 -0.45593999997E+02  0.45594000000E+02  0.51100000000E-03 0. -1.
    9900012    2    1    2    0    0 -0.24920753084E+02 -0.23323135751E+02  0.26806919262E+02  0.47787268256E+02  0.19999987287E+02 0.  0.
         12    1    1    2    0    0  0.24920753084E+02  0.23323135751E+02 -0.26806919262E+02  0.43400731744E+02  0.00000000000E+00 0. -1.
         11    1    3    3    0    0 -0.11238913735E+02 -0.95121612128E+01  0.19134414241E+02  0.24143740421E+02  0.51100000000E-03 0. -1.
        -11    1    3    3    0    0 -0.33864943428E+01 -0.10764863968E+02  0.18684365231E+01  0.11438605487E+02  0.51100000000E-03 0.  1.
         12    1    3    3    0    0 -0.10295345006E+02 -0.30461105709E+01  0.58040684981E+01  0.12204922349E+02  0.00000000000E+00 0. -1.
</event>
<event>
 7    1  0.2706925E-010  0.4778727E+02  0.7816164E-02  0.1312668E+00
        -11   -1    0    0    0    0  0.00000000000E+00  0.00000000000E+00  0.45593999997E+02  0.45594000000E+02  0.51100000000E-03 0.  1.
         11   -1    0    0    0    0 -0.00000000000E+00 -0.00000000000E+00 -0.45593999997E+02  0.45594000000E+02  0.51100000000E-03 0. -1.
    9900012    2    1    2    0    0 -0.82625852337E+00  0.18562290376E+02  0.39222218214E+02  0.47787265804E+02  0.19999976107E+02 0.  0.
         12    1    1    2    0    0  0.82625852337E+00 -0.18562290376E+02 -0.39222218214E+02  0.43400734196E+02  0.00000000000E+00 0. -1.
         11    1    3    3    0    0 -0.62033969499E+01  0.14216149058E+02  0.25187642724E+02  0.29580371431E+02  0.51100000000E-03 0. -1.
        -11    1    3    3    0    0  0.33156313970E+01 -0.15591616154E+01  0.10276063955E+02  0.10909715265E+02  0.51100000000E-03 0.  1.
         12    1    3    3    0    0  0.20615070296E+01  0.59053029336E+01  0.37585115346E+01  0.72971791075E+01  0.00000000000E+00 0. -1.
</event>
<event>
 7    1  0.2706925E-010  0.4778727E+02  0.7816164E-02  0.1312668E+00
        -11   -1    0    0    0    0  0.00000000000E+00  0.00000000000E+00  0.45593999997E+02  0.45594000000E+02  0.51100000000E-03 0.  1.
         11   -1    0    0    0    0 -0.00000000000E+00 -0.00000000000E+00 -0.45593999997E+02  0.45594000000E+02  0.51100000000E-03 0. -1.
    9900012    2    1    2    0    0  0.27865300447E+02  0.11475682998E+02  0.31232312840E+02  0.47787266888E+02  0.19999981051E+02 0.  0.
         12    1    1    2    0    0 -0.27865300447E+02 -0.11475682998E+02 -0.31232312840E+02  0.43400733112E+02  0.00000000000E+00 0. -1.
         11    1    3    3    0    0  0.25528422072E+02  0.15605966103E+02  0.25286841504E+02  0.39174875430E+02  0.51100000000E-03 0. -1.
        -11    1    3    3    0    0  0.10243236626E+01 -0.72503202979E+00  0.45257258163E+01  0.46964992106E+01  0.51100000000E-03 0.  1.
         12    1    3    3    0    0  0.13125547132E+01 -0.34052510746E+01  0.14197455199E+01  0.39158922479E+01  0.00000000000E+00 0. -1.
</event>
<event>
 7    1  0.2706925E-010  0.4778727E+02  0.7816164E-02  0.1312668E+00
        -11   -1    0    0    0    0  0.00000000000E+00  0.00000000000E+00  0.45593999997E+02  0.45594000000E+02  0.51100000000E-03 0.  1.
         11   -1    0    0    0    0 -0.00000000000E+00 -0.00000000000E+00 -0.45593999997E+02  0.45594000000E+02  0.51100000000E-03 0. -1.
    9900012    2    1    2    0    0  0.73191690825E+01 -0.16622321389E+02  0.39417656355E+02  0.47787269166E+02  0.19999991436E+02 0.  0.
         12    1    1    2    0    0 -0.73191690825E+01  0.16622321389E+02 -0.39417656355E+02  0.43400730834E+02  0.00000000000E+00 0. -1.
         11    1    3    3    0    0 -0.30650955566E+01 -0.10748315537E+02  0.23084976404E+02  0.25648337831E+02  0.51100000000E-03 0.  1.
        -11    1    3    3    0    0 -0.15116683467E+01 -0.83671063396E+00  0.36357714122E+01  0.40254266728E+01  0.51100000000E-03 0. -1.
         12    1    3    3    0    0  0.11895932986E+02 -0.50372952177E+01  0.12696908539E+02  0.18113504663E+02  0.00000000000E+00 0. -1.
</event>
<event>
 7    1  0.2706925E-010  0.4778727E+02  0.7816164E-02  0.1312668E+00
        -11   -1    0    0    0    0  0.00000000000E+00  0.00000000000E+00  0.45593999997E+02  0.45594000000E+02  0.51100000000E-03 0.  1.
         11   -1    0    0    0    0 -0.00000000000E+00 -0.00000000000E+00 -0.45593999997E+02  0.45594000000E+02  0.51100000000E-03 0. -1.
    9900012    2    1    2    0    0  0.12483230697E+02  0.27689817129E+02  0.31001067178E+02  0.47787272040E+02  0.20000004539E+02 0.  0.
         12    1    1    2    0    0 -0.12483230697E+02 -0.27689817129E+02 -0.31001067178E+02  0.43400727960E+02  0.00000000000E+00 0. -1.
         11    1    3    3    0    0  0.13294529956E+02  0.67992815462E+01  0.12397657472E+02  0.19408159814E+02  0.51100000000E-03 0. -1.
        -11    1    3    3    0    0 -0.26163893176E+01  0.10321559693E+02  0.10339179357E+02  0.14841789569E+02  0.51100000000E-03 0.  1.
         12    1    3    3    0    0  0.18050900585E+01  0.10568975890E+02  0.82642303482E+01  0.13537322657E+02  0.00000000000E+00 0. -1.
</event>
<event>
 7    1  0.2706925E-010  0.4778727E+02  0.7816164E-02  0.1312668E+00
        -11   -1    0    0    0    0  0.00000000000E+00  0.00000000000E+00  0.45593999997E+02  0.45594000000E+02  0.51100000000E-03 0.  1.
         11   -1    0    0    0    0 -0.00000000000E+00 -0.00000000000E+00 -0.45593999997E+02  0.45594000000E+02  0.51100000000E-03 0. -1.
    9900012    2    1    2    0    0  0.12080094122E+02 -0.72112596342E+01  0.41057186754E+02  0.47787268167E+02  0.19999986880E+02 0.  0.
         12    1    1    2    0    0 -0.12080094122E+02  0.72112596342E+01 -0.41057186754E+02  0.43400731833E+02  0.00000000000E+00 0. -1.
         11    1    3    3    0    0 -0.14337485052E+01 -0.96203569298E+00  0.19978154240E+01  0.26405329349E+01  0.51100000000E-03 0. -1.
        -11    1    3    3    0    0  0.18523559124E+01  0.52070821199E+01  0.15627108552E+02  0.16575628150E+02  0.51100000000E-03 0.  1.
        -12    1    3    3    0    0  0.11661486715E+02 -0.11456306061E+02  0.23432262778E+02  0.28571107082E+02  0.00000000000E+00 0.  1.
</event>
<event>
 7    1  0.2706925E-010  0.4778727E+02  0.7816164E-02  0.1312668E+00
        -11   -1    0    0    0    0  0.00000000000E+00  0.00000000000E+00  0.45593999997E+02  0.45594000000E+02  0.51100000000E-03 0. -1.
         11   -1    0    0    0    0 -0.00000000000E+00 -0.00000000000E+00 -0.45593999997E+02  0.45594000000E+02  0.51100000000E-03 0.  1.
    9900012    2    1    2    0    0  0.17694915240E+01  0.43098799746E+02  0.47943343381E+01  0.47787270956E+02  0.19999999597E+02 0.  0.
         12    1    1    2    0    0 -0.17694915240E+01 -0.43098799746E+02 -0.47943343381E+01  0.43400729044E+02  0.00000000000E+00 0. -1.
         11    1    3    3    0    0  0.63004684582E+01  0.39045539819E+01  0.63601675389E-01  0.74125225143E+01  0.51100000000E-03 0. -1.
        -11    1    3    3    0    0 -0.33584682806E+01  0.71130872103E+01 -0.34368471491E+00  0.78735911945E+01  0.51100000000E-03 0.  1.
         12    1    3    3    0    0 -0.11725086535E+01  0.32081158554E+02  0.50744173776E+01  0.32501157247E+02  0.00000000000E+00 0. -1.
</event>
<event>
 7    1  0.2706925E-010  0.4778727E+02  0.7816164E-02  0.1312668E+00
        -11   -1    0    0    0    0  0.00000000000E+00  0.00000000000E+00  0.45593999997E+02  0.45594000000E+02  0.51100000000E-03 0. -1.
         11   -1    0    0    0    0 -0.00000000000E+00 -0.00000000000E+00 -0.45593999997E+02  0.45594000000E+02  0.51100000000E-03 0.  1.
    9900012    2    1    2    0    0 -0.33235113782E+02 -0.12828610236E+02 -0.24788647366E+02  0.47787273428E+02  0.20000010869E+02 0.  0.
         12    1    1    2    0    0  0.33235113782E+02  0.12828610236E+02  0.24788647366E+02  0.43400726572E+02  0.00000000000E+00 0. -1.
         11    1    3    3    0    0 -0.40537190438E+01 -0.88271927041E+01 -0.26733963441E+01  0.10074672074E+02  0.51100000000E-03 0. -1.
        -11    1    3    3    0    0 -0.21793044747E+02 -0.16265689962E+01 -0.11899408345E+02  0.24883296511E+02  0.51100000000E-03 0.  1.
         12    1    3    3    0    0 -0.73883499918E+01 -0.23748485361E+01 -0.10215842677E+02  0.12829304843E+02  0.00000000000E+00 0. -1.
</event>
<event>
 7    1  0.2706925E-010  0.4778727E+02  0.7816164E-02  0.1312668E+00
        -11   -1    0    0    0    0  0.00000000000E+00  0.00000000000E+00  0.45593999997E+02  0.45594000000E+02  0.51100000000E-03 0.  1.
         11   -1    0    0    0    0 -0.00000000000E+00 -0.00000000000E+00 -0.45593999997E+02  0.45594000000E+02  0.51100000000E-03 0. -1.
    9900012    2    1    2    0    0  0.33729845377E+02 -0.26925957952E+02  0.45731744405E+01  0.47787267227E+02  0.19999982593E+02 0.  0.
         12    1    1    2    0    0 -0.33729845377E+02  0.26925957952E+02 -0.45731744405E+01  0.43400732773E+02  0.00000000000E+00 0. -1.
         11    1    3    3    0    0  0.25311225704E+01 -0.73017473398E+01 -0.14572087980E+01  0.78641943912E+01  0.51100000000E-03 0. -1.
        -11    1    3    3    0    0  0.23952828386E+02 -0.91617148382E+01 -0.43388540076E+00  0.25648845262E+02  0.51100000000E-03 0.  1.
        -12    1    3    3    0    0  0.72458944207E+01 -0.10462495774E+02  0.64642686392E+01  0.14274227573E+02  0.00000000000E+00 0.  1.
</event>
<event>
 7    1  0.2706925E-010  0.4778727E+02  0.7816164E-02  0.1312668E+00
        -11   -1    0    0    0    0  0.00000000000E+00  0.00000000000E+00  0.45593999997E+02  0.45594000000E+02  0.51100000000E-03 0.  1.
         11   -1    0    0    0    0 -0.00000000000E+00 -0.00000000000E+00 -0.45593999997E+02  0.45594000000E+02  0.51100000000E-03 0. -1.
    9900012    2    1    2    0    0 -0.16678785496E+02 -0.28452163816E+02  0.28211975102E+02  0.47787273617E+02  0.20000011728E+02 0.  0.
         12    1    1    2    0    0  0.16678785496E+02  0.28452163816E+02 -0.28211975102E+02  0.43400726383E+02  0.00000000000E+00 0. -1.
         11    1    3    3    0    0  0.24150123105E+01 -0.67226562220E+01  0.13113440181E+01  0.72626451472E+01  0.51100000000E-03 0. -1.
        -11    1    3    3    0    0 -0.17955476937E+02 -0.18799539354E+02  0.19541124297E+02  0.32521952140E+02  0.51100000000E-03 0.  1.
         12    1    3    3    0    0 -0.11383208694E+01 -0.29299682404E+01  0.73595067866E+01  0.80026763294E+01  0.00000000000E+00 0. -1.
</event>
<event>
 7    1  0.2706925E-010  0.4778727E+02  0.7816164E-02  0.1312668E+00
        -11   -1    0    0    0    0  0.00000000000E+00  0.00000000000E+00  0.45593999997E+02  0.45594000000E+02  0.51100000000E-03 0. -1.
         11   -1    0    0    0    0 -0.00000000000E+00 -0.00000000000E+00 -0.45593999997E+02  0.45594000000E+02  0.51100000000E-03 0.  1.
    9900012    2    1    2    0    0 -0.31242106736E+02 -0.68686481544E+01 -0.29332159945E+02  0.47787272266E+02  0.20000005572E+02 0.  0.
         12    1    1    2    0    0  0.31242106736E+02  0.68686481544E+01  0.29332159945E+02  0.43400727734E+02  0.00000000000E+00 0. -1.
         11    1    3    3    0    0  0.21206545140E+01  0.87393099520E+00 -0.45371375037E+00  0.23381162034E+01  0.51100000000E-03 0.  1.
        -11    1    3    3    0    0 -0.19107373085E+02 -0.59846322880E+01 -0.12235424827E+02  0.23465147577E+02  0.51100000000E-03 0. -1.
        -12    1    3    3    0    0 -0.14255388165E+02 -0.17579468616E+01 -0.16643021368E+02  0.21984008487E+02  0.00000000000E+00 0.  1.
</event>
<event>
 7    1  0.2706925E-010  0.4778727E+02  0.7816164E-02  0.1312668E+00
        -11   -1    0    0    0    0  0.00000000000E+00  0.00000000000E+00  0.45593999997E+02  0.45594000000E+02  0.51100000000E-03 0. -1.
         11   -1    0    0    0    0 -0.00000000000E+00 -0.00000000000E+00 -0.45593999997E+02  0.45594000000E+02  0.51100000000E-03 0.  1.
    9900012    2    1    2    0    0 -0.24101636173E+02  0.25007031847E+02 -0.26026578874E+02  0.47787270561E+02  0.19999997794E+02 0.  0.
         12    1    1    2    0    0  0.24101636173E+02 -0.25007031847E+02  0.26026578874E+02  0.43400729439E+02  0.00000000000E+00 0. -1.
         11    1    3    3    0    0 -0.34262279334E+01 -0.20942560221E+01  0.76186509430E+00  0.40872221399E+01  0.51100000000E-03 0. -1.
        -11    1    3    3    0    0 -0.13716244314E+02  0.13522063806E+02 -0.14511996258E+02  0.24115961588E+02  0.51100000000E-03 0.  1.
         12    1    3    3    0    0 -0.69591639251E+01  0.13579224062E+02 -0.12276447711E+02  0.19584086833E+02  0.00000000000E+00 0. -1.
</event>
<event>
 7    1  0.2706925E-010  0.4778727E+02  0.7816164E-02  0.1312668E+00
        -11   -1    0    0    0    0  0.00000000000E+00  0.00000000000E+00  0.45593999997E+02  0.45594000000E+02  0.51100000000E-03 0.  1.
         11   -1    0    0    0    0 -0.00000000000E+00 -0.00000000000E+00 -0.45593999997E+02  0.45594000000E+02  0.51100000000E-03 0. -1.
    9900012    2    1    2    0    0 -0.98121422834E+01  0.23006154848E+02  0.35469169672E+02  0.47787270809E+02  0.19999998927E+02 0.  0.
         12    1    1    2    0    0  0.98121422834E+01 -0.23006154848E+02 -0.35469169672E+02  0.43400729191E+02  0.00000000000E+00 0. -1.
         11    1    3    3    0    0 -0.96657414406E+01  0.69143932928E+01  0.19454406107E+02  0.22797133798E+02  0.51100000000E-03 0. -1.
        -11    1    3    3    0    0 -0.86843177519E+00  0.13224528860E+02  0.59998427233E+01  0.14547867551E+02  0.51100000000E-03 0.  1.
         12    1    3    3    0    0  0.72203093238E+00  0.28672326956E+01  0.10014920842E+02  0.10442269460E+02  0.00000000000E+00 0. -1.
</event>
<event>
 7    1  0.2706925E-010  0.4778727E+02  0.7816164E-02  0.1312668E+00
        -11   -1    0    0    0    0  0.00000000000E+00  0.00000000000E+00  0.45593999997E+02  0.45594000000E+02  0.51100000000E-03 0.  1.
         11   -1    0    0    0    0 -0.00000000000E+00 -0.00000000000E+00 -0.45593999997E+02  0.45594000000E+02  0.51100000000E-03 0. -1.
    9900012    2    1    2    0    0  0.41622341428E+02 -0.12155944716E+02 -0.18538947946E+01  0.47787271621E+02  0.20000002631E+02 0.  0.
         12    1    1    2    0    0 -0.41622341428E+02  0.12155944716E+02  0.18538947946E+01  0.43400728379E+02  0.00000000000E+00 0. -1.
         11    1    3    3    0    0  0.17511930081E+01  0.24990135018E+01 -0.18877629652E+01  0.35882300243E+01  0.51100000000E-03 0. -1.
        -11    1    3    3    0    0  0.34711257406E+02 -0.15864962001E+02  0.27114156506E+01  0.38261209927E+02  0.51100000000E-03 0.  1.
        -12    1    3    3    0    0  0.51598910138E+01  0.12100037834E+01 -0.26775474801E+01  0.59378316698E+01  0.00000000000E+00 0.  1.
</event>
<event>
 7    1  0.2706925E-010  0.4778727E+02  0.7816164E-02  0.1312668E+00
        -11   -1    0    0    0    0  0.00000000000E+00  0.00000000000E+00  0.45593999997E+02  0.45594000000E+02  0.51100000000E-03 0. -1.
         11   -1    0    0    0    0 -0.00000000000E+00 -0.00000000000E+00 -0.45593999997E+02  0.45594000000E+02  0.51100000000E-03 0.  1.
    9900012    2    1    2    0    0 -0.35755443992E+02 -0.22772353913E+02 -0.93054589596E+01  0.47787269081E+02  0.19999991050E+02 0.  0.
         12    1    1    2    0    0  0.35755443992E+02  0.22772353913E+02  0.93054589596E+01  0.43400730919E+02  0.00000000000E+00 0. -1.
         11    1    3    3    0    0 -0.25075067889E+02 -0.10587272123E+02  0.21495858185E+00  0.27219396909E+02  0.51100000000E-03 0. -1.
        -11    1    3    3    0    0 -0.89701222618E+01 -0.50024061802E+01 -0.80258969057E+01  0.13034653136E+02  0.51100000000E-03 0.  1.
         12    1    3    3    0    0 -0.17102538420E+01 -0.71826756099E+01 -0.14945206357E+01  0.75332190365E+01  0.00000000000E+00 0. -1.
</event>
<event>
 7    1  0.2706925E-010  0.4778727E+02  0.7816164E-02  0.1312668E+00
        -11   -1    0    0    0    0  0.00000000000E+00  0.00000000000E+00  0.45593999997E+02  0.45594000000E+02  0.51100000000E-03 0.  1.
         11   -1    0    0    0    0 -0.00000000000E+00 -0.00000000000E+00 -0.45593999997E+02  0.45594000000E+02  0.51100000000E-03 0. -1.
    9900012    2    1    2    0    0  0.26055269995E+02  0.25816483885E+02  0.23200326990E+02  0.47787272966E+02  0.20000008759E+02 0.  0.
         12    1    1    2    0    0 -0.26055269995E+02 -0.25816483885E+02 -0.23200326990E+02  0.43400727034E+02  0.00000000000E+00 0. -1.
         11    1    3    3    0    0  0.20882524608E+02  0.19551300551E+02  0.12458368722E+02  0.31201668845E+02  0.51100000000E-03 0. -1.
        -11    1    3    3    0    0  0.35821110937E+01  0.72107355552E+01  0.29467501330E+01  0.85737718504E+01  0.51100000000E-03 0.  1.
        -12    1    3    3    0    0  0.15906342925E+01 -0.94555222138E+00  0.77952081348E+01  0.80118322699E+01  0.00000000000E+00 0.  1.
</event>
<event>
 7    1  0.2706925E-010  0.4778728E+02  0.7816164E-02  0.1312668E+00
        -11   -1    0    0    0    0  0.00000000000E+00  0.00000000000E+00  0.45593999997E+02  0.45594000000E+02  0.51100000000E-03 0.  1.
         11   -1    0    0    0    0 -0.00000000000E+00 -0.00000000000E+00 -0.45593999997E+02  0.45594000000E+02  0.51100000000E-03 0. -1.
    9900012    2    1    2    0    0 -0.19176709567E+02 -0.28610478998E+02  0.26406760710E+02  0.47787277546E+02  0.20000029644E+02 0.  0.
         12    1    1    2    0    0  0.19176709567E+02  0.28610478998E+02 -0.26406760710E+02  0.43400722454E+02  0.00000000000E+00 0. -1.
         11    1    3    3    0    0 -0.74013413699E+00 -0.67768877180E+01  0.15798927053E+02  0.17206978293E+02  0.51100000000E-03 0. -1.
        -11    1    3    3    0    0 -0.12965132679E+02 -0.13938924338E+02  0.78047547218E+01  0.20574315873E+02  0.51100000000E-03 0.  1.
         12    1    3    3    0    0 -0.54714427514E+01 -0.78946669410E+01  0.28030789350E+01  0.10005983380E+02  0.00000000000E+00 0. -1.
</event>
<event>
 7    1  0.2706925E-010  0.4778727E+02  0.7816164E-02  0.1312668E+00
        -11   -1    0    0    0    0  0.00000000000E+00  0.00000000000E+00  0.45593999997E+02  0.45594000000E+02  0.51100000000E-03 0. -1.
         11   -1    0    0    0    0 -0.00000000000E+00 -0.00000000000E+00 -0.45593999997E+02  0.45594000000E+02  0.51100000000E-03 0.  1.
    9900012    2    1    2    0    0  0.11788202723E+02  0.41356893697E+02 -0.58539740682E+01  0.47787269682E+02  0.19999993790E+02 0.  0.
         12    1    1    2    0    0 -0.11788202723E+02 -0.41356893697E+02  0.58539740682E+01  0.43400730318E+02  0.00000000000E+00 0. -1.
         11    1    3    3    0    0  0.46030471926E+01  0.25307590549E+02 -0.11602111302E+02  0.28218277229E+02  0.51100000000E-03 0. -1.
        -11    1    3    3    0    0  0.66424077848E+01  0.11201952428E+02  0.15158983417E+01  0.13111188635E+02  0.51100000000E-03 0.  1.
        -12    1    3    3    0    0  0.54274774532E+00  0.48473507209E+01  0.42322388920E+01  0.64578038191E+01  0.00000000000E+00 0.  1.
</event>
<event>
 7    1  0.2706925E-010  0.4778727E+02  0.7816164E-02  0.1312668E+00
        -11   -1    0    0    0    0  0.00000000000E+00  0.00000000000E+00  0.45593999997E+02  0.45594000000E+02  0.51100000000E-03 0. -1.
         11   -1    0    0    0    0 -0.00000000000E+00 -0.00000000000E+00 -0.45593999997E+02  0.45594000000E+02  0.51100000000E-03 0.  1.
    9900012    2    1    2    0    0  0.32729896256E+02  0.13161966240E+01  0.28471824505E+02  0.47787271053E+02  0.20000000041E+02 0.  0.
         12    1    1    2    0    0 -0.32729896256E+02 -0.13161966240E+01 -0.28471824505E+02  0.43400728947E+02  0.00000000000E+00 0. -1.
         11    1    3    3    0    0 -0.13819469003E+00  0.67561909904E+00 -0.18650720434E+00  0.71438374683E+00  0.51100000000E-03 0. -1.
        -11    1    3    3    0    0  0.41032824758E+01  0.12851344237E+01  0.14270013291E+02  0.14903750439E+02  0.51100000000E-03 0.  1.
        -12    1    3    3    0    0  0.28764808470E+02 -0.64455689871E+00  0.14388318418E+02  0.32169136867E+02  0.00000000000E+00 0.  1.
</event>
<event>
 7    1  0.2706925E-010  0.4778726E+02  0.7816164E-02  0.1312668E+00
        -11   -1    0    0    0    0  0.00000000000E+00  0.00000000000E+00  0.45593999997E+02  0.45594000000E+02  0.51100000000E-03 0.  1.
         11   -1    0    0    0    0 -0.00000000000E+00 -0.00000000000E+00 -0.45593999997E+02  0.45594000000E+02  0.51100000000E-03 0. -1.
    9900012    2    1    2    0    0 -0.28661054762E+02 -0.32555128723E+02  0.15270843442E+01  0.47787257462E+02  0.19999938073E+02 0.  0.
         12    1    1    2    0    0  0.28661054762E+02  0.32555128723E+02 -0.15270843442E+01  0.43400742538E+02  0.00000000000E+00 0. -1.
         11    1    3    3    0    0 -0.12297668659E+01 -0.57416961488E-02  0.27745028191E+01  0.30348353606E+01  0.51100000000E-03 0. -1.
        -11    1    3    3    0    0 -0.17440418439E+02 -0.12356693100E+02 -0.49011695830E+01  0.21928919792E+02  0.51100000000E-03 0.  1.
        -12    1    3    3    0    0 -0.99908694577E+01 -0.20192693926E+02  0.36537511080E+01  0.22823502310E+02  0.00000000000E+00 0.  1.
</event>
<event>
 7    1  0.2706925E-010  0.4778728E+02  0.7816164E-02  0.1312668E+00
        -11   -1    0    0    0    0  0.00000000000E+00  0.00000000000E+00  0.45593999997E+02  0.45594000000E+02  0.51100000000E-03 0. -1.
         11   -1    0    0    0    0 -0.00000000000E+00 -0.00000000000E+00 -0.45593999997E+02  0.45594000000E+02  0.51100000000E-03 0.  1.
    9900012    2    1    2    0    0  0.21780433929E+01 -0.31203375895E+02 -0.30087011835E+02  0.47787276257E+02  0.20000023766E+02 0.  0.
         12    1    1    2    0    0 -0.21780433929E+01  0.31203375895E+02  0.30087011835E+02  0.43400723743E+02  0.00000000000E+00 0. -1.
         11    1    3    3    0    0  0.51696186340E+01 -0.15529827424E+02 -0.14196179504E+02  0.21666379703E+02  0.51100000000E-03 0. -1.
        -11    1    3    3    0    0 -0.81530821621E+01 -0.83476196300E+01 -0.10254596969E+02  0.15534228706E+02  0.51100000000E-03 0.  1.
        -12    1    3    3    0    0  0.51615069211E+01 -0.73259288406E+01 -0.56362353621E+01  0.10586667848E+02  0.00000000000E+00 0.  1.
</event>
<event>
 7    1  0.2706925E-010  0.4778727E+02  0.7816164E-02  0.1312668E+00
        -11   -1    0    0    0    0  0.00000000000E+00  0.00000000000E+00  0.45593999997E+02  0.45594000000E+02  0.51100000000E-03 0.  1.
         11   -1    0    0    0    0 -0.00000000000E+00 -0.00000000000E+00 -0.45593999997E+02  0.45594000000E+02  0.51100000000E-03 0. -1.
    9900012    2    1    2    0    0 -0.13419970807E+02 -0.41109819529E+02 -0.36756292900E+01  0.47787272716E+02  0.20000007620E+02 0.  0.
         12    1    1    2    0    0  0.13419970807E+02  0.41109819529E+02  0.36756292900E+01  0.43400727284E+02  0.00000000000E+00 0. -1.
         11    1    3    3    0    0 -0.53338258648E+01 -0.26133450833E+02  0.64371077351E+01  0.27437990215E+02  0.51100000000E-03 0. -1.
        -11    1    3    3    0    0 -0.36700907955E+01 -0.46018177983E+01 -0.58396146559E+01  0.82914047716E+01  0.51100000000E-03 0.  1.
         12    1    3    3    0    0 -0.44160541464E+01 -0.10374550897E+02 -0.42731223692E+01  0.12057877729E+02  0.00000000000E+00 0. -1.
</event>
<event>
 7    1  0.2706925E-010  0.4778728E+02  0.7816164E-02  0.1312668E+00
        -11   -1    0    0    0    0  0.00000000000E+00  0.00000000000E+00  0.45593999997E+02  0.45594000000E+02  0.51100000000E-03 0.  1.
         11   -1    0    0    0    0 -0.00000000000E+00 -0.00000000000E+00 -0.45593999997E+02  0.45594000000E+02  0.51100000000E-03 0. -1.
    9900012    2    1    2    0    0  0.41132555991E+01  0.42971170253E+02  0.44924945177E+01  0.47787275910E+02  0.20000022185E+02 0.  0.
         12    1    1    2    0    0 -0.41132555991E+01 -0.42971170253E+02 -0.44924945177E+01  0.43400724090E+02  0.00000000000E+00 0. -1.
         11    1    3    3    0    0  0.30365928134E+01  0.18277255724E+01 -0.35010056742E+01  0.49818187115E+01  0.51100000000E-03 0. -1.
        -11    1    3    3    0    0 -0.59409855503E+00  0.19069057142E+02  0.79485613662E+01  0.20667886235E+02  0.51100000000E-03 0.  1.
         12    1    3    3    0    0  0.16707613407E+01  0.22074387539E+02  0.44938825720E-01  0.22137570964E+02  0.00000000000E+00 0. -1.
</event>
<event>
 7    1  0.2706925E-010  0.4778727E+02  0.7816164E-02  0.1312668E+00
        -11   -1    0    0    0    0  0.00000000000E+00  0.00000000000E+00  0.45593999997E+02  0.45594000000E+02  0.51100000000E-03 0. -1.
         11   -1    0    0    0    0 -0.00000000000E+00 -0.00000000000E+00 -0.45593999997E+02  0.45594000000E+02  0.51100000000E-03 0.  1.
    9900012    2    1    2    0    0  0.21068562432E+02 -0.24370397053E+02 -0.29083032253E+02  0.47787270277E+02  0.19999996499E+02 0.  0.
         12    1    1    2    0    0 -0.21068562432E+02  0.24370397053E+02  0.29083032253E+02  0.43400729723E+02  0.00000000000E+00 0. -1.
         11    1    3    3    0    0  0.16947354929E+01 -0.13132055714E+00 -0.16257695717E+01  0.23521267910E+01  0.51100000000E-03 0. -1.
        -11    1    3    3    0    0  0.21558808964E+02 -0.20803390550E+02 -0.17543838561E+02  0.34718144738E+02  0.51100000000E-03 0.  1.
        -12    1    3    3    0    0 -0.21849820247E+01 -0.34356859457E+01 -0.99134241207E+01  0.10716998748E+02  0.00000000000E+00 0.  1.
</event>
<event>
 7    1  0.2706925E-010  0.4778728E+02  0.7816164E-02  0.1312668E+00
        -11   -1    0    0    0    0  0.00000000000E+00  0.00000000000E+00  0.45593999997E+02  0.45594000000E+02  0.51100000000E-03 0. -1.
         11   -1    0    0    0    0 -0.00000000000E+00 -0.00000000000E+00 -0.45593999997E+02  0.45594000000E+02  0.51100000000E-03 0.  1.
    9900012    2    1    2    0    0  0.15252539280E+02  0.38764156539E+02  0.12178780449E+02  0.47787280192E+02  0.20000041706E+02 0.  0.
         12    1    1    2    0    0 -0.15252539280E+02 -0.38764156539E+02 -0.12178780449E+02  0.43400719808E+02  0.00000000000E+00 0. -1.
         11    1    3    3    0    0  0.60048967685E+01  0.44584498358E+01  0.95755751598E+01  0.12150234567E+02  0.51100000000E-03 0. -1.
        -11    1    3    3    0    0  0.41116364122E+01  0.16959545296E+02  0.11880043193E+01  0.17491228806E+02  0.51100000000E-03 0.  1.
         12    1    3    3    0    0  0.51360060996E+01  0.17346161407E+02  0.14152009697E+01  0.18145816818E+02  0.00000000000E+00 0. -1.
</event>
<event>
 7    1  0.2706925E-010  0.4778727E+02  0.7816164E-02  0.1312668E+00
        -11   -1    0    0    0    0  0.00000000000E+00  0.00000000000E+00  0.45593999997E+02  0.45594000000E+02  0.51100000000E-03 0.  1.
         11   -1    0    0    0    0 -0.00000000000E+00 -0.00000000000E+00 -0.45593999997E+02  0.45594000000E+02  0.51100000000E-03 0. -1.
    9900012    2    1    2    0    0 -0.16513454817E+02 -0.12812611352E+02  0.38036378410E+02  0.47787270949E+02  0.19999999563E+02 0.  0.
         12    1    1    2    0    0  0.16513454817E+02  0.12812611352E+02 -0.38036378410E+02  0.43400729051E+02  0.00000000000E+00 0. -1.
         11    1    3    3    0    0 -0.11135666134E+02 -0.13937585808E+02  0.15469064435E+02  0.23612524498E+02  0.51100000000E-03 0. -1.
        -11    1    3    3    0    0 -0.41701913572E+01  0.34290269026E+01  0.19048177820E+02  0.19798530248E+02  0.51100000000E-03 0.  1.
        -12    1    3    3    0    0 -0.12075973261E+01 -0.23040524463E+01  0.35191361541E+01  0.43762162022E+01  0.00000000000E+00 0.  1.
</event>
<event>
 7    1  0.2706925E-010  0.4778727E+02  0.7816164E-02  0.1312668E+00
        -11   -1    0    0    0    0  0.00000000000E+00  0.00000000000E+00  0.45593999997E+02  0.45594000000E+02  0.51100000000E-03 0.  1.
         11   -1    0    0    0    0 -0.00000000000E+00 -0.00000000000E+00 -0.45593999997E+02  0.45594000000E+02  0.51100000000E-03 0. -1.
    9900012    2    1    2    0    0 -0.36122564884E+02 -0.14751724701E+02  0.19004480364E+02  0.47787270175E+02  0.19999996034E+02 0.  0.
         12    1    1    2    0    0  0.36122564884E+02  0.14751724701E+02 -0.19004480364E+02  0.43400729825E+02  0.00000000000E+00 0. -1.
         11    1    3    3    0    0 -0.17247990225E+02 -0.14637911437E+02  0.50443176311E+01  0.23177721170E+02  0.51100000000E-03 0. -1.
        -11    1    3    3    0    0 -0.17543476624E+02  0.11898466230E+01  0.99888911447E+01  0.20222938797E+02  0.51100000000E-03 0.  1.
         12    1    3    3    0    0 -0.13310980361E+01 -0.13036598870E+01  0.39712715883E+01  0.43866102073E+01  0.00000000000E+00 0. -1.
</event>
<event>
 7    1  0.2706925E-010  0.4778728E+02  0.7816164E-02  0.1312668E+00
        -11   -1    0    0    0    0  0.00000000000E+00  0.00000000000E+00  0.45593999997E+02  0.45594000000E+02  0.51100000000E-03 0. -1.
         11   -1    0    0    0    0 -0.00000000000E+00 -0.00000000000E+00 -0.45593999997E+02  0.45594000000E+02  0.51100000000E-03 0.  1.
    9900012    2    1    2    0    0 -0.86073739504E+01  0.40081506406E+02 -0.14248094205E+02  0.47787283064E+02  0.20000054801E+02 0.  0.
         12    1    1    2    0    0  0.86073739504E+01 -0.40081506406E+02  0.14248094205E+02  0.43400716936E+02  0.00000000000E+00 0. -1.
         11    1    3    3    0    0  0.46983092281E+01  0.15130954973E+02 -0.16649586183E+01  0.15930850432E+02  0.51100000000E-03 0. -1.
        -11    1    3    3    0    0 -0.68237092601E+01  0.19579007968E+02 -0.76574387766E+01  0.22102871532E+02  0.51100000000E-03 0.  1.
         12    1    3    3    0    0 -0.64819739185E+01  0.53715434647E+01 -0.49256968101E+01  0.97535611003E+01  0.00000000000E+00 0. -1.
</event>
<event>
 7    1  0.2706925E-010  0.4778726E+02  0.7816164E-02  0.1312668E+00
        -11   -1    0    0    0    0  0.00000000000E+00  0.00000000000E+00  0.45593999997E+02  0.45594000000E+02  0.51100000000E-03 0.  1.
         11   -1    0    0    0    0 -0.00000000000E+00 -0.00000000000E+00 -0.45593999997E+02  0.45594000000E+02  0.51100000000E-03 0. -1.
    9900012    2    1    2    0    0 -0.67376503886E+00  0.31264816459E+02  0.30094538174E+02  0.47787263423E+02  0.19999965252E+02 0.  0.
         12    1    1    2    0    0  0.67376503886E+00 -0.31264816459E+02 -0.30094538174E+02  0.43400736577E+02  0.00000000000E+00 0. -1.
         11    1    3    3    0    0  0.13482613844E+01  0.10691950939E+02  0.12512389194E+01  0.10849019436E+02  0.51100000000E-03 0. -1.
        -11    1    3    3    0    0 -0.20049408476E+01  0.74421747002E+01  0.36492554290E+01  0.85277674404E+01  0.51100000000E-03 0.  1.
         12    1    3    3    0    0 -0.17085575670E-01  0.13130690820E+02  0.25194043825E+02  0.28410476547E+02  0.00000000000E+00 0. -1.
</event>
<event>
 7    1  0.2706925E-010  0.4778727E+02  0.7816164E-02  0.1312668E+00
        -11   -1    0    0    0    0  0.00000000000E+00  0.00000000000E+00  0.45593999997E+02  0.45594000000E+02  0.51100000000E-03 0.  1.
         11   -1    0    0    0    0 -0.00000000000E+00 -0.00000000000E+00 -0.45593999997E+02  0.45594000000E+02  0.51100000000E-03 0. -1.
    9900012    2    1    2    0    0  0.30195862507E+02  0.80694990610E+01  0.30111728919E+02  0.47787272516E+02  0.20000006709E+02 0.  0.
         12    1    1    2    0    0 -0.30195862507E+02 -0.80694990610E+01 -0.30111728919E+02  0.43400727484E+02  0.00000000000E+00 0. -1.
         11    1    3    3    0    0  0.57192558137E+01  0.22691442064E+01 -0.95272380828E-01  0.61536964159E+01  0.51100000000E-03 0. -1.
        -11    1    3    3    0    0  0.16199274188E+02  0.38361954158E+01  0.28426060776E+02  0.32941976428E+02  0.51100000000E-03 0.  1.
        -12    1    3    3    0    0  0.82773325055E+01  0.19641594388E+01  0.17809405241E+01  0.86915996720E+01  0.00000000000E+00 0.  1.
</event>
<event>
 7    1  0.2706925E-010  0.4778727E+02  0.7816164E-02  0.1312668E+00
        -11   -1    0    0    0    0  0.00000000000E+00  0.00000000000E+00  0.45593999997E+02  0.45594000000E+02  0.51100000000E-03 0. -1.
         11   -1    0    0    0    0 -0.00000000000E+00 -0.00000000000E+00 -0.45593999997E+02  0.45594000000E+02  0.51100000000E-03 0.  1.
    9900012    2    1    2    0    0 -0.23135398903E+02 -0.29660917695E+02 -0.21647315678E+02  0.47787274234E+02  0.20000014544E+02 0.  0.
         12    1    1    2    0    0  0.23135398903E+02  0.29660917695E+02  0.21647315678E+02  0.43400725766E+02  0.00000000000E+00 0. -1.
         11    1    3    3    0    0  0.33911591025E+01 -0.50194079286E+01 -0.41386893462E+01  0.73364273170E+01  0.51100000000E-03 0. -1.
        -11    1    3    3    0    0 -0.15628305962E+02 -0.15928353083E+02 -0.12795513033E+02  0.25723171135E+02  0.51100000000E-03 0.  1.
         12    1    3    3    0    0 -0.10898252043E+02 -0.87131566837E+01 -0.47131132992E+01  0.14727675783E+02  0.00000000000E+00 0. -1.
</event>
<event>
 7    1  0.2706925E-010  0.4778727E+02  0.7816164E-02  0.1312668E+00
        -11   -1    0    0    0    0  0.00000000000E+00  0.00000000000E+00  0.45593999997E+02  0.45594000000E+02  0.51100000000E-03 0.  1.
         11   -1    0    0    0    0 -0.00000000000E+00 -0.00000000000E+00 -0.45593999997E+02  0.45594000000E+02  0.51100000000E-03 0. -1.
    9900012    2    1    2    0    0  0.19003730355E+02  0.45811347705E+01  0.38749126267E+02  0.47787270171E+02  0.19999996020E+02 0.  0.
         12    1    1    2    0    0 -0.19003730355E+02 -0.45811347705E+01 -0.38749126267E+02  0.43400729829E+02  0.00000000000E+00 0. -1.
         11    1    3    3    0    0  0.38184606482E+00 -0.54763017138E+01  0.32388307654E+01  0.63738302351E+01  0.51100000000E-03 0. -1.
        -11    1    3    3    0    0  0.12852439596E+02  0.81315596213E+01  0.24578677125E+02  0.28903612835E+02  0.51100000000E-03 0.  1.
         12    1    3    3    0    0  0.57694446944E+01  0.19258768630E+01  0.10931618377E+02  0.12509827101E+02  0.00000000000E+00 0. -1.
</event>
<event>
 7    1  0.2815050E-010  0.4778728E+02  0.7816164E-02  0.1312668E+00
        -11   -1    0    0    0    0  0.00000000000E+00  0.00000000000E+00  0.45593999997E+02  0.45594000000E+02  0.51100000000E-03 0.  1.
         11   -1    0    0    0    0 -0.00000000000E+00 -0.00000000000E+00 -0.45593999997E+02  0.45594000000E+02  0.51100000000E-03 0. -1.
    9900012    2    1    2    0    0  0.27908476693E+02  0.22054206645E+02  0.24866678290E+02  0.47787276605E+02  0.20000025352E+02 0.  0.
         12    1    1    2    0    0 -0.27908476693E+02 -0.22054206645E+02 -0.24866678290E+02  0.43400723395E+02  0.00000000000E+00 0. -1.
         11    1    3    3    0    0  0.41896916256E+01  0.16058885762E+01 -0.48598090183E+00  0.45131554077E+01  0.51100000000E-03 0. -1.
        -11    1    3    3    0    0  0.20805712354E+02  0.80484674108E+01  0.16906385655E+02  0.27990737225E+02  0.51100000000E-03 0.  1.
        -12    1    3    3    0    0  0.29130727128E+01  0.12399850658E+02  0.84462735374E+01  0.15283383972E+02  0.00000000000E+00 0.  1.
</event>
<event>
 7    1  0.2706925E-010  0.4778727E+02  0.7816164E-02  0.1312668E+00
        -11   -1    0    0    0    0  0.00000000000E+00  0.00000000000E+00  0.45593999997E+02  0.45594000000E+02  0.51100000000E-03 0.  1.
         11   -1    0    0    0    0 -0.00000000000E+00 -0.00000000000E+00 -0.45593999997E+02  0.45594000000E+02  0.51100000000E-03 0. -1.
    9900012    2    1    2    0    0 -0.29423697601E+02 -0.20509906883E+02  0.24437942381E+02  0.47787270874E+02  0.19999999222E+02 0.  0.
         12    1    1    2    0    0  0.29423697601E+02  0.20509906883E+02 -0.24437942381E+02  0.43400729126E+02  0.00000000000E+00 0. -1.
         11    1    3    3    0    0  0.71886846613E+00 -0.24391903567E+01 -0.16340347867E+01  0.30226629672E+01  0.51100000000E-03 0. -1.
        -11    1    3    3    0    0 -0.28208015784E+02 -0.14729027140E+02  0.20052102466E+02  0.37612806443E+02  0.51100000000E-03 0.  1.
        -12    1    3    3    0    0 -0.19345502838E+01 -0.33416893858E+01  0.60198747019E+01  0.71518014638E+01  0.00000000000E+00 0.  1.
</event>
<event>
 7    1  0.2706925E-010  0.4778727E+02  0.7816164E-02  0.1312668E+00
        -11   -1    0    0    0    0  0.00000000000E+00  0.00000000000E+00  0.45593999997E+02  0.45594000000E+02  0.51100000000E-03 0.  1.
         11   -1    0    0    0    0 -0.00000000000E+00 -0.00000000000E+00 -0.45593999997E+02  0.45594000000E+02  0.51100000000E-03 0. -1.
    9900012    2    1    2    0    0  0.33838499088E+02 -0.18367292592E+02  0.20030519930E+02  0.47787272052E+02  0.20000004595E+02 0.  0.
         12    1    1    2    0    0 -0.33838499088E+02  0.18367292592E+02 -0.20030519930E+02  0.43400727948E+02  0.00000000000E+00 0. -1.
         11    1    3    3    0    0  0.97892164996E+01 -0.13420833209E+02  0.63404887314E+01  0.17780588329E+02  0.51100000000E-03 0. -1.
        -11    1    3    3    0    0  0.18809485206E+02 -0.23757773497E+01  0.14817434733E+02  0.24062365305E+02  0.51100000000E-03 0.  1.
        -12    1    3    3    0    0  0.52397973827E+01 -0.25706820335E+01 -0.11274035350E+01  0.59443184184E+01  0.00000000000E+00 0.  1.
</event>
<event>
 7    1  0.2706925E-010  0.4778727E+02  0.7816164E-02  0.1312668E+00
        -11   -1    0    0    0    0  0.00000000000E+00  0.00000000000E+00  0.45593999997E+02  0.45594000000E+02  0.51100000000E-03 0. -1.
         11   -1    0    0    0    0 -0.00000000000E+00 -0.00000000000E+00 -0.45593999997E+02  0.45594000000E+02  0.51100000000E-03 0.  1.
    9900012    2    1    2    0    0  0.25997940329E+02 -0.21998628807E+02 -0.26903358213E+02  0.47787271275E+02  0.20000001051E+02 0.  0.
         12    1    1    2    0    0 -0.25997940329E+02  0.21998628807E+02  0.26903358213E+02  0.43400728725E+02  0.00000000000E+00 0. -1.
         11    1    3    3    0    0  0.80573158982E+01 -0.10754101271E+02 -0.17627833320E+01  0.13552801886E+02  0.51100000000E-03 0. -1.
        -11    1    3    3    0    0  0.17611999868E+02 -0.90391160083E+01 -0.18007934264E+02  0.26761424743E+02  0.51100000000E-03 0.  1.
         12    1    3    3    0    0  0.32862456259E+00 -0.22054115279E+01 -0.71326406167E+01  0.74730446458E+01  0.00000000000E+00 0. -1.
</event>
<event>
 7    1  0.2706925E-010  0.4778727E+02  0.7816164E-02  0.1312668E+00
        -11   -1    0    0    0    0  0.00000000000E+00  0.00000000000E+00  0.45593999997E+02  0.45594000000E+02  0.51100000000E-03 0.  1.
         11   -1    0    0    0    0 -0.00000000000E+00 -0.00000000000E+00 -0.45593999997E+02  0.45594000000E+02  0.51100000000E-03 0. -1.
    9900012    2    1    2    0    0 -0.75234077317E+01 -0.24946533878E+02  0.34708679498E+02  0.47787266724E+02  0.19999980299E+02 0.  0.
         12    1    1    2    0    0  0.75234077317E+01  0.24946533878E+02 -0.34708679498E+02  0.43400733276E+02  0.00000000000E+00 0. -1.
         11    1    3    3    0    0  0.41951460380E+01 -0.34093481614E+01  0.49715331776E+01  0.73443207693E+01  0.51100000000E-03 0. -1.
        -11    1    3    3    0    0 -0.96739526864E+01 -0.61919727652E+01  0.16321818216E+02  0.19958147145E+02  0.51100000000E-03 0.  1.
        -12    1    3    3    0    0 -0.20446010833E+01 -0.15345212952E+02  0.13415328104E+02  0.20484798809E+02  0.00000000000E+00 0.  1.
</event>
<event>
 7    1  0.2706925E-010  0.4778727E+02  0.7816164E-02  0.1312668E+00
        -11   -1    0    0    0    0  0.00000000000E+00  0.00000000000E+00  0.45593999997E+02  0.45594000000E+02  0.51100000000E-03 0.  1.
         11   -1    0    0    0    0 -0.00000000000E+00 -0.00000000000E+00 -0.45593999997E+02  0.45594000000E+02  0.51100000000E-03 0. -1.
    9900012    2    1    2    0    0  0.24167389472E+02  0.98703409302E+01  0.34671843255E+02  0.47787273524E+02  0.20000011304E+02 0.  0.
         12    1    1    2    0    0 -0.24167389472E+02 -0.98703409302E+01 -0.34671843255E+02  0.43400726476E+02  0.00000000000E+00 0. -1.
         11    1    3    3    0    0  0.14704970561E+02  0.78719259538E+01  0.20946842181E+02  0.26776362245E+02  0.51100000000E-03 0.  1.
        -11    1    3    3    0    0 -0.14414320043E+01 -0.33630359552E+01  0.22328306958E+01  0.42864052813E+01  0.51100000000E-03 0. -1.
         12    1    3    3    0    0  0.10903850915E+02  0.53614509316E+01  0.11492170378E+02  0.16724505997E+02  0.00000000000E+00 0. -1.
</event>
<event>
 7    1  0.2706925E-010  0.4778727E+02  0.7816164E-02  0.1312668E+00
        -11   -1    0    0    0    0  0.00000000000E+00  0.00000000000E+00  0.45593999997E+02  0.45594000000E+02  0.51100000000E-03 0.  1.
         11   -1    0    0    0    0 -0.00000000000E+00 -0.00000000000E+00 -0.45593999997E+02  0.45594000000E+02  0.51100000000E-03 0. -1.
    9900012    2    1    2    0    0 -0.39034142367E+02  0.17656587198E+02 -0.69429068739E+01  0.47787270770E+02  0.19999998750E+02 0.  0.
         12    1    1    2    0    0  0.39034142367E+02 -0.17656587198E+02  0.69429068739E+01  0.43400729230E+02  0.00000000000E+00 0. -1.
         11    1    3    3    0    0 -0.52266657143E+01  0.42702984017E+01 -0.79451762400E+01  0.10424936867E+02  0.51100000000E-03 0. -1.
        -11    1    3    3    0    0 -0.15087772313E+02  0.95217740525E+01 -0.22182769085E+01  0.17978481782E+02  0.51100000000E-03 0.  1.
         12    1    3    3    0    0 -0.18719704340E+02  0.38645147437E+01  0.32205462746E+01  0.19383852122E+02  0.00000000000E+00 0. -1.
</event>
<event>
 7    1  0.2706925E-010  0.4778728E+02  0.7816164E-02  0.1312668E+00
        -11   -1    0    0    0    0  0.00000000000E+00  0.00000000000E+00  0.45593999997E+02  0.45594000000E+02  0.51100000000E-03 0.  1.
         11   -1    0    0    0    0 -0.00000000000E+00 -0.00000000000E+00 -0.45593999997E+02  0.45594000000E+02  0.51100000000E-03 0. -1.
    9900012    2    1    2    0    0  0.22645293505E+02 -0.29757792503E+02  0.22029235740E+02  0.47787276966E+02  0.20000026998E+02 0.  0.
         12    1    1    2    0    0 -0.22645293505E+02  0.29757792503E+02 -0.22029235740E+02  0.43400723034E+02  0.00000000000E+00 0. -1.
         11    1    3    3    0    0 -0.32624716377E+00 -0.24904103636E+01  0.78769010028E+01  0.82676569027E+01  0.51100000000E-03 0. -1.
        -11    1    3    3    0    0  0.11022944359E+02 -0.13656620356E+02  0.12045303408E+02  0.21286096785E+02  0.51100000000E-03 0.  1.
         12    1    3    3    0    0  0.11948596310E+02 -0.13610761784E+02  0.21070313292E+01  0.18233523278E+02  0.00000000000E+00 0. -1.
</event>
<event>
 7    1  0.2706925E-010  0.4778726E+02  0.7816164E-02  0.1312668E+00
        -11   -1    0    0    0    0  0.00000000000E+00  0.00000000000E+00  0.45593999997E+02  0.45594000000E+02  0.51100000000E-03 0.  1.
         11   -1    0    0    0    0 -0.00000000000E+00 -0.00000000000E+00 -0.45593999997E+02  0.45594000000E+02  0.51100000000E-03 0. -1.
    9900012    2    1    2    0    0 -0.99469927264E+01  0.16474385878E+02  0.38900848296E+02  0.47787262074E+02  0.19999959099E+02 0.  0.
         12    1    1    2    0    0  0.99469927264E+01 -0.16474385878E+02 -0.38900848296E+02  0.43400737926E+02  0.00000000000E+00 0. -1.
         11    1    3    3    0    0 -0.17682774600E+01 -0.13296710138E+01 -0.12037430576E+01  0.25186956526E+01  0.51100000000E-03 0. -1.
        -11    1    3    3    0    0 -0.79648201967E+01  0.12767379435E+02  0.23409211036E+02  0.27828681248E+02  0.51100000000E-03 0.  1.
         12    1    3    3    0    0 -0.21389506972E+00  0.50366774570E+01  0.16695380318E+02  0.17439885173E+02  0.00000000000E+00 0. -1.
</event>
<event>
 7    1  0.2706925E-010  0.4778727E+02  0.7816164E-02  0.1312668E+00
        -11   -1    0    0    0    0  0.00000000000E+00  0.00000000000E+00  0.45593999997E+02  0.45594000000E+02  0.51100000000E-03 0.  1.
         11   -1    0    0    0    0 -0.00000000000E+00 -0.00000000000E+00 -0.45593999997E+02  0.45594000000E+02  0.51100000000E-03 0. -1.
    9900012    2    1    2    0    0 -0.34511241400E+02 -0.12801226268E+02  0.22994041080E+02  0.47787273023E+02  0.20000009021E+02 0.  0.
         12    1    1    2    0    0  0.34511241400E+02  0.12801226268E+02 -0.22994041080E+02  0.43400726977E+02  0.00000000000E+00 0. -1.
         11    1    3    3    0    0 -0.62906150158E+01  0.27842245245E+01  0.95986323671E+01  0.11809211958E+02  0.51100000000E-03 0. -1.
        -11    1    3    3    0    0 -0.88579740763E+01 -0.18762041549E+01  0.72861847496E+00  0.90837619910E+01  0.51100000000E-03 0.  1.
         12    1    3    3    0    0 -0.19362652308E+02 -0.13709246638E+02  0.12666790238E+02  0.26894299074E+02  0.00000000000E+00 0. -1.
</event>
<event>
 7    1  0.2706925E-010  0.4778726E+02  0.7816164E-02  0.1312668E+00
        -11   -1    0    0    0    0  0.00000000000E+00  0.00000000000E+00  0.45593999997E+02  0.45594000000E+02  0.51100000000E-03 0. -1.
         11   -1    0    0    0    0 -0.00000000000E+00 -0.00000000000E+00 -0.45593999997E+02  0.45594000000E+02  0.51100000000E-03 0.  1.
    9900012    2    1    2    0    0  0.29941694385E+02 -0.30338247883E+02 -0.81675901765E+01  0.47787264101E+02  0.19999968342E+02 0.  0.
         12    1    1    2    0    0 -0.29941694385E+02  0.30338247883E+02  0.81675901765E+01  0.43400735899E+02  0.00000000000E+00 0. -1.
         11    1    3    3    0    0  0.66252545398E+01 -0.39879457349E+01  0.16240123648E+01  0.79015900504E+01  0.51100000000E-03 0. -1.
        -11    1    3    3    0    0  0.47270895581E+00 -0.18388079324E+01  0.33856450537E+01  0.38816569992E+01  0.51100000000E-03 0.  1.
        -12    1    3    3    0    0  0.22843730890E+02 -0.24511494216E+02 -0.13177247595E+02  0.36004017051E+02  0.00000000000E+00 0.  1.
</event>
<event>
 7    1  0.2706925E-010  0.4778727E+02  0.7816164E-02  0.1312668E+00
        -11   -1    0    0    0    0  0.00000000000E+00  0.00000000000E+00  0.45593999997E+02  0.45594000000E+02  0.51100000000E-03 0. -1.
         11   -1    0    0    0    0 -0.00000000000E+00 -0.00000000000E+00 -0.45593999997E+02  0.45594000000E+02  0.51100000000E-03 0.  1.
    9900012    2    1    2    0    0 -0.32830479956E+02  0.38697025854E+01 -0.28121316252E+02  0.47787269131E+02  0.19999991275E+02 0.  0.
         12    1    1    2    0    0  0.32830479956E+02 -0.38697025854E+01  0.28121316252E+02  0.43400730869E+02  0.00000000000E+00 0. -1.
         11    1    3    3    0    0 -0.50481987685E+01  0.50094005632E+01  0.12023877881E+01  0.72127762660E+01  0.51100000000E-03 0. -1.
        -11    1    3    3    0    0 -0.17610636013E+02  0.97122923979E+00 -0.17762766378E+02  0.25031852842E+02  0.51100000000E-03 0.  1.
         12    1    3    3    0    0 -0.10171645175E+02 -0.21109272175E+01 -0.11560937661E+02  0.15542640023E+02  0.00000000000E+00 0. -1.
</event>
<event>
 7    1  0.2706925E-010  0.4778727E+02  0.7816164E-02  0.1312668E+00
        -11   -1    0    0    0    0  0.00000000000E+00  0.00000000000E+00  0.45593999997E+02  0.45594000000E+02  0.51100000000E-03 0.  1.
         11   -1    0    0    0    0 -0.00000000000E+00 -0.00000000000E+00 -0.45593999997E+02  0.45594000000E+02  0.51100000000E-03 0. -1.
    9900012    2    1    2    0    0 -0.27702290359E+02  0.21013939535E+02  0.25973460811E+02  0.47787271753E+02  0.20000003229E+02 0.  0.
         12    1    1    2    0    0  0.27702290359E+02 -0.21013939535E+02 -0.25973460811E+02  0.43400728247E+02  0.00000000000E+00 0. -1.
         11    1    3    3    0    0  0.13007981930E+01  0.55815465840E+00  0.56292052657E+01  0.58044435346E+01  0.51100000000E-03 0. -1.
        -11    1    3    3    0    0 -0.18219887242E+02  0.17634842684E+02  0.16207897345E+02  0.30093984518E+02  0.51100000000E-03 0.  1.
         12    1    3    3    0    0 -0.10783201310E+02  0.28209421926E+01  0.41363582005E+01  0.11888843700E+02  0.00000000000E+00 0. -1.
</event>
<event>
 7    1  0.2706925E-010  0.4778727E+02  0.7816164E-02  0.1312668E+00
        -11   -1    0    0    0    0  0.00000000000E+00  0.00000000000E+00  0.45593999997E+02  0.45594000000E+02  0.51100000000E-03 0.  1.
         11   -1    0    0    0    0 -0.00000000000E+00 -0.00000000000E+00 -0.45593999997E+02  0.45594000000E+02  0.51100000000E-03 0. -1.
    9900012    2    1    2    0    0  0.82661865473E+00 -0.39449932861E+02  0.18073258532E+02  0.47787272183E+02  0.20000005189E+02 0.  0.
         12    1    1    2    0    0 -0.82661865473E+00  0.39449932861E+02 -0.18073258532E+02  0.43400727817E+02  0.00000000000E+00 0. -1.
         11    1    3    3    0    0 -0.40411851569E+01 -0.20555726694E+02  0.14182600410E+02  0.25298522330E+02  0.51100000000E-03 0. -1.
        -11    1    3    3    0    0  0.66941393462E+01 -0.18435073406E+02  0.50817842822E+01  0.20260502581E+02  0.51100000000E-03 0.  1.
         12    1    3    3    0    0 -0.18263355345E+01 -0.45913276036E+00 -0.11911261605E+01  0.22282472723E+01  0.00000000000E+00 0. -1.
</event>
<event>
 7    1  0.2706925E-010  0.4778733E+02  0.7816164E-02  0.1312667E+00
        -11   -1    0    0    0    0  0.00000000000E+00  0.00000000000E+00  0.45593999997E+02  0.45594000000E+02  0.51100000000E-03 0.  1.
         11   -1    0    0    0    0 -0.00000000000E+00 -0.00000000000E+00 -0.45593999997E+02  0.45594000000E+02  0.51100000000E-03 0. -1.
    9900012    2    1    2    0    0  0.33727841070E+02 -0.14325577336E+02  0.23255722581E+02  0.47787331088E+02  0.20000273761E+02 0.  0.
         12    1    1    2    0    0 -0.33727841070E+02  0.14325577336E+02 -0.23255722581E+02  0.43400668912E+02  0.00000000000E+00 0. -1.
         11    1    3    3    0    0  0.25586964238E+00 -0.69571231084E+01  0.17267606550E+01  0.71727772753E+01  0.51100000000E-03 0. -1.
        -11    1    3    3    0    0  0.21764689182E+02 -0.52694789323E+01  0.15844288690E+02  0.27431926432E+02  0.51100000000E-03 0.  1.
         12    1    3    3    0    0  0.11707282246E+02 -0.20989752948E+01  0.56846732353E+01  0.13182627381E+02  0.00000000000E+00 0. -1.
</event>
<event>
 7    1  0.2706925E-010  0.4778727E+02  0.7816164E-02  0.1312668E+00
        -11   -1    0    0    0    0  0.00000000000E+00  0.00000000000E+00  0.45593999997E+02  0.45594000000E+02  0.51100000000E-03 0.  1.
         11   -1    0    0    0    0 -0.00000000000E+00 -0.00000000000E+00 -0.45593999997E+02  0.45594000000E+02  0.51100000000E-03 0. -1.
    9900012    2    1    2    0    0  0.17949512423E+01 -0.32336816883E+02  0.28891727795E+02  0.47787268312E+02  0.19999987541E+02 0.  0.
         12    1    1    2    0    0 -0.17949512423E+01  0.32336816883E+02 -0.28891727795E+02  0.43400731688E+02  0.00000000000E+00 0. -1.
         11    1    3    3    0    0 -0.13338990286E+01 -0.82825650605E+00  0.28345938161E+01  0.32404039597E+01  0.51100000000E-03 0. -1.
        -11    1    3    3    0    0 -0.50063555073E+01 -0.39016967657E+01  0.10779579877E+01  0.64380763277E+01  0.51100000000E-03 0.  1.
        -12    1    3    3    0    0  0.81352057783E+01 -0.27606863611E+02  0.24979175991E+02  0.38108788025E+02  0.00000000000E+00 0.  1.
</event>
<event>
 7    1  0.2706925E-010  0.4778726E+02  0.7816164E-02  0.1312668E+00
        -11   -1    0    0    0    0  0.00000000000E+00  0.00000000000E+00  0.45593999997E+02  0.45594000000E+02  0.51100000000E-03 0. -1.
         11   -1    0    0    0    0 -0.00000000000E+00 -0.00000000000E+00 -0.45593999997E+02  0.45594000000E+02  0.51100000000E-03 0.  1.
    9900012    2    1    2    0    0  0.28579282650E+02 -0.17211897114E+02 -0.27759668976E+02  0.47787262440E+02  0.19999960769E+02 0.  0.
         12    1    1    2    0    0 -0.28579282650E+02  0.17211897114E+02  0.27759668976E+02  0.43400737560E+02  0.00000000000E+00 0. -1.
         11    1    3    3    0    0  0.10454625809E+01 -0.22256019992E+01 -0.80990599577E+01  0.84641047209E+01  0.51100000000E-03 0. -1.
        -11    1    3    3    0    0  0.21864411485E+02 -0.47813873834E+01 -0.12842693475E+02  0.25804048730E+02  0.51100000000E-03 0.  1.
        -12    1    3    3    0    0  0.56694085844E+01 -0.10204907732E+02 -0.68179155438E+01  0.13519108990E+02  0.00000000000E+00 0.  1.
</event>
<event>
 7    1  0.2706925E-010  0.4778727E+02  0.7816164E-02  0.1312668E+00
        -11   -1    0    0    0    0  0.00000000000E+00  0.00000000000E+00  0.45593999997E+02  0.45594000000E+02  0.51100000000E-03 0. -1.
         11   -1    0    0    0    0 -0.00000000000E+00 -0.00000000000E+00 -0.45593999997E+02  0.45594000000E+02  0.51100000000E-03 0.  1.
    9900012    2    1    2    0    0  0.55849209761E+01 -0.20796473665E+02 -0.37682070981E+02  0.47787272672E+02  0.20000007422E+02 0.  0.
         12    1    1    2    0    0 -0.55849209761E+01  0.20796473665E+02  0.37682070981E+02  0.43400727328E+02  0.00000000000E+00 0. -1.
         11    1    3    3    0    0 -0.28431350722E+01 -0.22281021400E+01  0.11196558587E+01  0.37817305150E+01  0.51100000000E-03 0. -1.
        -11    1    3    3    0    0  0.56399695363E+01 -0.86513087343E+01 -0.16970343351E+02  0.19865723065E+02  0.51100000000E-03 0.  1.
         12    1    3    3    0    0  0.27880865120E+01 -0.99170627903E+01 -0.21831383488E+02  0.24139819092E+02  0.00000000000E+00 0. -1.
</event>
<event>
 7    1  0.2706925E-010  0.4778727E+02  0.7816164E-02  0.1312668E+00
        -11   -1    0    0    0    0  0.00000000000E+00  0.00000000000E+00  0.45593999997E+02  0.45594000000E+02  0.51100000000E-03 0.  1.
         11   -1    0    0    0    0 -0.00000000000E+00 -0.00000000000E+00 -0.45593999997E+02  0.45594000000E+02  0.51100000000E-03 0. -1.
    9900012    2    1    2    0    0 -0.53372303486E+01 -0.30266793548E+02  0.30644063100E+02  0.47787269329E+02  0.19999992179E+02 0.  0.
         12    1    1    2    0    0  0.53372303486E+01  0.30266793548E+02 -0.30644063100E+02  0.43400730671E+02  0.00000000000E+00 0. -1.
         11    1    3    3    0    0 -0.87599070083E+00 -0.63015631160E+01 -0.21428526191E+01  0.67133356107E+01  0.51100000000E-03 0. -1.
        -11    1    3    3    0    0 -0.26282340035E+01 -0.20350879692E+02  0.25448374106E+02  0.32690758068E+02  0.51100000000E-03 0.  1.
         12    1    3    3    0    0 -0.18330056442E+01 -0.36143507407E+01  0.73385416133E+01  0.83831756500E+01  0.00000000000E+00 0. -1.
</event>
<event>
 7    1  0.2706925E-010  0.4778727E+02  0.7816164E-02  0.1312668E+00
        -11   -1    0    0    0    0  0.00000000000E+00  0.00000000000E+00  0.45593999997E+02  0.45594000000E+02  0.51100000000E-03 0.  1.
         11   -1    0    0    0    0 -0.00000000000E+00 -0.00000000000E+00 -0.45593999997E+02  0.45594000000E+02  0.51100000000E-03 0. -1.
    9900012    2    1    2    0    0  0.10970072158E+02  0.20543137830E+02  0.36623224554E+02  0.47787267613E+02  0.19999984353E+02 0.  0.
         12    1    1    2    0    0 -0.10970072158E+02 -0.20543137830E+02 -0.36623224554E+02  0.43400732387E+02  0.00000000000E+00 0. -1.
         11    1    3    3    0    0  0.25564330408E+01 -0.46378677788E+00  0.48348386196E+01  0.54887259729E+01  0.51100000000E-03 0. -1.
        -11    1    3    3    0    0  0.11381047249E+02  0.88226399192E+01  0.11418523040E+02  0.18377972693E+02  0.51100000000E-03 0.  1.
        -12    1    3    3    0    0 -0.29674081328E+01  0.12184284689E+02  0.20369862894E+02  0.23920568947E+02  0.00000000000E+00 0.  1.
</event>
<event>
 7    1  0.2706925E-010  0.4778727E+02  0.7816164E-02  0.1312668E+00
        -11   -1    0    0    0    0  0.00000000000E+00  0.00000000000E+00  0.45593999997E+02  0.45594000000E+02  0.51100000000E-03 0. -1.
         11   -1    0    0    0    0 -0.00000000000E+00 -0.00000000000E+00 -0.45593999997E+02  0.45594000000E+02  0.51100000000E-03 0.  1.
    9900012    2    1    2    0    0 -0.43267922978E+02  0.13888320712E+01 -0.30953079836E+01  0.47787274834E+02  0.20000017280E+02 0.  0.
         12    1    1    2    0    0  0.43267922978E+02 -0.13888320712E+01  0.30953079836E+01  0.43400725166E+02  0.00000000000E+00 0. -1.
         11    1    3    3    0    0 -0.16599070475E+02  0.75471742222E+00  0.64845795436E+01  0.17836718060E+02  0.51100000000E-03 0. -1.
        -11    1    3    3    0    0 -0.24594945897E+02 -0.18535471933E+01 -0.65596184814E+01  0.25522060962E+02  0.51100000000E-03 0.  1.
        -12    1    3    3    0    0 -0.20739066064E+01  0.24876618423E+01 -0.30202690458E+01  0.44284958127E+01  0.00000000000E+00 0.  1.
</event>
<event>
 7    1  0.2706925E-010  0.4778727E+02  0.7816164E-02  0.1312668E+00
        -11   -1    0    0    0    0  0.00000000000E+00  0.00000000000E+00  0.45593999997E+02  0.45594000000E+02  0.51100000000E-03 0.  1.
         11   -1    0    0    0    0 -0.00000000000E+00 -0.00000000000E+00 -0.45593999997E+02  0.45594000000E+02  0.51100000000E-03 0. -1.
    9900012    2    1    2    0    0 -0.17878890950E+02  0.32528529550E+01  0.39413036410E+02  0.47787271515E+02  0.20000002145E+02 0.  0.
         12    1    1    2    0    0  0.17878890950E+02 -0.32528529550E+01 -0.39413036410E+02  0.43400728485E+02  0.00000000000E+00 0. -1.
         11    1    3    3    0    0 -0.94576931483E+01 -0.52463629704E+01  0.17837482745E+02  0.20860203140E+02  0.51100000000E-03 0. -1.
        -11    1    3    3    0    0 -0.47098858530E+01  0.89182979946E+01  0.20794667761E+02  0.23111409984E+02  0.51100000000E-03 0.  1.
        -12    1    3    3    0    0 -0.37113119490E+01 -0.41908206933E+00  0.78088590442E+00  0.38156583914E+01  0.00000000000E+00 0.  1.
</event>
<event>
 7    1  0.2706925E-010  0.4778727E+02  0.7816164E-02  0.1312668E+00
        -11   -1    0    0    0    0  0.00000000000E+00  0.00000000000E+00  0.45593999997E+02  0.45594000000E+02  0.51100000000E-03 0.  1.
         11   -1    0    0    0    0 -0.00000000000E+00 -0.00000000000E+00 -0.45593999997E+02  0.45594000000E+02  0.51100000000E-03 0. -1.
    9900012    2    1    2    0    0  0.12226186285E+01  0.78889158725E+01  0.42660212674E+02  0.47787268032E+02  0.19999986265E+02 0.  0.
         12    1    1    2    0    0 -0.12226186285E+01 -0.78889158725E+01 -0.42660212674E+02  0.43400731968E+02  0.00000000000E+00 0. -1.
         11    1    3    3    0    0 -0.55476330749E+00 -0.82609387529E+00 -0.42807534093E+00  0.10832553608E+01  0.51100000000E-03 0. -1.
        -11    1    3    3    0    0 -0.33956764641E+01  0.10045424467E+02  0.16711276727E+02  0.19791612907E+02  0.51100000000E-03 0.  1.
        -12    1    3    3    0    0  0.51730584001E+01 -0.13304147196E+01  0.26377011289E+02  0.26912399764E+02  0.00000000000E+00 0.  1.
</event>
<event>
 7    1  0.2706925E-010  0.4778727E+02  0.7816164E-02  0.1312668E+00
        -11   -1    0    0    0    0  0.00000000000E+00  0.00000000000E+00  0.45593999997E+02  0.45594000000E+02  0.51100000000E-03 0.  1.
         11   -1    0    0    0    0 -0.00000000000E+00 -0.00000000000E+00 -0.45593999997E+02  0.45594000000E+02  0.51100000000E-03 0. -1.
    9900012    2    1    2    0    0  0.13714923119E+02  0.10909598289E+02  0.39705224514E+02  0.47787270689E+02  0.19999998380E+02 0.  0.
         12    1    1    2    0    0 -0.13714923119E+02 -0.10909598289E+02 -0.39705224514E+02  0.43400729311E+02  0.00000000000E+00 0. -1.
         11    1    3    3    0    0  0.95204798591E+01  0.11042400878E+02  0.32008638038E+02  0.35172817107E+02  0.51100000000E-03 0. -1.
        -11    1    3    3    0    0  0.30527597203E+01  0.28006452667E+01  0.84205494053E+01  0.93844876455E+01  0.51100000000E-03 0.  1.
         12    1    3    3    0    0  0.11416835401E+01 -0.29334478560E+01 -0.72396292960E+00  0.32299659368E+01  0.00000000000E+00 0. -1.
</event>
<event>
 7    1  0.2706925E-010  0.4778727E+02  0.7816164E-02  0.1312668E+00
        -11   -1    0    0    0    0  0.00000000000E+00  0.00000000000E+00  0.45593999997E+02  0.45594000000E+02  0.51100000000E-03 0. -1.
         11   -1    0    0    0    0 -0.00000000000E+00 -0.00000000000E+00 -0.45593999997E+02  0.45594000000E+02  0.51100000000E-03 0.  1.
    9900012    2    1    2    0    0  0.13940777358E+02  0.27710167507E+02 -0.30354975703E+02  0.47787271821E+02  0.20000003538E+02 0.  0.
         12    1    1    2    0    0 -0.13940777358E+02 -0.27710167507E+02  0.30354975703E+02  0.43400728179E+02  0.00000000000E+00 0. -1.
         11    1    3    3    0    0  0.13830188358E+02  0.25997745032E+02 -0.28872017308E+02  0.41240153255E+02  0.51100000000E-03 0.  1.
        -11    1    3    3    0    0 -0.25490748462E+01  0.78052369052E+00  0.94382862549E+00  0.28280404060E+01  0.51100000000E-03 0. -1.
         12    1    3    3    0    0  0.26596638458E+01  0.93189878413E+00 -0.24267870201E+01  0.37190781597E+01  0.00000000000E+00 0. -1.
</event>
<event>
 7    1  0.2706925E-010  0.4778721E+02  0.7816164E-02  0.1312668E+00
        -11   -1    0    0    0    0  0.00000000000E+00  0.00000000000E+00  0.45593999997E+02  0.45594000000E+02  0.51100000000E-03 0.  1.
         11   -1    0    0    0    0 -0.00000000000E+00 -0.00000000000E+00 -0.45593999997E+02  0.45594000000E+02  0.51100000000E-03 0. -1.
    9900012    2    1    2    0    0  0.47656310602E+01 -0.25739937359E+02  0.34617529118E+02  0.47787205804E+02  0.19999702539E+02 0.  0.
         12    1    1    2    0    0 -0.47656310602E+01  0.25739937359E+02 -0.34617529118E+02  0.43400794196E+02  0.00000000000E+00 0. -1.
         11    1    3    3    0    0  0.81281878959E-01 -0.12619650964E+01 -0.22956826293E+01  0.26209390768E+01  0.51100000000E-03 0. -1.
        -11    1    3    3    0    0  0.52294042667E+01 -0.12718636936E+02  0.24240389283E+02  0.27869461196E+02  0.51100000000E-03 0.  1.
        -12    1    3    3    0    0 -0.54505508548E+00 -0.11759335327E+02  0.12672822464E+02  0.17296805531E+02  0.00000000000E+00 0.  1.
</event>
<event>
 7    1  0.2706925E-010  0.4778728E+02  0.7816164E-02  0.1312668E+00
        -11   -1    0    0    0    0  0.00000000000E+00  0.00000000000E+00  0.45593999997E+02  0.45594000000E+02  0.51100000000E-03 0. -1.
         11   -1    0    0    0    0 -0.00000000000E+00 -0.00000000000E+00 -0.45593999997E+02  0.45594000000E+02  0.51100000000E-03 0.  1.
    9900012    2    1    2    0    0 -0.24149974977E+02 -0.24130652333E+02 -0.26797632625E+02  0.47787276645E+02  0.20000025535E+02 0.  0.
         12    1    1    2    0    0  0.24149974977E+02  0.24130652333E+02  0.26797632625E+02  0.43400723355E+02  0.00000000000E+00 0. -1.
         11    1    3    3    0    0 -0.11981057353E+02 -0.17371387323E+02 -0.10981079275E+02  0.23788546301E+02  0.51100000000E-03 0. -1.
        -11    1    3    3    0    0 -0.85458183787E+01  0.48742371405E+00 -0.12705826758E+02  0.15320137973E+02  0.51100000000E-03 0.  1.
         12    1    3    3    0    0 -0.36230992451E+01 -0.72466887247E+01 -0.31107265927E+01  0.86785923713E+01  0.00000000000E+00 0. -1.
</event>
<event>
 7    1  0.2706925E-010  0.4778727E+02  0.7816164E-02  0.1312668E+00
        -11   -1    0    0    0    0  0.00000000000E+00  0.00000000000E+00  0.45593999997E+02  0.45594000000E+02  0.51100000000E-03 0. -1.
         11   -1    0    0    0    0 -0.00000000000E+00 -0.00000000000E+00 -0.45593999997E+02  0.45594000000E+02  0.51100000000E-03 0.  1.
    9900012    2    1    2    0    0 -0.16895232076E+01 -0.16486198965E+02 -0.40112021052E+02  0.47787268695E+02  0.19999989287E+02 0.  0.
         12    1    1    2    0    0  0.16895232076E+01  0.16486198965E+02  0.40112021052E+02  0.43400731305E+02  0.00000000000E+00 0. -1.
         11    1    3    3    0    0 -0.23196176974E+01 -0.31216577642E+00 -0.23532866763E+01  0.33190408518E+01  0.51100000000E-03 0. -1.
        -11    1    3    3    0    0 -0.41716052443E+00 -0.13647867526E+02 -0.10901938516E+02  0.17472566343E+02  0.51100000000E-03 0.  1.
        -12    1    3    3    0    0  0.10472550143E+01 -0.25261656618E+01 -0.26856795859E+02  0.26995661500E+02  0.00000000000E+00 0.  1.
</event>
<event>
 7    1  0.2706925E-010  0.4778727E+02  0.7816164E-02  0.1312668E+00
        -11   -1    0    0    0    0  0.00000000000E+00  0.00000000000E+00  0.45593999997E+02  0.45594000000E+02  0.51100000000E-03 0.  1.
         11   -1    0    0    0    0 -0.00000000000E+00 -0.00000000000E+00 -0.45593999997E+02  0.45594000000E+02  0.51100000000E-03 0. -1.
    9900012    2    1    2    0    0 -0.59480834959E+01  0.28720122429E+02  0.31990591357E+02  0.47787273451E+02  0.20000010974E+02 0.  0.
         12    1    1    2    0    0  0.59480834959E+01 -0.28720122429E+02 -0.31990591357E+02  0.43400726549E+02  0.00000000000E+00 0. -1.
         11    1    3    3    0    0  0.16762611832E+01  0.19210765478E+02  0.11879645535E+02  0.22649267982E+02  0.51100000000E-03 0. -1.
        -11    1    3    3    0    0 -0.60561569128E+00  0.78454672066E+01  0.10511124180E+02  0.13130188797E+02  0.51100000000E-03 0.  1.
         12    1    3    3    0    0 -0.70187289878E+01  0.16638897438E+01  0.95998216415E+01  0.12007816672E+02  0.00000000000E+00 0. -1.
</event>
<event>
 7    1  0.2706925E-010  0.4778727E+02  0.7816164E-02  0.1312668E+00
        -11   -1    0    0    0    0  0.00000000000E+00  0.00000000000E+00  0.45593999997E+02  0.45594000000E+02  0.51100000000E-03 0.  1.
         11   -1    0    0    0    0 -0.00000000000E+00 -0.00000000000E+00 -0.45593999997E+02  0.45594000000E+02  0.51100000000E-03 0. -1.
    9900012    2    1    2    0    0 -0.29377059369E+02 -0.18382647919E+02  0.26128333900E+02  0.47787271964E+02  0.20000004191E+02 0.  0.
         12    1    1    2    0    0  0.29377059369E+02  0.18382647919E+02 -0.26128333900E+02  0.43400728036E+02  0.00000000000E+00 0. -1.
         11    1    3    3    0    0 -0.90198475171E+00  0.76814148744E+00 -0.14157014634E+01  0.18460305338E+01  0.51100000000E-03 0. -1.
        -11    1    3    3    0    0 -0.17263724846E+02 -0.16176525971E+02  0.24260220471E+02  0.33886199044E+02  0.51100000000E-03 0.  1.
        -12    1    3    3    0    0 -0.11211349772E+02 -0.29742634348E+01  0.32838148922E+01  0.12055042386E+02  0.00000000000E+00 0.  1.
</event>
<event>
 7    1  0.2706925E-010  0.4778727E+02  0.7816164E-02  0.1312668E+00
        -11   -1    0    0    0    0  0.00000000000E+00  0.00000000000E+00  0.45593999997E+02  0.45594000000E+02  0.51100000000E-03 0. -1.
         11   -1    0    0    0    0 -0.00000000000E+00 -0.00000000000E+00 -0.45593999997E+02  0.45594000000E+02  0.51100000000E-03 0.  1.
    9900012    2    1    2    0    0 -0.12294072551E+02 -0.22008878981E+02 -0.35328291835E+02  0.47787272151E+02  0.20000005045E+02 0.  0.
         12    1    1    2    0    0  0.12294072551E+02  0.22008878981E+02  0.35328291835E+02  0.43400727849E+02  0.00000000000E+00 0. -1.
         11    1    3    3    0    0 -0.11343743075E+02 -0.67824592419E+01 -0.67316642615E+01  0.14832314867E+02  0.51100000000E-03 0. -1.
        -11    1    3    3    0    0  0.11815264724E+01 -0.12276269620E+02 -0.24788970615E+02  0.27687467652E+02  0.51100000000E-03 0.  1.
         12    1    3    3    0    0 -0.21318559486E+01 -0.29501501185E+01 -0.38076569583E+01  0.52674896316E+01  0.00000000000E+00 0. -1.
</event>
<event>
 7    1  0.2706925E-010  0.4778727E+02  0.7816164E-02  0.1312668E+00
        -11   -1    0    0    0    0  0.00000000000E+00  0.00000000000E+00  0.45593999997E+02  0.45594000000E+02  0.51100000000E-03 0.  1.
         11   -1    0    0    0    0 -0.00000000000E+00 -0.00000000000E+00 -0.45593999997E+02  0.45594000000E+02  0.51100000000E-03 0. -1.
    9900012    2    1    2    0    0  0.26499949177E+02 -0.26341020475E+02  0.22080001113E+02  0.47787272873E+02  0.20000008335E+02 0.  0.
         12    1    1    2    0    0 -0.26499949177E+02  0.26341020475E+02 -0.22080001113E+02  0.43400727127E+02  0.00000000000E+00 0. -1.
         11    1    3    3    0    0  0.98782097603E+01 -0.23013556307E+01  0.10357668689E+02  0.14496777805E+02  0.51100000000E-03 0. -1.
        -11    1    3    3    0    0  0.15547045506E+02 -0.16136951681E+02  0.52386407538E+01  0.23012066198E+02  0.51100000000E-03 0.  1.
         12    1    3    3    0    0  0.10746939116E+01 -0.79027131636E+01  0.64836916700E+01  0.10278428869E+02  0.00000000000E+00 0. -1.
</event>
<event>
 7    1  0.2706925E-010  0.4778727E+02  0.7816164E-02  0.1312668E+00
        -11   -1    0    0    0    0  0.00000000000E+00  0.00000000000E+00  0.45593999997E+02  0.45594000000E+02  0.51100000000E-03 0.  1.
         11   -1    0    0    0    0 -0.00000000000E+00 -0.00000000000E+00 -0.45593999997E+02  0.45594000000E+02  0.51100000000E-03 0. -1.
    9900012    2    1    2    0    0  0.39399166029E+02 -0.25413596826E+01  0.18024159718E+02  0.47787272744E+02  0.20000007748E+02 0.  0.
         12    1    1    2    0    0 -0.39399166029E+02  0.25413596826E+01 -0.18024159718E+02  0.43400727256E+02  0.00000000000E+00 0. -1.
         11    1    3    3    0    0 -0.89295778379E+00 -0.11600188524E+01  0.34159140414E+01  0.37163808121E+01  0.51100000000E-03 0. -1.
        -11    1    3    3    0    0  0.23995952409E+02 -0.48812810107E+01  0.11747253297E+02  0.27159355600E+02  0.51100000000E-03 0.  1.
         12    1    3    3    0    0  0.16296171404E+02  0.34999401806E+01  0.28609923794E+01  0.16911536331E+02  0.00000000000E+00 0. -1.
</event>
<event>
 7    1  0.2706925E-010  0.4778728E+02  0.7816164E-02  0.1312668E+00
        -11   -1    0    0    0    0  0.00000000000E+00  0.00000000000E+00  0.45593999997E+02  0.45594000000E+02  0.51100000000E-03 0.  1.
         11   -1    0    0    0    0 -0.00000000000E+00 -0.00000000000E+00 -0.45593999997E+02  0.45594000000E+02  0.51100000000E-03 0. -1.
    9900012    2    1    2    0    0  0.11495561690E+02 -0.16617302077E+02  0.38410155234E+02  0.47787277748E+02  0.20000030563E+02 0.  0.
         12    1    1    2    0    0 -0.11495561690E+02  0.16617302077E+02 -0.38410155234E+02  0.43400722252E+02  0.00000000000E+00 0. -1.
         11    1    3    3    0    0  0.38214266843E+01 -0.12882296740E+02  0.16815532862E+02  0.21524846501E+02  0.51100000000E-03 0. -1.
        -11    1    3    3    0    0  0.75373776131E+01 -0.91579976098E+00  0.42734824321E+01  0.87128297839E+01  0.51100000000E-03 0.  1.
        -12    1    3    3    0    0  0.13675739263E+00 -0.28192055763E+01  0.17321139940E+02  0.17549601463E+02  0.00000000000E+00 0.  1.
</event>
<event>
 7    1  0.2706925E-010  0.4778727E+02  0.7816164E-02  0.1312668E+00
        -11   -1    0    0    0    0  0.00000000000E+00  0.00000000000E+00  0.45593999997E+02  0.45594000000E+02  0.51100000000E-03 0.  1.
         11   -1    0    0    0    0 -0.00000000000E+00 -0.00000000000E+00 -0.45593999997E+02  0.45594000000E+02  0.51100000000E-03 0. -1.
    9900012    2    1    2    0    0  0.14945657017E+01  0.40486694679E+02  0.15563321990E+02  0.47787272310E+02  0.20000005771E+02 0.  0.
         12    1    1    2    0    0 -0.14945657017E+01 -0.40486694679E+02 -0.15563321990E+02  0.43400727690E+02  0.00000000000E+00 0. -1.
         11    1    3    3    0    0 -0.45036449889E+01  0.24892285486E+02  0.91248103900E+01  0.26891836304E+02  0.51100000000E-03 0.  1.
        -11    1    3    3    0    0  0.41654902704E+01  0.40672287561E+01  0.71277039450E+01  0.92031420034E+01  0.51100000000E-03 0. -1.
        -12    1    3    3    0    0  0.18327204202E+01  0.11527180437E+02 -0.68919234466E+00  0.11692294003E+02  0.00000000000E+00 0.  1.
</event>
<event>
 7    1  0.2706925E-010  0.4778727E+02  0.7816164E-02  0.1312668E+00
        -11   -1    0    0    0    0  0.00000000000E+00  0.00000000000E+00  0.45593999997E+02  0.45594000000E+02  0.51100000000E-03 0.  1.
         11   -1    0    0    0    0 -0.00000000000E+00 -0.00000000000E+00 -0.45593999997E+02  0.45594000000E+02  0.51100000000E-03 0. -1.
    9900012    2    1    2    0    0 -0.30000307065E+02  0.22192996257E+02  0.22160225232E+02  0.47787273172E+02  0.20000009699E+02 0.  0.
         12    1    1    2    0    0  0.30000307065E+02 -0.22192996257E+02 -0.22160225232E+02  0.43400726828E+02  0.00000000000E+00 0. -1.
         11    1    3    3    0    0 -0.52948374596E+01  0.13468204943E+02  0.50901188658E+01  0.15340702671E+02  0.51100000000E-03 0. -1.
        -11    1    3    3    0    0 -0.16957303852E+02  0.99763059757E+01  0.11136721487E+02  0.22607596082E+02  0.51100000000E-03 0.  1.
         12    1    3    3    0    0 -0.77481657534E+01 -0.12515146613E+01  0.59333848794E+01  0.98389744190E+01  0.00000000000E+00 0. -1.
</event>
<event>
 7    1  0.2706925E-010  0.4778727E+02  0.7816164E-02  0.1312668E+00
        -11   -1    0    0    0    0  0.00000000000E+00  0.00000000000E+00  0.45593999997E+02  0.45594000000E+02  0.51100000000E-03 0.  1.
         11   -1    0    0    0    0 -0.00000000000E+00 -0.00000000000E+00 -0.45593999997E+02  0.45594000000E+02  0.51100000000E-03 0. -1.
    9900012    2    1    2    0    0  0.43182907108E+02 -0.34975603973E+01  0.25743087429E+01  0.47787268894E+02  0.19999990197E+02 0.  0.
         12    1    1    2    0    0 -0.43182907108E+02  0.34975603973E+01 -0.25743087429E+01  0.43400731106E+02  0.00000000000E+00 0. -1.
         11    1    3    3    0    0  0.18931491836E+02 -0.62551023482E+00  0.41891919454E+00  0.18946454543E+02  0.51100000000E-03 0. -1.
        -11    1    3    3    0    0  0.17849256833E+02  0.38726265244E+00  0.80150834220E+01  0.19570066539E+02  0.51100000000E-03 0.  1.
        -12    1    3    3    0    0  0.64021584390E+01 -0.32593128150E+01 -0.58596938736E+01  0.92707478121E+01  0.00000000000E+00 0.  1.
</event>
<event>
 7    1  0.2706925E-010  0.4778727E+02  0.7816164E-02  0.1312668E+00
        -11   -1    0    0    0    0  0.00000000000E+00  0.00000000000E+00  0.45593999997E+02  0.45594000000E+02  0.51100000000E-03 0.  1.
         11   -1    0    0    0    0 -0.00000000000E+00 -0.00000000000E+00 -0.45593999997E+02  0.45594000000E+02  0.51100000000E-03 0. -1.
    9900012    2    1    2    0    0 -0.26871536830E+02  0.33322745243E+02  0.71511345398E+01  0.47787267664E+02  0.19999984586E+02 0.  0.
         12    1    1    2    0    0  0.26871536830E+02 -0.33322745243E+02 -0.71511345398E+01  0.43400732336E+02  0.00000000000E+00 0. -1.
         11    1    3    3    0    0 -0.38198961832E+00  0.12012341701E+01  0.52901179219E+01  0.54382191468E+01  0.51100000000E-03 0. -1.
        -11    1    3    3    0    0 -0.20152475331E+02  0.28777055593E+02  0.19061681080E+01  0.35183443090E+02  0.51100000000E-03 0.  1.
         12    1    3    3    0    0 -0.63370718804E+01  0.33444554800E+01 -0.45151490069E-01  0.71656054267E+01  0.00000000000E+00 0. -1.
</event>
<event>
 7    1  0.2706925E-010  0.4778727E+02  0.7816164E-02  0.1312668E+00
        -11   -1    0    0    0    0  0.00000000000E+00  0.00000000000E+00  0.45593999997E+02  0.45594000000E+02  0.51100000000E-03 0. -1.
         11   -1    0    0    0    0 -0.00000000000E+00 -0.00000000000E+00 -0.45593999997E+02  0.45594000000E+02  0.51100000000E-03 0.  1.
    9900012    2    1    2    0    0  0.19120383515E+02 -0.16173165875E+02 -0.35446624761E+02  0.47787267666E+02  0.19999984595E+02 0.  0.
         12    1    1    2    0    0 -0.19120383515E+02  0.16173165875E+02  0.35446624761E+02  0.43400732334E+02  0.00000000000E+00 0. -1.
         11    1    3    3    0    0  0.15004685172E+02 -0.97001928037E+01 -0.22894433317E+02  0.29041167241E+02  0.51100000000E-03 0. -1.
        -11    1    3    3    0    0  0.48292850253E+01 -0.34534844402E+01 -0.14085229405E+02  0.15285360195E+02  0.51100000000E-03 0.  1.
         12    1    3    3    0    0 -0.71358668315E+00 -0.30194886316E+01  0.15330379605E+01  0.34607402299E+01  0.00000000000E+00 0. -1.
</event>
<event>
 7    1  0.2706925E-010  0.4778727E+02  0.7816164E-02  0.1312668E+00
        -11   -1    0    0    0    0  0.00000000000E+00  0.00000000000E+00  0.45593999997E+02  0.45594000000E+02  0.51100000000E-03 0. -1.
         11   -1    0    0    0    0 -0.00000000000E+00 -0.00000000000E+00 -0.45593999997E+02  0.45594000000E+02  0.51100000000E-03 0.  1.
    9900012    2    1    2    0    0 -0.14944750640E+02  0.40611416349E+02  0.33152112694E+01  0.47787270337E+02  0.19999996774E+02 0.  0.
         12    1    1    2    0    0  0.14944750640E+02 -0.40611416349E+02 -0.33152112694E+01  0.43400729663E+02  0.00000000000E+00 0. -1.
         11    1    3    3    0    0 -0.68355770272E+01  0.28594585986E+02  0.96020218532E+01  0.30928535124E+02  0.51100000000E-03 0.  1.
        -11    1    3    3    0    0 -0.42433060102E+01  0.60940005894E+01 -0.63727038436E+01  0.97853892932E+01  0.51100000000E-03 0. -1.
         12    1    3    3    0    0 -0.38658676025E+01  0.59228297731E+01  0.85893259768E-01  0.70733459192E+01  0.00000000000E+00 0. -1.
</event>
<event>
 7    1  0.2706925E-010  0.4778727E+02  0.7816164E-02  0.1312668E+00
        -11   -1    0    0    0    0  0.00000000000E+00  0.00000000000E+00  0.45593999997E+02  0.45594000000E+02  0.51100000000E-03 0.  1.
         11   -1    0    0    0    0 -0.00000000000E+00 -0.00000000000E+00 -0.45593999997E+02  0.45594000000E+02  0.51100000000E-03 0. -1.
    9900012    2    1    2    0    0 -0.69989769284E+01 -0.41092599776E+02 -0.12084530205E+02  0.47787270689E+02  0.19999998380E+02 0.  0.
         12    1    1    2    0    0  0.69989769284E+01  0.41092599776E+02  0.12084530205E+02  0.43400729311E+02  0.00000000000E+00 0. -1.
         11    1    3    3    0    0  0.39734153356E+01 -0.48033944415E+01 -0.27104751505E+01  0.67975954126E+01  0.51100000000E-03 0. -1.
        -11    1    3    3    0    0 -0.10833515421E+02 -0.37028842584E+02 -0.10165205146E+02  0.39897764793E+02  0.51100000000E-03 0.  1.
        -12    1    3    3    0    0 -0.13887684284E+00  0.73963724948E+00  0.79115009107E+00  0.10919104839E+01  0.00000000000E+00 0.  1.
</event>
<event>
 7    1  0.2706925E-010  0.4778728E+02  0.7816164E-02  0.1312668E+00
        -11   -1    0    0    0    0  0.00000000000E+00  0.00000000000E+00  0.45593999997E+02  0.45594000000E+02  0.51100000000E-03 0. -1.
         11   -1    0    0    0    0 -0.00000000000E+00 -0.00000000000E+00 -0.45593999997E+02  0.45594000000E+02  0.51100000000E-03 0.  1.
    9900012    2    1    2    0    0  0.84455550828E+01  0.41727703949E+02  0.84316950457E+01  0.47787283890E+02  0.20000058567E+02 0.  0.
         12    1    1    2    0    0 -0.84455550828E+01 -0.41727703949E+02 -0.84316950457E+01  0.43400716110E+02  0.00000000000E+00 0. -1.
         11    1    3    3    0    0  0.32025911594E+01  0.27847099014E+02  0.12248099154E+02  0.30589760489E+02  0.51100000000E-03 0. -1.
        -11    1    3    3    0    0  0.49986291546E+01  0.46331151265E+01  0.79385507020E+00  0.68616510648E+01  0.51100000000E-03 0.  1.
         12    1    3    3    0    0  0.24433476880E+00  0.92474898092E+01 -0.46102591789E+01  0.10335872336E+02  0.00000000000E+00 0. -1.
</event>
<event>
 7    1  0.2706925E-010  0.4778727E+02  0.7816164E-02  0.1312668E+00
        -11   -1    0    0    0    0  0.00000000000E+00  0.00000000000E+00  0.45593999997E+02  0.45594000000E+02  0.51100000000E-03 0.  1.
         11   -1    0    0    0    0 -0.00000000000E+00 -0.00000000000E+00 -0.45593999997E+02  0.45594000000E+02  0.51100000000E-03 0. -1.
    9900012    2    1    2    0    0  0.17413300624E+02  0.39453040740E+02 -0.48844615772E+01  0.47787269279E+02  0.19999991950E+02 0.  0.
         12    1    1    2    0    0 -0.17413300624E+02 -0.39453040740E+02  0.48844615772E+01  0.43400730721E+02  0.00000000000E+00 0. -1.
         11    1    3    3    0    0 -0.10236720492E+01  0.12470881530E+02 -0.62080360403E+01  0.13968196101E+02  0.51100000000E-03 0. -1.
        -11    1    3    3    0    0  0.41743555439E+00 -0.34104626181E+00  0.94363057388E+00  0.10867400406E+01  0.51100000000E-03 0.  1.
         12    1    3    3    0    0  0.18019537118E+02  0.27323205472E+02  0.37994388926E+00  0.32732333137E+02  0.00000000000E+00 0. -1.
</event>
<event>
 7    1  0.2706925E-010  0.4778727E+02  0.7816164E-02  0.1312668E+00
        -11   -1    0    0    0    0  0.00000000000E+00  0.00000000000E+00  0.45593999997E+02  0.45594000000E+02  0.51100000000E-03 0. -1.
         11   -1    0    0    0    0 -0.00000000000E+00 -0.00000000000E+00 -0.45593999997E+02  0.45594000000E+02  0.51100000000E-03 0.  1.
    9900012    2    1    2    0    0 -0.34324496436E+02  0.23106368989E+02 -0.13097630436E+02  0.47787271130E+02  0.20000000389E+02 0.  0.
         12    1    1    2    0    0  0.34324496436E+02 -0.23106368989E+02  0.13097630436E+02  0.43400728870E+02  0.00000000000E+00 0. -1.
         11    1    3    3    0    0 -0.44077292587E+01 -0.24282977727E+00 -0.65061125144E+00  0.44621002656E+01  0.51100000000E-03 0. -1.
        -11    1    3    3    0    0 -0.96091021077E-01  0.47900185834E+01  0.21966599616E+01  0.52705622813E+01  0.51100000000E-03 0.  1.
        -12    1    3    3    0    0 -0.29820676156E+02  0.18559180183E+02 -0.14643679146E+02  0.38054608583E+02  0.00000000000E+00 0.  1.
</event>
<event>
 7    1  0.2706925E-010  0.4778728E+02  0.7816164E-02  0.1312668E+00
        -11   -1    0    0    0    0  0.00000000000E+00  0.00000000000E+00  0.45593999997E+02  0.45594000000E+02  0.51100000000E-03 0. -1.
         11   -1    0    0    0    0 -0.00000000000E+00 -0.00000000000E+00 -0.45593999997E+02  0.45594000000E+02  0.51100000000E-03 0.  1.
    9900012    2    1    2    0    0  0.23209882579E+02 -0.36559720299E+02  0.28828806460E+01  0.47787276521E+02  0.20000024971E+02 0.  0.
         12    1    1    2    0    0 -0.23209882579E+02  0.36559720299E+02 -0.28828806460E+01  0.43400723479E+02  0.00000000000E+00 0. -1.
         11    1    3    3    0    0  0.14413386795E+02 -0.11708648993E+02  0.84403621491E+01  0.20397987489E+02  0.51100000000E-03 0. -1.
        -11    1    3    3    0    0  0.69739121493E+01 -0.14903517004E+02 -0.52490499666E+01  0.17271444513E+02  0.51100000000E-03 0.  1.
         12    1    3    3    0    0  0.18225836349E+01 -0.99475543022E+01 -0.30843153651E+00  0.10117844519E+02  0.00000000000E+00 0. -1.
</event>
<event>
 7    1  0.2706925E-010  0.4778727E+02  0.7816164E-02  0.1312668E+00
        -11   -1    0    0    0    0  0.00000000000E+00  0.00000000000E+00  0.45593999997E+02  0.45594000000E+02  0.51100000000E-03 0.  1.
         11   -1    0    0    0    0 -0.00000000000E+00 -0.00000000000E+00 -0.45593999997E+02  0.45594000000E+02  0.51100000000E-03 0. -1.
    9900012    2    1    2    0    0 -0.13281181314E+02 -0.40060782677E+02 -0.10117665694E+02  0.47787271378E+02  0.20000001522E+02 0.  0.
         12    1    1    2    0    0  0.13281181314E+02  0.40060782677E+02  0.10117665694E+02  0.43400728622E+02  0.00000000000E+00 0. -1.
         11    1    3    3    0    0 -0.80446582248E+01 -0.84922641626E+01  0.28989451318E+01  0.12051512756E+02  0.51100000000E-03 0. -1.
        -11    1    3    3    0    0 -0.63786668465E+01 -0.22539037225E+02 -0.12661906840E+02  0.26627419605E+02  0.51100000000E-03 0.  1.
        -12    1    3    3    0    0  0.11421437577E+01 -0.90294812901E+01 -0.35470398549E+00  0.91083390171E+01  0.00000000000E+00 0.  1.
</event>
<event>
 7    1  0.2706925E-010  0.4778727E+02  0.7816164E-02  0.1312668E+00
        -11   -1    0    0    0    0  0.00000000000E+00  0.00000000000E+00  0.45593999997E+02  0.45594000000E+02  0.51100000000E-03 0.  1.
         11   -1    0    0    0    0 -0.00000000000E+00 -0.00000000000E+00 -0.45593999997E+02  0.45594000000E+02  0.51100000000E-03 0. -1.
    9900012    2    1    2    0    0 -0.82056170077E+01  0.29808707536E+02  0.30458701825E+02  0.47787265994E+02  0.19999976972E+02 0.  0.
         12    1    1    2    0    0  0.82056170077E+01 -0.29808707536E+02 -0.30458701825E+02  0.43400734006E+02  0.00000000000E+00 0. -1.
         11    1    3    3    0    0 -0.92661801155E+01  0.12225220441E+02  0.74066813330E+01  0.17034583570E+02  0.51100000000E-03 0. -1.
        -11    1    3    3    0    0  0.15685976727E+01  0.15923172508E+02  0.23946091470E+02  0.28799708650E+02  0.51100000000E-03 0.  1.
        -12    1    3    3    0    0 -0.50803456486E+00  0.16603145862E+01 -0.89407097882E+00  0.19529737734E+01  0.00000000000E+00 0.  1.
</event>
<event>
 7    1  0.2706925E-010  0.4778727E+02  0.7816164E-02  0.1312668E+00
        -11   -1    0    0    0    0  0.00000000000E+00  0.00000000000E+00  0.45593999997E+02  0.45594000000E+02  0.51100000000E-03 0.  1.
         11   -1    0    0    0    0 -0.00000000000E+00 -0.00000000000E+00 -0.45593999997E+02  0.45594000000E+02  0.51100000000E-03 0. -1.
    9900012    2    1    2    0    0  0.22944047530E+02  0.30162610624E+02  0.21152092520E+02  0.47787269422E+02  0.19999992604E+02 0.  0.
         12    1    1    2    0    0 -0.22944047530E+02 -0.30162610624E+02 -0.21152092520E+02  0.43400730578E+02  0.00000000000E+00 0. -1.
         11    1    3    3    0    0  0.53716908271E+01  0.15572578633E+02  0.41905110864E+01  0.16997666047E+02  0.51100000000E-03 0. -1.
        -11    1    3    3    0    0  0.68279541048E+01  0.13126574399E+02  0.87736601918E+01  0.17201890191E+02  0.51100000000E-03 0.  1.
         12    1    3    3    0    0  0.10744402598E+02  0.14634575916E+01  0.81879212419E+01  0.13587713184E+02  0.00000000000E+00 0. -1.
</event>
<event>
 7    1  0.2706925E-010  0.4778727E+02  0.7816164E-02  0.1312668E+00
        -11   -1    0    0    0    0  0.00000000000E+00  0.00000000000E+00  0.45593999997E+02  0.45594000000E+02  0.51100000000E-03 0. -1.
         11   -1    0    0    0    0 -0.00000000000E+00 -0.00000000000E+00 -0.45593999997E+02  0.45594000000E+02  0.51100000000E-03 0.  1.
    9900012    2    1    2    0    0  0.41939884447E+02 -0.61913848163E+01 -0.92917236410E+01  0.47787270956E+02  0.19999999595E+02 0.  0.
         12    1    1    2    0    0 -0.41939884447E+02  0.61913848163E+01  0.92917236410E+01  0.43400729044E+02  0.00000000000E+00 0. -1.
         11    1    3    3    0    0  0.60107295984E+01  0.29081773089E+00  0.51211104851E+01  0.79018490316E+01  0.51100000000E-03 0. -1.
        -11    1    3    3    0    0  0.22383446539E+02 -0.69878076445E+01 -0.71921314641E+01  0.24527023666E+02  0.51100000000E-03 0.  1.
        -12    1    3    3    0    0  0.13545708309E+02  0.50560509727E+00 -0.72207026620E+01  0.15358398258E+02  0.00000000000E+00 0.  1.
</event>
<event>
 7    1  0.2706925E-010  0.4778727E+02  0.7816164E-02  0.1312668E+00
        -11   -1    0    0    0    0  0.00000000000E+00  0.00000000000E+00  0.45593999997E+02  0.45594000000E+02  0.51100000000E-03 0.  1.
         11   -1    0    0    0    0 -0.00000000000E+00 -0.00000000000E+00 -0.45593999997E+02  0.45594000000E+02  0.51100000000E-03 0. -1.
    9900012    2    1    2    0    0 -0.43012543813E+02 -0.46277278714E+01  0.34825940202E+01  0.47787271301E+02  0.20000001170E+02 0.  0.
         12    1    1    2    0    0  0.43012543813E+02  0.46277278714E+01 -0.34825940202E+01  0.43400728699E+02  0.00000000000E+00 0. -1.
         11    1    3    3    0    0 -0.68747210343E+01 -0.68681864764E+01 -0.32472071295E+01  0.10245883524E+02  0.51100000000E-03 0. -1.
        -11    1    3    3    0    0 -0.30038665357E+02 -0.15721642582E+00  0.35217902998E+01  0.30244820063E+02  0.51100000000E-03 0.  1.
        -12    1    3    3    0    0 -0.60991574210E+01  0.23976750308E+01  0.32080108500E+01  0.72965677146E+01  0.00000000000E+00 0.  1.
</event>
<event>
 7    1  0.2706925E-010  0.4778727E+02  0.7816164E-02  0.1312668E+00
        -11   -1    0    0    0    0  0.00000000000E+00  0.00000000000E+00  0.45593999997E+02  0.45594000000E+02  0.51100000000E-03 0. -1.
         11   -1    0    0    0    0 -0.00000000000E+00 -0.00000000000E+00 -0.45593999997E+02  0.45594000000E+02  0.51100000000E-03 0.  1.
    9900012    2    1    2    0    0  0.19416504204E+01 -0.49199172376E+01 -0.43077229876E+02  0.47787270446E+02  0.19999997274E+02 0.  0.
         12    1    1    2    0    0 -0.19416504204E+01  0.49199172376E+01  0.43077229876E+02  0.43400729554E+02  0.00000000000E+00 0. -1.
         11    1    3    3    0    0  0.10017344937E+02 -0.40792839618E+01 -0.14883835693E+02  0.18398813072E+02  0.51100000000E-03 0. -1.
        -11    1    3    3    0    0 -0.52915048052E+01 -0.57151928636E+00 -0.15428976991E+02  0.16321151572E+02  0.51100000000E-03 0.  1.
        -12    1    3    3    0    0 -0.27841897119E+01 -0.26911398942E+00 -0.12764417192E+02  0.13067305802E+02  0.00000000000E+00 0.  1.
</event>
<event>
 7    1  0.2706925E-010  0.4778727E+02  0.7816164E-02  0.1312668E+00
        -11   -1    0    0    0    0  0.00000000000E+00  0.00000000000E+00  0.45593999997E+02  0.45594000000E+02  0.51100000000E-03 0.  1.
         11   -1    0    0    0    0 -0.00000000000E+00 -0.00000000000E+00 -0.45593999997E+02  0.45594000000E+02  0.51100000000E-03 0. -1.
    9900012    2    1    2    0    0 -0.36681473603E+02 -0.19109671768E+02  0.13149647944E+02  0.47787270723E+02  0.19999998534E+02 0.  0.
         12    1    1    2    0    0  0.36681473603E+02  0.19109671768E+02 -0.13149647944E+02  0.43400729277E+02  0.00000000000E+00 0. -1.
         11    1    3    3    0    0 -0.10218858208E+02 -0.15717028945E+02  0.24307492629E+01  0.18903930919E+02  0.51100000000E-03 0. -1.
        -11    1    3    3    0    0 -0.22830671060E+02 -0.19983029179E+01  0.88505062838E+01  0.24567543983E+02  0.51100000000E-03 0.  1.
         12    1    3    3    0    0 -0.36319443349E+01 -0.13943399043E+01  0.18683923970E+01  0.43157958211E+01  0.00000000000E+00 0. -1.
</event>
<event>
 7    1  0.2706925E-010  0.4778727E+02  0.7816164E-02  0.1312668E+00
        -11   -1    0    0    0    0  0.00000000000E+00  0.00000000000E+00  0.45593999997E+02  0.45594000000E+02  0.51100000000E-03 0. -1.
         11   -1    0    0    0    0 -0.00000000000E+00 -0.00000000000E+00 -0.45593999997E+02  0.45594000000E+02  0.51100000000E-03 0.  1.
    9900012    2    1    2    0    0 -0.42139973649E+02 -0.10207104888E+02  0.19133082635E+01  0.47787272842E+02  0.20000008196E+02 0.  0.
         12    1    1    2    0    0  0.42139973649E+02  0.10207104888E+02 -0.19133082635E+01  0.43400727158E+02  0.00000000000E+00 0. -1.
         11    1    3    3    0    0 -0.21698045490E+02 -0.11722231844E+02 -0.45917797888E+01  0.25085859351E+02  0.51100000000E-03 0. -1.
        -11    1    3    3    0    0 -0.20754262072E+02  0.77223525176E+00  0.56436085161E+01  0.21521757800E+02  0.51100000000E-03 0.  1.
         12    1    3    3    0    0  0.31233391319E+00  0.74289170497E+00  0.86147953622E+00  0.11796556913E+01  0.00000000000E+00 0. -1.
</event>
<event>
 7    1  0.2706925E-010  0.4778727E+02  0.7816164E-02  0.1312668E+00
        -11   -1    0    0    0    0  0.00000000000E+00  0.00000000000E+00  0.45593999997E+02  0.45594000000E+02  0.51100000000E-03 0.  1.
         11   -1    0    0    0    0 -0.00000000000E+00 -0.00000000000E+00 -0.45593999997E+02  0.45594000000E+02  0.51100000000E-03 0. -1.
    9900012    2    1    2    0    0 -0.72738886870E+01  0.42735325153E+02 -0.20990311636E+01  0.47787269541E+02  0.19999993145E+02 0.  0.
         12    1    1    2    0    0  0.72738886870E+01 -0.42735325153E+02  0.20990311636E+01  0.43400730459E+02  0.00000000000E+00 0. -1.
         11    1    3    3    0    0 -0.10181247799E+02  0.21527976219E+02  0.43919709461E+01  0.24215717538E+02  0.51100000000E-03 0. -1.
        -11    1    3    3    0    0 -0.40409373069E+00  0.15530176358E+02 -0.21223997887E+01  0.15679740132E+02  0.51100000000E-03 0.  1.
         12    1    3    3    0    0  0.33114528424E+01  0.56771725753E+01 -0.43686023210E+01  0.78918118716E+01  0.00000000000E+00 0. -1.
</event>
<event>
 7    1  0.2706925E-010  0.4778728E+02  0.7816164E-02  0.1312668E+00
        -11   -1    0    0    0    0  0.00000000000E+00  0.00000000000E+00  0.45593999997E+02  0.45594000000E+02  0.51100000000E-03 0.  1.
         11   -1    0    0    0    0 -0.00000000000E+00 -0.00000000000E+00 -0.45593999997E+02  0.45594000000E+02  0.51100000000E-03 0. -1.
    9900012    2    1    2    0    0 -0.11386639415E+02 -0.28199725437E+01  0.41785339713E+02  0.47787280913E+02  0.20000044994E+02 0.  0.
         12    1    1    2    0    0  0.11386639415E+02  0.28199725437E+01 -0.41785339713E+02  0.43400719087E+02  0.00000000000E+00 0. -1.
         11    1    3    3    0    0 -0.79566489246E+01  0.14665770979E+01  0.62021814203E+01  0.10194418332E+02  0.51100000000E-03 0. -1.
        -11    1    3    3    0    0 -0.48331886568E+01 -0.25212118847E+01  0.34771421547E+02  0.35196135848E+02  0.51100000000E-03 0.  1.
        -12    1    3    3    0    0  0.14031981659E+01 -0.17653377569E+01  0.81173674612E+00  0.23967267332E+01  0.00000000000E+00 0.  1.
</event>
<event>
 7    1  0.2706925E-010  0.4778727E+02  0.7816164E-02  0.1312668E+00
        -11   -1    0    0    0    0  0.00000000000E+00  0.00000000000E+00  0.45593999997E+02  0.45594000000E+02  0.51100000000E-03 0. -1.
         11   -1    0    0    0    0 -0.00000000000E+00 -0.00000000000E+00 -0.45593999997E+02  0.45594000000E+02  0.51100000000E-03 0.  1.
    9900012    2    1    2    0    0 -0.48423546968E+01 -0.56390814274E+01 -0.42759506798E+02  0.47787273509E+02  0.20000011237E+02 0.  0.
         12    1    1    2    0    0  0.48423546968E+01  0.56390814274E+01  0.42759506798E+02  0.43400726491E+02  0.00000000000E+00 0. -1.
         11    1    3    3    0    0 -0.20912483198E+01  0.26275158927E+01 -0.11262836818E+01  0.35419873651E+01  0.51100000000E-03 0. -1.
        -11    1    3    3    0    0 -0.16785584597E+01 -0.13909536875E+01 -0.33374783214E+02  0.33445903569E+02  0.51100000000E-03 0.  1.
        -12    1    3    3    0    0 -0.10725479174E+01 -0.68756436326E+01 -0.82584399018E+01  0.10799382575E+02  0.00000000000E+00 0.  1.
</event>
<event>
 7    1  0.2706925E-010  0.4778727E+02  0.7816164E-02  0.1312668E+00
        -11   -1    0    0    0    0  0.00000000000E+00  0.00000000000E+00  0.45593999997E+02  0.45594000000E+02  0.51100000000E-03 0.  1.
         11   -1    0    0    0    0 -0.00000000000E+00 -0.00000000000E+00 -0.45593999997E+02  0.45594000000E+02  0.51100000000E-03 0. -1.
    9900012    2    1    2    0    0  0.30237355529E+02 -0.27997033228E+02  0.13619545495E+02  0.47787267766E+02  0.19999985052E+02 0.  0.
         12    1    1    2    0    0 -0.30237355529E+02  0.27997033228E+02 -0.13619545495E+02  0.43400732234E+02  0.00000000000E+00 0. -1.
         11    1    3    3    0    0  0.13787662368E+01  0.87353278635E+00 -0.13840265141E+01  0.21399966162E+01  0.51100000000E-03 0. -1.
        -11    1    3    3    0    0  0.22059180282E+02 -0.28819519626E+02  0.13120974872E+02  0.38591866087E+02  0.51100000000E-03 0.  1.
        -12    1    3    3    0    0  0.67994090102E+01 -0.51046388234E-01  0.18825971374E+01  0.70554050630E+01  0.00000000000E+00 0.  1.
</event>
<event>
 7    1  0.2706925E-010  0.4778727E+02  0.7816164E-02  0.1312668E+00
        -11   -1    0    0    0    0  0.00000000000E+00  0.00000000000E+00  0.45593999997E+02  0.45594000000E+02  0.51100000000E-03 0.  1.
         11   -1    0    0    0    0 -0.00000000000E+00 -0.00000000000E+00 -0.45593999997E+02  0.45594000000E+02  0.51100000000E-03 0. -1.
    9900012    2    1    2    0    0 -0.21814230985E+01  0.40292170399E+02  0.15981417593E+02  0.47787270623E+02  0.19999998076E+02 0.  0.
         12    1    1    2    0    0  0.21814230985E+01 -0.40292170399E+02 -0.15981417593E+02  0.43400729377E+02  0.00000000000E+00 0. -1.
         11    1    3    3    0    0 -0.86585971459E+01  0.13174390266E+02  0.63543599845E+01  0.16997463178E+02  0.51100000000E-03 0. -1.
        -11    1    3    3    0    0  0.13791392314E+01  0.14828590014E+02  0.91452819149E+01  0.17476420926E+02  0.51100000000E-03 0.  1.
         12    1    3    3    0    0  0.50980348159E+01  0.12289190119E+02  0.48177569373E+00  0.13313386518E+02  0.00000000000E+00 0. -1.
</event>
<event>
 7    1  0.2706925E-010  0.4778727E+02  0.7816164E-02  0.1312668E+00
        -11   -1    0    0    0    0  0.00000000000E+00  0.00000000000E+00  0.45593999997E+02  0.45594000000E+02  0.51100000000E-03 0.  1.
         11   -1    0    0    0    0 -0.00000000000E+00 -0.00000000000E+00 -0.45593999997E+02  0.45594000000E+02  0.51100000000E-03 0. -1.
    9900012    2    1    2    0    0 -0.42386462723E+02  0.74957639611E+01 -0.55519869120E+01  0.47787271225E+02  0.20000000824E+02 0.  0.
         12    1    1    2    0    0  0.42386462723E+02 -0.74957639611E+01  0.55519869120E+01  0.43400728775E+02  0.00000000000E+00 0. -1.
         11    1    3    3    0    0 -0.21388830248E+02  0.22783865309E+00 -0.95802921070E+01  0.23437490628E+02  0.51100000000E-03 0. -1.
        -11    1    3    3    0    0 -0.94411385721E+01  0.80699151564E+01  0.17352410423E+01  0.12540721267E+02  0.51100000000E-03 0.  1.
         12    1    3    3    0    0 -0.11556493903E+02 -0.80198984842E+00  0.22930641527E+01  0.11809059330E+02  0.00000000000E+00 0. -1.
</event>
<event>
 7    1  0.2706925E-010  0.4778727E+02  0.7816164E-02  0.1312668E+00
        -11   -1    0    0    0    0  0.00000000000E+00  0.00000000000E+00  0.45593999997E+02  0.45594000000E+02  0.51100000000E-03 0.  1.
         11   -1    0    0    0    0 -0.00000000000E+00 -0.00000000000E+00 -0.45593999997E+02  0.45594000000E+02  0.51100000000E-03 0. -1.
    9900012    2    1    2    0    0  0.10042673571E+02 -0.21733068976E+02  0.36200026909E+02  0.47787268120E+02  0.19999986665E+02 0.  0.
         12    1    1    2    0    0 -0.10042673571E+02  0.21733068976E+02 -0.36200026909E+02  0.43400731880E+02  0.00000000000E+00 0. -1.
         11    1    3    3    0    0  0.90106923093E+01 -0.38909086421E+01  0.85638693376E+01  0.13025805320E+02  0.51100000000E-03 0. -1.
        -11    1    3    3    0    0 -0.91890682182E-01 -0.19183754853E+02  0.26330721602E+02  0.32578087643E+02  0.51100000000E-03 0.  1.
         12    1    3    3    0    0  0.11238719437E+01  0.13415945196E+01  0.13054359696E+01  0.21833751560E+01  0.00000000000E+00 0. -1.
</event>
<event>
 7    1  0.2706925E-010  0.4778727E+02  0.7816164E-02  0.1312668E+00
        -11   -1    0    0    0    0  0.00000000000E+00  0.00000000000E+00  0.45593999997E+02  0.45594000000E+02  0.51100000000E-03 0.  1.
         11   -1    0    0    0    0 -0.00000000000E+00 -0.00000000000E+00 -0.45593999997E+02  0.45594000000E+02  0.51100000000E-03 0. -1.
    9900012    2    1    2    0    0  0.23940340419E+02 -0.16755893324E+02  0.32089299566E+02  0.47787274118E+02  0.20000014015E+02 0.  0.
         12    1    1    2    0    0 -0.23940340419E+02  0.16755893324E+02 -0.32089299566E+02  0.43400725882E+02  0.00000000000E+00 0. -1.
         11    1    3    3    0    0  0.11826762351E+02 -0.18578277760E+01  0.54987171960E+01  0.13174206724E+02  0.51100000000E-03 0. -1.
        -11    1    3    3    0    0  0.84688524468E+01 -0.19578817755E+01  0.96816627683E+01  0.13011124357E+02  0.51100000000E-03 0.  1.
         12    1    3    3    0    0  0.36447256215E+01 -0.12940183772E+02  0.16908919601E+02  0.21601943037E+02  0.00000000000E+00 0. -1.
</event>
<event>
 7    1  0.2706925E-010  0.4778724E+02  0.7816164E-02  0.1312668E+00
        -11   -1    0    0    0    0  0.00000000000E+00  0.00000000000E+00  0.45593999997E+02  0.45594000000E+02  0.51100000000E-03 0.  1.
         11   -1    0    0    0    0 -0.00000000000E+00 -0.00000000000E+00 -0.45593999997E+02  0.45594000000E+02  0.51100000000E-03 0. -1.
    9900012    2    1    2    0    0 -0.29554663855E+02 -0.93990428706E+01  0.30361259215E+02  0.47787237062E+02  0.19999845062E+02 0.  0.
         12    1    1    2    0    0  0.29554663855E+02  0.93990428706E+01 -0.30361259215E+02  0.43400762938E+02  0.00000000000E+00 0. -1.
         11    1    3    3    0    0 -0.14576215861E+02 -0.11842028695E+02  0.14634854592E+02  0.23809214217E+02  0.51100000000E-03 0. -1.
        -11    1    3    3    0    0 -0.98471790616E+01 -0.30035775437E+01  0.11288412341E+02  0.15277979807E+02  0.51100000000E-03 0.  1.
         12    1    3    3    0    0 -0.51312689322E+01  0.54465633684E+01  0.44379922812E+01  0.87000430383E+01  0.00000000000E+00 0. -1.
</event>
<event>
 7    1  0.2706925E-010  0.4778728E+02  0.7816164E-02  0.1312668E+00
        -11   -1    0    0    0    0  0.00000000000E+00  0.00000000000E+00  0.45593999997E+02  0.45594000000E+02  0.51100000000E-03 0. -1.
         11   -1    0    0    0    0 -0.00000000000E+00 -0.00000000000E+00 -0.45593999997E+02  0.45594000000E+02  0.51100000000E-03 0.  1.
    9900012    2    1    2    0    0 -0.14076656087E+01 -0.13124066384E+02 -0.41344889744E+02  0.47787279397E+02  0.20000038081E+02 0.  0.
         12    1    1    2    0    0  0.14076656087E+01  0.13124066384E+02  0.41344889744E+02  0.43400720603E+02  0.00000000000E+00 0. -1.
         11    1    3    3    0    0 -0.41272441087E+01 -0.89558131744E-01 -0.10182088200E+01  0.42519306266E+01  0.51100000000E-03 0. -1.
        -11    1    3    3    0    0  0.41355065577E+01 -0.12080621414E+02 -0.39722479188E+02  0.41724323617E+02  0.51100000000E-03 0.  1.
        -12    1    3    3    0    0 -0.14159280577E+01 -0.95388683843E+00 -0.60420173630E+00  0.18110251526E+01  0.00000000000E+00 0.  1.
</event>
<event>
 7    1  0.2706925E-010  0.4778727E+02  0.7816164E-02  0.1312668E+00
        -11   -1    0    0    0    0  0.00000000000E+00  0.00000000000E+00  0.45593999997E+02  0.45594000000E+02  0.51100000000E-03 0.  1.
         11   -1    0    0    0    0 -0.00000000000E+00 -0.00000000000E+00 -0.45593999997E+02  0.45594000000E+02  0.51100000000E-03 0. -1.
    9900012    2    1    2    0    0 -0.16118298176E+02 -0.21009811619E+02  0.34386208933E+02  0.47787273219E+02  0.20000009915E+02 0.  0.
         12    1    1    2    0    0  0.16118298176E+02  0.21009811619E+02 -0.34386208933E+02  0.43400726781E+02  0.00000000000E+00 0. -1.
         11    1    3    3    0    0 -0.82555640660E+00 -0.67623542808E+00  0.14685330748E+02  0.14724054373E+02  0.51100000000E-03 0. -1.
        -11    1    3    3    0    0 -0.12492364611E+02 -0.18975475282E+02  0.19508245615E+02  0.29944940858E+02  0.51100000000E-03 0.  1.
         12    1    3    3    0    0 -0.28003771578E+01 -0.13581009088E+01  0.19263256982E+00  0.31182779882E+01  0.00000000000E+00 0. -1.
</event>
<event>
 7    1  0.2706925E-010  0.4778728E+02  0.7816164E-02  0.1312668E+00
        -11   -1    0    0    0    0  0.00000000000E+00  0.00000000000E+00  0.45593999997E+02  0.45594000000E+02  0.51100000000E-03 0.  1.
         11   -1    0    0    0    0 -0.00000000000E+00 -0.00000000000E+00 -0.45593999997E+02  0.45594000000E+02  0.51100000000E-03 0. -1.
    9900012    2    1    2    0    0 -0.86821993381E+01 -0.35974685668E+02  0.22672985284E+02  0.47787275859E+02  0.20000021951E+02 0.  0.
         12    1    1    2    0    0  0.86821993381E+01  0.35974685668E+02 -0.22672985284E+02  0.43400724141E+02  0.00000000000E+00 0. -1.
         11    1    3    3    0    0 -0.13121523340E+02 -0.14435155599E+02  0.11913778611E+02  0.22857957323E+02  0.51100000000E-03 0.  1.
        -11    1    3    3    0    0  0.47209172783E+01 -0.16463429776E+02  0.65773976987E+01  0.18346491236E+02  0.51100000000E-03 0. -1.
        -12    1    3    3    0    0 -0.28159327683E+00 -0.50761002930E+01  0.41818089744E+01  0.65828272996E+01  0.00000000000E+00 0.  1.
</event>
<event>
 7    1  0.2706925E-010  0.4778727E+02  0.7816164E-02  0.1312668E+00
        -11   -1    0    0    0    0  0.00000000000E+00  0.00000000000E+00  0.45593999997E+02  0.45594000000E+02  0.51100000000E-03 0.  1.
         11   -1    0    0    0    0 -0.00000000000E+00 -0.00000000000E+00 -0.45593999997E+02  0.45594000000E+02  0.51100000000E-03 0. -1.
    9900012    2    1    2    0    0  0.20163324812E+02 -0.37557666354E+02  0.81538463217E+01  0.47787272134E+02  0.20000004967E+02 0.  0.
         12    1    1    2    0    0 -0.20163324812E+02  0.37557666354E+02 -0.81538463217E+01  0.43400727866E+02  0.00000000000E+00 0. -1.
         11    1    3    3    0    0 -0.20959493610E+01 -0.36460385718E+01 -0.27936744082E+01  0.50488828419E+01  0.51100000000E-03 0. -1.
        -11    1    3    3    0    0  0.91477497122E+01 -0.18164984554E+02  0.87133814158E+01  0.22126251481E+02  0.51100000000E-03 0.  1.
         12    1    3    3    0    0  0.13111524461E+02 -0.15746643229E+02  0.22341393142E+01  0.20612137811E+02  0.00000000000E+00 0. -1.
</event>
<event>
 7    1  0.2706925E-010  0.4778726E+02  0.7816164E-02  0.1312668E+00
        -11   -1    0    0    0    0  0.00000000000E+00  0.00000000000E+00  0.45593999997E+02  0.45594000000E+02  0.51100000000E-03 0.  1.
         11   -1    0    0    0    0 -0.00000000000E+00 -0.00000000000E+00 -0.45593999997E+02  0.45594000000E+02  0.51100000000E-03 0. -1.
    9900012    2    1    2    0    0  0.26376312080E+02  0.31177119098E+02  0.14693598930E+02  0.47787257568E+02  0.19999938554E+02 0.  0.
         12    1    1    2    0    0 -0.26376312080E+02 -0.31177119098E+02 -0.14693598930E+02  0.43400742432E+02  0.00000000000E+00 0. -1.
         11    1    3    3    0    0  0.34136433823E+01  0.23172411877E+01 -0.38122353338E+01  0.56174466054E+01  0.51100000000E-03 0. -1.
        -11    1    3    3    0    0  0.60445207345E+01  0.11666046941E+02  0.10285261481E+02  0.16685906812E+02  0.51100000000E-03 0.  1.
         12    1    3    3    0    0  0.16918147963E+02  0.17193830969E+02  0.82205727833E+01  0.25483904151E+02  0.00000000000E+00 0. -1.
</event>
<event>
 7    1  0.2706925E-010  0.4778727E+02  0.7816164E-02  0.1312668E+00
        -11   -1    0    0    0    0  0.00000000000E+00  0.00000000000E+00  0.45593999997E+02  0.45594000000E+02  0.51100000000E-03 0. -1.
         11   -1    0    0    0    0 -0.00000000000E+00 -0.00000000000E+00 -0.45593999997E+02  0.45594000000E+02  0.51100000000E-03 0.  1.
    9900012    2    1    2    0    0 -0.42200683714E+02 -0.53232913208E+01  0.86248683648E+01  0.47787268546E+02  0.19999988611E+02 0.  0.
         12    1    1    2    0    0  0.42200683714E+02  0.53232913208E+01 -0.86248683648E+01  0.43400731454E+02  0.00000000000E+00 0. -1.
         11    1    3    3    0    0 -0.24798725731E+02 -0.55428203294E+01  0.10179058130E+02  0.27373579959E+02  0.51100000000E-03 0.  1.
        -11    1    3    3    0    0 -0.14144926279E+02  0.46194442549E+01 -0.11566628110E+01  0.14925015034E+02  0.51100000000E-03 0. -1.
         12    1    3    3    0    0 -0.32570317039E+01 -0.43999152463E+01 -0.39752695422E+00  0.54886735533E+01  0.00000000000E+00 0. -1.
</event>
<event>
 7    1  0.2706925E-010  0.4778727E+02  0.7816164E-02  0.1312668E+00
        -11   -1    0    0    0    0  0.00000000000E+00  0.00000000000E+00  0.45593999997E+02  0.45594000000E+02  0.51100000000E-03 0. -1.
         11   -1    0    0    0    0 -0.00000000000E+00 -0.00000000000E+00 -0.45593999997E+02  0.45594000000E+02  0.51100000000E-03 0.  1.
    9900012    2    1    2    0    0  0.11308870797E+02 -0.41623247871E+02 -0.48205828185E+01  0.47787270274E+02  0.19999996489E+02 0.  0.
         12    1    1    2    0    0 -0.11308870797E+02  0.41623247871E+02  0.48205828185E+01  0.43400729726E+02  0.00000000000E+00 0. -1.
         11    1    3    3    0    0 -0.15504540447E-01  0.93908230422E+00  0.39813391011E+00  0.10201111882E+01  0.51100000000E-03 0. -1.
        -11    1    3    3    0    0  0.82527751507E+01 -0.32085690415E+02 -0.10342649252E+02  0.34706918920E+02  0.51100000000E-03 0.  1.
        -12    1    3    3    0    0  0.30716001871E+01 -0.10476639760E+02  0.51239325231E+01  0.12060240166E+02  0.00000000000E+00 0.  1.
</event>
<event>
 7    1  0.2706925E-010  0.4778728E+02  0.7816164E-02  0.1312668E+00
        -11   -1    0    0    0    0  0.00000000000E+00  0.00000000000E+00  0.45593999997E+02  0.45594000000E+02  0.51100000000E-03 0.  1.
         11   -1    0    0    0    0 -0.00000000000E+00 -0.00000000000E+00 -0.45593999997E+02  0.45594000000E+02  0.51100000000E-03 0. -1.
    9900012    2    1    2    0    0  0.12663741791E+02 -0.36436342150E+02  0.19890840392E+02  0.47787275157E+02  0.20000018750E+02 0.  0.
         12    1    1    2    0    0 -0.12663741791E+02  0.36436342150E+02 -0.19890840392E+02  0.43400724843E+02  0.00000000000E+00 0. -1.
         11    1    3    3    0    0 -0.23808376177E+01 -0.18162278179E+02  0.32827962103E+01  0.18609499930E+02  0.51100000000E-03 0. -1.
        -11    1    3    3    0    0  0.47251120012E+01 -0.85032401440E+01  0.58237639326E+01  0.11337901172E+02  0.51100000000E-03 0.  1.
         12    1    3    3    0    0  0.10319467408E+02 -0.97708238271E+01  0.10784280249E+02  0.17839874056E+02  0.00000000000E+00 0. -1.
</event>
<event>
 7    1  0.2706925E-010  0.4778728E+02  0.7816164E-02  0.1312668E+00
        -11   -1    0    0    0    0  0.00000000000E+00  0.00000000000E+00  0.45593999997E+02  0.45594000000E+02  0.51100000000E-03 0. -1.
         11   -1    0    0    0    0 -0.00000000000E+00 -0.00000000000E+00 -0.45593999997E+02  0.45594000000E+02  0.51100000000E-03 0.  1.
    9900012    2    1    2    0    0  0.17305879724E+02  0.37662197046E+02  0.12871990649E+02  0.47787277626E+02  0.20000030007E+02 0.  0.
         12    1    1    2    0    0 -0.17305879724E+02 -0.37662197046E+02 -0.12871990649E+02  0.43400722374E+02  0.00000000000E+00 0. -1.
         11    1    3    3    0    0  0.18286873997E+02  0.20386224662E+02  0.12516757732E+02  0.30111080036E+02  0.51100000000E-03 0. -1.
        -11    1    3    3    0    0 -0.17966531497E+01  0.14308880352E+02  0.12397664561E+01  0.14474427125E+02  0.51100000000E-03 0.  1.
        -12    1    3    3    0    0  0.81565887688E+00  0.29670920321E+01 -0.88453353954E+00  0.32017704654E+01  0.00000000000E+00 0.  1.
</event>
<event>
 7    1  0.2706925E-010  0.4778726E+02  0.7816164E-02  0.1312668E+00
        -11   -1    0    0    0    0  0.00000000000E+00  0.00000000000E+00  0.45593999997E+02  0.45594000000E+02  0.51100000000E-03 0.  1.
         11   -1    0    0    0    0 -0.00000000000E+00 -0.00000000000E+00 -0.45593999997E+02  0.45594000000E+02  0.51100000000E-03 0. -1.
    9900012    2    1    2    0    0 -0.97465374774E+01  0.11972523490E+02  0.40562143529E+02  0.47787264993E+02  0.19999972408E+02 0.  0.
         12    1    1    2    0    0  0.97465374774E+01 -0.11972523490E+02 -0.40562143529E+02  0.43400735007E+02  0.00000000000E+00 0. -1.
         11    1    3    3    0    0  0.25894782558E+01 -0.23375359826E+00 -0.53947970703E+00  0.26553864120E+01  0.51100000000E-03 0. -1.
        -11    1    3    3    0    0 -0.83875020988E+01  0.49309995148E+01  0.16274115133E+02  0.18960795640E+02  0.51100000000E-03 0.  1.
         12    1    3    3    0    0 -0.39485136344E+01  0.72752775731E+01  0.24827508103E+02  0.26171082941E+02  0.00000000000E+00 0. -1.
</event>
<event>
 7    1  0.2706925E-010  0.4778727E+02  0.7816164E-02  0.1312668E+00
        -11   -1    0    0    0    0  0.00000000000E+00  0.00000000000E+00  0.45593999997E+02  0.45594000000E+02  0.51100000000E-03 0. -1.
         11   -1    0    0    0    0 -0.00000000000E+00 -0.00000000000E+00 -0.45593999997E+02  0.45594000000E+02  0.51100000000E-03 0.  1.
    9900012    2    1    2    0    0 -0.32855368653E+02 -0.24156756198E+02 -0.14852580754E+02  0.47787271039E+02  0.19999999974E+02 0.  0.
         12    1    1    2    0    0  0.32855368653E+02  0.24156756198E+02  0.14852580754E+02  0.43400728961E+02  0.00000000000E+00 0. -1.
         11    1    3    3    0    0  0.14420339932E+01 -0.47892903761E+00 -0.61362083381E+00  0.16387085920E+01  0.51100000000E-03 0. -1.
        -11    1    3    3    0    0 -0.59048213158E+01 -0.59147496665E+01 -0.89442275917E+01  0.12241339218E+02  0.51100000000E-03 0.  1.
         12    1    3    3    0    0 -0.28392581330E+02 -0.17763077494E+02 -0.52947323288E+01  0.33907223228E+02  0.00000000000E+00 0. -1.
</event>
<event>
 7    1  0.2706925E-010  0.4778727E+02  0.7816164E-02  0.1312668E+00
        -11   -1    0    0    0    0  0.00000000000E+00  0.00000000000E+00  0.45593999997E+02  0.45594000000E+02  0.51100000000E-03 0.  1.
         11   -1    0    0    0    0 -0.00000000000E+00 -0.00000000000E+00 -0.45593999997E+02  0.45594000000E+02  0.51100000000E-03 0. -1.
    9900012    2    1    2    0    0 -0.11089119809E+02  0.40367107714E+02  0.11452126830E+02  0.47787272215E+02  0.20000005337E+02 0.  0.
         12    1    1    2    0    0  0.11089119809E+02 -0.40367107714E+02 -0.11452126830E+02  0.43400727785E+02  0.00000000000E+00 0. -1.
         11    1    3    3    0    0  0.25972123263E+01  0.62231526410E+01  0.18605818889E+01  0.69953488754E+01  0.51100000000E-03 0. -1.
        -11    1    3    3    0    0 -0.16524791354E+02  0.30991962437E+02  0.10033506164E+02  0.36527273525E+02  0.51100000000E-03 0.  1.
        -12    1    3    3    0    0  0.28384592192E+01  0.31519926359E+01 -0.44196122240E+00  0.42646498142E+01  0.00000000000E+00 0.  1.
</event>
<event>
 7    1  0.2706925E-010  0.4778727E+02  0.7816164E-02  0.1312668E+00
        -11   -1    0    0    0    0  0.00000000000E+00  0.00000000000E+00  0.45593999997E+02  0.45594000000E+02  0.51100000000E-03 0. -1.
         11   -1    0    0    0    0 -0.00000000000E+00 -0.00000000000E+00 -0.45593999997E+02  0.45594000000E+02  0.51100000000E-03 0.  1.
    9900012    2    1    2    0    0  0.31995421339E+01  0.43110659952E+02  0.38545215621E+01  0.47787269501E+02  0.19999992963E+02 0.  0.
         12    1    1    2    0    0 -0.31995421339E+01 -0.43110659952E+02 -0.38545215621E+01  0.43400730499E+02  0.00000000000E+00 0. -1.
         11    1    3    3    0    0 -0.21108302549E+01  0.11318717083E+02  0.92785583722E+01  0.14787177097E+02  0.51100000000E-03 0. -1.
        -11    1    3    3    0    0  0.32623569224E+01  0.14577161434E+02 -0.46573671297E+01  0.15646970218E+02  0.51100000000E-03 0.  1.
         12    1    3    3    0    0  0.20480154663E+01  0.17214781435E+02 -0.76666968036E+00  0.17353122186E+02  0.00000000000E+00 0. -1.
</event>
<event>
 7    1  0.2706925E-010  0.4778727E+02  0.7816164E-02  0.1312668E+00
        -11   -1    0    0    0    0  0.00000000000E+00  0.00000000000E+00  0.45593999997E+02  0.45594000000E+02  0.51100000000E-03 0.  1.
         11   -1    0    0    0    0 -0.00000000000E+00 -0.00000000000E+00 -0.45593999997E+02  0.45594000000E+02  0.51100000000E-03 0. -1.
    9900012    2    1    2    0    0  0.28521025862E+02 -0.26264210544E+02  0.19502970931E+02  0.47787267900E+02  0.19999985662E+02 0.  0.
         12    1    1    2    0    0 -0.28521025862E+02  0.26264210544E+02 -0.19502970931E+02  0.43400732100E+02  0.00000000000E+00 0. -1.
         11    1    3    3    0    0  0.50731304807E+01 -0.84247027627E+01  0.31433074565E+01  0.10324371726E+02  0.51100000000E-03 0. -1.
        -11    1    3    3    0    0  0.14088636706E+02 -0.19013412760E+02  0.83687298986E+01  0.25100501776E+02  0.51100000000E-03 0.  1.
        -12    1    3    3    0    0  0.93592586750E+01  0.11739049784E+01  0.79909335755E+01  0.12362394398E+02  0.00000000000E+00 0.  1.
</event>
<event>
 7    1  0.2706925E-010  0.4778727E+02  0.7816164E-02  0.1312668E+00
        -11   -1    0    0    0    0  0.00000000000E+00  0.00000000000E+00  0.45593999997E+02  0.45594000000E+02  0.51100000000E-03 0.  1.
         11   -1    0    0    0    0 -0.00000000000E+00 -0.00000000000E+00 -0.45593999997E+02  0.45594000000E+02  0.51100000000E-03 0. -1.
    9900012    2    1    2    0    0 -0.13043041285E+02 -0.15330427658E+02  0.38451012595E+02  0.47787270655E+02  0.19999998223E+02 0.  0.
         12    1    1    2    0    0  0.13043041285E+02  0.15330427658E+02 -0.38451012595E+02  0.43400729345E+02  0.00000000000E+00 0. -1.
         11    1    3    3    0    0 -0.15836751164E+02 -0.44090485105E+01  0.24046875244E+02  0.29128930730E+02  0.51100000000E-03 0. -1.
        -11    1    3    3    0    0  0.16717302728E+01 -0.35568520413E+01  0.76606930915E+01  0.86099998520E+01  0.51100000000E-03 0.  1.
         12    1    3    3    0    0  0.11219796068E+01 -0.73645271064E+01  0.67434442593E+01  0.10048340073E+02  0.00000000000E+00 0. -1.
</event>
<event>
 7    1  0.2706925E-010  0.4778727E+02  0.7816164E-02  0.1312668E+00
        -11   -1    0    0    0    0  0.00000000000E+00  0.00000000000E+00  0.45593999997E+02  0.45594000000E+02  0.51100000000E-03 0. -1.
         11   -1    0    0    0    0 -0.00000000000E+00 -0.00000000000E+00 -0.45593999997E+02  0.45594000000E+02  0.51100000000E-03 0.  1.
    9900012    2    1    2    0    0 -0.37391269847E+02 -0.27062774760E+01 -0.21867608538E+02  0.47787270723E+02  0.19999998535E+02 0.  0.
         12    1    1    2    0    0  0.37391269847E+02  0.27062774760E+01  0.21867608538E+02  0.43400729277E+02  0.00000000000E+00 0. -1.
         11    1    3    3    0    0 -0.13564176059E+01 -0.46158105952E+01  0.21442644900E+00  0.48157611170E+01  0.51100000000E-03 0. -1.
        -11    1    3    3    0    0 -0.32543329245E+02  0.38195842999E+00 -0.17304121815E+02  0.36859826405E+02  0.51100000000E-03 0.  1.
         12    1    3    3    0    0 -0.34915229966E+01  0.15275746892E+01 -0.47779131723E+01  0.61116832010E+01  0.00000000000E+00 0. -1.
</event>
<event>
 7    1  0.2706925E-010  0.4778727E+02  0.7816164E-02  0.1312668E+00
        -11   -1    0    0    0    0  0.00000000000E+00  0.00000000000E+00  0.45593999997E+02  0.45594000000E+02  0.51100000000E-03 0.  1.
         11   -1    0    0    0    0 -0.00000000000E+00 -0.00000000000E+00 -0.45593999997E+02  0.45594000000E+02  0.51100000000E-03 0. -1.
    9900012    2    1    2    0    0  0.30418226218E+02 -0.39003194817E+01  0.30710623168E+02  0.47787270125E+02  0.19999995808E+02 0.  0.
         12    1    1    2    0    0 -0.30418226218E+02  0.39003194817E+01 -0.30710623168E+02  0.43400729875E+02  0.00000000000E+00 0. -1.
         11    1    3    3    0    0  0.13531086400E+02  0.74937596075E+01  0.10112050396E+02  0.18479726613E+02  0.51100000000E-03 0. -1.
        -11    1    3    3    0    0  0.57373742970E+01 -0.57362281936E+01  0.60252423344E+01  0.10105707455E+02  0.51100000000E-03 0.  1.
         12    1    3    3    0    0  0.11149765522E+02 -0.56578508956E+01  0.14573330438E+02  0.19201836058E+02  0.00000000000E+00 0. -1.
</event>
<event>
 7    1  0.2706925E-010  0.4778727E+02  0.7816164E-02  0.1312668E+00
        -11   -1    0    0    0    0  0.00000000000E+00  0.00000000000E+00  0.45593999997E+02  0.45594000000E+02  0.51100000000E-03 0.  1.
         11   -1    0    0    0    0 -0.00000000000E+00 -0.00000000000E+00 -0.45593999997E+02  0.45594000000E+02  0.51100000000E-03 0. -1.
    9900012    2    1    2    0    0  0.34838482711E+02 -0.21992782698E+02  0.13646279515E+02  0.47787270594E+02  0.19999997945E+02 0.  0.
         12    1    1    2    0    0 -0.34838482711E+02  0.21992782698E+02 -0.13646279515E+02  0.43400729406E+02  0.00000000000E+00 0. -1.
         11    1    3    3    0    0  0.11140607446E+02 -0.32745655488E+01  0.10787908752E+02  0.15849759913E+02  0.51100000000E-03 0. -1.
        -11    1    3    3    0    0  0.16567406415E+02 -0.17924201962E+02  0.59841747971E+00  0.24415447468E+02  0.51100000000E-03 0.  1.
        -12    1    3    3    0    0  0.71304688499E+01 -0.79401518661E+00  0.22599532836E+01  0.75220632130E+01  0.00000000000E+00 0.  1.
</event>
<event>
 7    1  0.2706925E-010  0.4778726E+02  0.7816164E-02  0.1312668E+00
        -11   -1    0    0    0    0  0.00000000000E+00  0.00000000000E+00  0.45593999997E+02  0.45594000000E+02  0.51100000000E-03 0.  1.
         11   -1    0    0    0    0 -0.00000000000E+00 -0.00000000000E+00 -0.45593999997E+02  0.45594000000E+02  0.51100000000E-03 0. -1.
    9900012    2    1    2    0    0 -0.29783579721E+02  0.10794077389E+02  0.29665643035E+02  0.47787261477E+02  0.19999956378E+02 0.  0.
         12    1    1    2    0    0  0.29783579721E+02 -0.10794077389E+02 -0.29665643035E+02  0.43400738523E+02  0.00000000000E+00 0. -1.
         11    1    3    3    0    0 -0.12417176649E+02  0.80240971915E+01  0.86796997927E+01  0.17143791892E+02  0.51100000000E-03 0. -1.
        -11    1    3    3    0    0 -0.98957206118E+01 -0.46305232058E+01  0.14956188509E+02  0.18521733357E+02  0.51100000000E-03 0.  1.
        -12    1    3    3    0    0 -0.74706824597E+01  0.74005034033E+01  0.60297547334E+01  0.12121736228E+02  0.00000000000E+00 0.  1.
</event>
<event>
 7    1  0.2706925E-010  0.4778727E+02  0.7816164E-02  0.1312668E+00
        -11   -1    0    0    0    0  0.00000000000E+00  0.00000000000E+00  0.45593999997E+02  0.45594000000E+02  0.51100000000E-03 0. -1.
         11   -1    0    0    0    0 -0.00000000000E+00 -0.00000000000E+00 -0.45593999997E+02  0.45594000000E+02  0.51100000000E-03 0.  1.
    9900012    2    1    2    0    0 -0.33193594762E+02  0.20612370872E+02 -0.18892823825E+02  0.47787270072E+02  0.19999995567E+02 0.  0.
         12    1    1    2    0    0  0.33193594762E+02 -0.20612370872E+02  0.18892823825E+02  0.43400729928E+02  0.00000000000E+00 0. -1.
         11    1    3    3    0    0 -0.73653511120E+01 -0.19605271981E+01 -0.74956662607E+01  0.10690045690E+02  0.51100000000E-03 0. -1.
        -11    1    3    3    0    0 -0.21395830311E+02  0.15433620006E+02 -0.58323745696E+01  0.27018415471E+02  0.51100000000E-03 0.  1.
         12    1    3    3    0    0 -0.44324133381E+01  0.71392780646E+01 -0.55647829952E+01  0.10078808911E+02  0.00000000000E+00 0. -1.
</event>
<event>
 7    1  0.2706925E-010  0.4778727E+02  0.7816164E-02  0.1312668E+00
        -11   -1    0    0    0    0  0.00000000000E+00  0.00000000000E+00  0.45593999997E+02  0.45594000000E+02  0.51100000000E-03 0.  1.
         11   -1    0    0    0    0 -0.00000000000E+00 -0.00000000000E+00 -0.45593999997E+02  0.45594000000E+02  0.51100000000E-03 0. -1.
    9900012    2    1    2    0    0 -0.33853663882E+02 -0.16573975094E+02  0.21514090966E+02  0.47787270527E+02  0.19999997643E+02 0.  0.
         12    1    1    2    0    0  0.33853663882E+02  0.16573975094E+02 -0.21514090966E+02  0.43400729473E+02  0.00000000000E+00 0. -1.
         11    1    3    3    0    0 -0.20364672917E+02 -0.32498038998E+01  0.19768296141E+02  0.28566880491E+02  0.51100000000E-03 0. -1.
        -11    1    3    3    0    0 -0.64196048253E+01 -0.73663347881E+01  0.19916847438E+01  0.99720119687E+01  0.51100000000E-03 0.  1.
         12    1    3    3    0    0 -0.70693861393E+01 -0.59578364059E+01 -0.24588991891E+00  0.92483780675E+01  0.00000000000E+00 0. -1.
</event>
<event>
 7    1  0.2706925E-010  0.4778727E+02  0.7816164E-02  0.1312668E+00
        -11   -1    0    0    0    0  0.00000000000E+00  0.00000000000E+00  0.45593999997E+02  0.45594000000E+02  0.51100000000E-03 0.  1.
         11   -1    0    0    0    0 -0.00000000000E+00 -0.00000000000E+00 -0.45593999997E+02  0.45594000000E+02  0.51100000000E-03 0. -1.
    9900012    2    1    2    0    0  0.49167819307E+01 -0.30427759404E+02  0.30554864473E+02  0.47787273856E+02  0.20000012819E+02 0.  0.
         12    1    1    2    0    0 -0.49167819307E+01  0.30427759404E+02 -0.30554864473E+02  0.43400726144E+02  0.00000000000E+00 0. -1.
         11    1    3    3    0    0  0.51276330486E+01 -0.14700393853E+01  0.11514841242E+01  0.54570644512E+01  0.51100000000E-03 0. -1.
        -11    1    3    3    0    0  0.33239647830E+01 -0.42209931509E+01  0.65085453863E+01  0.84395905331E+01  0.51100000000E-03 0.  1.
         12    1    3    3    0    0 -0.35348159009E+01 -0.24736726867E+02  0.22894834962E+02  0.33890618872E+02  0.00000000000E+00 0. -1.
</event>
<event>
 7    1  0.2706925E-010  0.4778727E+02  0.7816164E-02  0.1312668E+00
        -11   -1    0    0    0    0  0.00000000000E+00  0.00000000000E+00  0.45593999997E+02  0.45594000000E+02  0.51100000000E-03 0. -1.
         11   -1    0    0    0    0 -0.00000000000E+00 -0.00000000000E+00 -0.45593999997E+02  0.45594000000E+02  0.51100000000E-03 0.  1.
    9900012    2    1    2    0    0 -0.52245934778E+01 -0.40555077527E+02 -0.14546909933E+02  0.47787270988E+02  0.19999999741E+02 0.  0.
         12    1    1    2    0    0  0.52245934778E+01  0.40555077527E+02  0.14546909933E+02  0.43400729012E+02  0.00000000000E+00 0. -1.
         11    1    3    3    0    0  0.11254231323E+01 -0.12398599751E+02 -0.45604038073E+00  0.12457922223E+02  0.51100000000E-03 0. -1.
        -11    1    3    3    0    0  0.11075505238E+00 -0.26258036995E+01  0.29581375128E+01  0.39569798529E+01  0.51100000000E-03 0.  1.
        -12    1    3    3    0    0 -0.64607716625E+01 -0.25530674076E+02 -0.17049007065E+02  0.31372368912E+02  0.00000000000E+00 0.  1.
</event>
<event>
 7    1  0.2706925E-010  0.4778729E+02  0.7816164E-02  0.1312668E+00
        -11   -1    0    0    0    0  0.00000000000E+00  0.00000000000E+00  0.45593999997E+02  0.45594000000E+02  0.51100000000E-03 0.  1.
         11   -1    0    0    0    0 -0.00000000000E+00 -0.00000000000E+00 -0.45593999997E+02  0.45594000000E+02  0.51100000000E-03 0. -1.
    9900012    2    1    2    0    0  0.22742689018E+02  0.32846665814E+02  0.16955478456E+02  0.47787290229E+02  0.20000087472E+02 0.  0.
         12    1    1    2    0    0 -0.22742689018E+02 -0.32846665814E+02 -0.16955478456E+02  0.43400709771E+02  0.00000000000E+00 0. -1.
         11    1    3    3    0    0  0.13868577863E+02  0.14914144755E+02  0.19675713024E+01  0.20460706313E+02  0.51100000000E-03 0. -1.
        -11    1    3    3    0    0  0.24100551979E+01  0.15515892940E+02  0.85015910708E+01  0.17855765197E+02  0.51100000000E-03 0.  1.
        -12    1    3    3    0    0  0.64640559572E+01  0.24166281192E+01  0.64863160833E+01  0.94708187195E+01  0.00000000000E+00 0.  1.
</event>
<event>
 7    1  0.2706925E-010  0.4778728E+02  0.7816164E-02  0.1312668E+00
        -11   -1    0    0    0    0  0.00000000000E+00  0.00000000000E+00  0.45593999997E+02  0.45594000000E+02  0.51100000000E-03 0.  1.
         11   -1    0    0    0    0 -0.00000000000E+00 -0.00000000000E+00 -0.45593999997E+02  0.45594000000E+02  0.51100000000E-03 0. -1.
    9900012    2    1    2    0    0 -0.25345525733E+02  0.35166699221E+02  0.21284511144E+01  0.47787277507E+02  0.20000029465E+02 0.  0.
         12    1    1    2    0    0  0.25345525733E+02 -0.35166699221E+02 -0.21284511144E+01  0.43400722493E+02  0.00000000000E+00 0. -1.
         11    1    3    3    0    0 -0.97898101704E+01  0.22252029342E+01  0.17352718786E+01  0.10188379656E+02  0.51100000000E-03 0. -1.
        -11    1    3    3    0    0 -0.48848773466E+01  0.14086353069E+02 -0.41209948363E+01  0.15468353764E+02  0.51100000000E-03 0.  1.
        -12    1    3    3    0    0 -0.10670838216E+02  0.18855143218E+02  0.45141740721E+01  0.22130544086E+02  0.00000000000E+00 0.  1.
</event>
<event>
 7    1  0.2706925E-010  0.4778727E+02  0.7816164E-02  0.1312668E+00
        -11   -1    0    0    0    0  0.00000000000E+00  0.00000000000E+00  0.45593999997E+02  0.45594000000E+02  0.51100000000E-03 0.  1.
         11   -1    0    0    0    0 -0.00000000000E+00 -0.00000000000E+00 -0.45593999997E+02  0.45594000000E+02  0.51100000000E-03 0. -1.
    9900012    2    1    2    0    0  0.17361417592E+02 -0.17023163111E+02  0.35950188736E+02  0.47787274508E+02  0.20000015793E+02 0.  0.
         12    1    1    2    0    0 -0.17361417592E+02  0.17023163111E+02 -0.35950188736E+02  0.43400725492E+02  0.00000000000E+00 0. -1.
         11    1    3    3    0    0 -0.21575774828E+01  0.10177116105E+01 -0.24440651319E+00  0.23980434360E+01  0.51100000000E-03 0. -1.
        -11    1    3    3    0    0  0.11593486929E+02 -0.92462916198E+01  0.14880503884E+02  0.21007909082E+02  0.51100000000E-03 0.  1.
         12    1    3    3    0    0  0.79255081458E+01 -0.87945831014E+01  0.21314091364E+02  0.24381321990E+02  0.00000000000E+00 0. -1.
</event>
<event>
 7    1  0.2706925E-010  0.4778726E+02  0.7816164E-02  0.1312668E+00
        -11   -1    0    0    0    0  0.00000000000E+00  0.00000000000E+00  0.45593999997E+02  0.45594000000E+02  0.51100000000E-03 0. -1.
         11   -1    0    0    0    0 -0.00000000000E+00 -0.00000000000E+00 -0.45593999997E+02  0.45594000000E+02  0.51100000000E-03 0.  1.
    9900012    2    1    2    0    0 -0.31492205973E+02 -0.36807992828E+01 -0.29636407460E+02  0.47787263053E+02  0.19999963563E+02 0.  0.
         12    1    1    2    0    0  0.31492205973E+02  0.36807992828E+01  0.29636407460E+02  0.43400736947E+02  0.00000000000E+00 0. -1.
         11    1    3    3    0    0  0.44812083876E+00 -0.21873651334E+01 -0.25509784808E+01  0.33901135651E+01  0.51100000000E-03 0. -1.
        -11    1    3    3    0    0 -0.30313504997E+02 -0.35232258164E+01 -0.19107408423E+02  0.36005760126E+02  0.51100000000E-03 0.  1.
        -12    1    3    3    0    0 -0.16268218152E+01  0.20297916670E+01 -0.79780205563E+01  0.83913893621E+01  0.00000000000E+00 0.  1.
</event>
<event>
 7    1  0.2706925E-010  0.4778727E+02  0.7816164E-02  0.1312668E+00
        -11   -1    0    0    0    0  0.00000000000E+00  0.00000000000E+00  0.45593999997E+02  0.45594000000E+02  0.51100000000E-03 0. -1.
         11   -1    0    0    0    0 -0.00000000000E+00 -0.00000000000E+00 -0.45593999997E+02  0.45594000000E+02  0.51100000000E-03 0.  1.
    9900012    2    1    2    0    0 -0.26755704628E+01  0.15162053340E+02 -0.40578032562E+02  0.47787271142E+02  0.20000000444E+02 0.  0.
         12    1    1    2    0    0  0.26755704628E+01 -0.15162053340E+02  0.40578032562E+02  0.43400728858E+02  0.00000000000E+00 0. -1.
         11    1    3    3    0    0 -0.58185047682E+01 -0.10433856527E+01 -0.43366877406E+01  0.73314740795E+01  0.51100000000E-03 0. -1.
        -11    1    3    3    0    0  0.49061465203E+01  0.66611965463E+01 -0.16735222120E+02  0.18668408415E+02  0.51100000000E-03 0.  1.
         12    1    3    3    0    0 -0.17632122148E+01  0.95442424463E+01 -0.19506122702E+02  0.21787388647E+02  0.00000000000E+00 0. -1.
</event>
<event>
 7    1  0.2706925E-010  0.4778726E+02  0.7816164E-02  0.1312668E+00
        -11   -1    0    0    0    0  0.00000000000E+00  0.00000000000E+00  0.45593999997E+02  0.45594000000E+02  0.51100000000E-03 0.  1.
         11   -1    0    0    0    0 -0.00000000000E+00 -0.00000000000E+00 -0.45593999997E+02  0.45594000000E+02  0.51100000000E-03 0. -1.
    9900012    2    1    2    0    0  0.34104383427E+01 -0.39502977004E+01  0.43085822989E+02  0.47787261708E+02  0.19999957432E+02 0.  0.
         12    1    1    2    0    0 -0.34104383427E+01  0.39502977004E+01 -0.43085822989E+02  0.43400738292E+02  0.00000000000E+00 0. -1.
         11    1    3    3    0    0  0.27923008744E+01  0.28610733796E+01  0.35089831930E+00  0.40132050718E+01  0.51100000000E-03 0. -1.
        -11    1    3    3    0    0  0.41947502344E+00 -0.64629535878E+01  0.19733385307E+02  0.20769020783E+02  0.51100000000E-03 0.  1.
         12    1    3    3    0    0  0.19866244492E+00 -0.34841749227E+00  0.23001539363E+02  0.23005035853E+02  0.00000000000E+00 0. -1.
</event>
<event>
 7    1  0.2706925E-010  0.4778727E+02  0.7816164E-02  0.1312668E+00
        -11   -1    0    0    0    0  0.00000000000E+00  0.00000000000E+00  0.45593999997E+02  0.45594000000E+02  0.51100000000E-03 0. -1.
         11   -1    0    0    0    0 -0.00000000000E+00 -0.00000000000E+00 -0.45593999997E+02  0.45594000000E+02  0.51100000000E-03 0.  1.
    9900012    2    1    2    0    0 -0.23972008998E+02  0.36264594743E+01 -0.35997427823E+02  0.47787271508E+02  0.20000002115E+02 0.  0.
         12    1    1    2    0    0  0.23972008998E+02 -0.36264594743E+01  0.35997427823E+02  0.43400728492E+02  0.00000000000E+00 0. -1.
         11    1    3    3    0    0 -0.24414875428E+01  0.39974569534E+01 -0.21074101011E+01  0.51363120146E+01  0.51100000000E-03 0. -1.
        -11    1    3    3    0    0 -0.18912151850E+02 -0.47491295690E+01 -0.31430039778E+02  0.36987445437E+02  0.51100000000E-03 0.  1.
        -12    1    3    3    0    0 -0.26183696055E+01  0.43781320899E+01 -0.24599779447E+01  0.56635140572E+01  0.00000000000E+00 0.  1.
</event>
<event>
 7    1  0.2706925E-010  0.4778727E+02  0.7816164E-02  0.1312668E+00
        -11   -1    0    0    0    0  0.00000000000E+00  0.00000000000E+00  0.45593999997E+02  0.45594000000E+02  0.51100000000E-03 0. -1.
         11   -1    0    0    0    0 -0.00000000000E+00 -0.00000000000E+00 -0.45593999997E+02  0.45594000000E+02  0.51100000000E-03 0.  1.
    9900012    2    1    2    0    0 -0.24181993100E+02 -0.69979818958E+01 -0.35353679725E+02  0.47787271768E+02  0.20000003301E+02 0.  0.
         12    1    1    2    0    0  0.24181993100E+02  0.69979818958E+01  0.35353679725E+02  0.43400728232E+02  0.00000000000E+00 0. -1.
         11    1    3    3    0    0  0.10687467484E+01 -0.18249563870E+01 -0.40018086063E+01  0.45262741642E+01  0.51100000000E-03 0. -1.
        -11    1    3    3    0    0 -0.27049846534E+02 -0.47109536132E+01 -0.26904804633E+02  0.38441589380E+02  0.51100000000E-03 0.  1.
        -12    1    3    3    0    0  0.17991066855E+01 -0.46207189562E+00 -0.44470664857E+01  0.48194082241E+01  0.00000000000E+00 0.  1.
</event>
<event>
 7    1  0.2706925E-010  0.4778726E+02  0.7816164E-02  0.1312668E+00
        -11   -1    0    0    0    0  0.00000000000E+00  0.00000000000E+00  0.45593999997E+02  0.45594000000E+02  0.51100000000E-03 0.  1.
         11   -1    0    0    0    0 -0.00000000000E+00 -0.00000000000E+00 -0.45593999997E+02  0.45594000000E+02  0.51100000000E-03 0. -1.
    9900012    2    1    2    0    0 -0.20473338690E+01  0.25771189530E+02  0.34860838158E+02  0.47787264720E+02  0.19999971164E+02 0.  0.
         12    1    1    2    0    0  0.20473338690E+01 -0.25771189530E+02 -0.34860838158E+02  0.43400735280E+02  0.00000000000E+00 0. -1.
         11    1    3    3    0    0 -0.44652821917E+01  0.75339007008E+01  0.16238913990E+02  0.18449952105E+02  0.51100000000E-03 0. -1.
        -11    1    3    3    0    0  0.58563355135E+01  0.15475618084E+02  0.91951231419E+01  0.18929915757E+02  0.51100000000E-03 0.  1.
        -12    1    3    3    0    0 -0.34383871907E+01  0.27616707453E+01  0.94268010260E+01  0.10407396858E+02  0.00000000000E+00 0.  1.
</event>
<event>
 7    1  0.2706925E-010  0.4778727E+02  0.7816164E-02  0.1312668E+00
        -11   -1    0    0    0    0  0.00000000000E+00  0.00000000000E+00  0.45593999997E+02  0.45594000000E+02  0.51100000000E-03 0.  1.
         11   -1    0    0    0    0 -0.00000000000E+00 -0.00000000000E+00 -0.45593999997E+02  0.45594000000E+02  0.51100000000E-03 0. -1.
    9900012    2    1    2    0    0 -0.23567543258E+02 -0.32130912013E+02  0.17198794657E+02  0.47787272591E+02  0.20000007051E+02 0.  0.
         12    1    1    2    0    0  0.23567543258E+02  0.32130912013E+02 -0.17198794657E+02  0.43400727409E+02  0.00000000000E+00 0. -1.
         11    1    3    3    0    0 -0.10173788288E+02 -0.16949699994E+02  0.16423137789E+02  0.25700539938E+02  0.51100000000E-03 0. -1.
        -11    1    3    3    0    0 -0.44184316087E+01 -0.75726398779E+01  0.43530399491E+01  0.97885836391E+01  0.51100000000E-03 0.  1.
         12    1    3    3    0    0 -0.89753233604E+01 -0.76085721412E+01 -0.35773830808E+01  0.12298149014E+02  0.00000000000E+00 0. -1.
</event>
<event>
 7    1  0.2706925E-010  0.4778727E+02  0.7816164E-02  0.1312668E+00
        -11   -1    0    0    0    0  0.00000000000E+00  0.00000000000E+00  0.45593999997E+02  0.45594000000E+02  0.51100000000E-03 0.  1.
         11   -1    0    0    0    0 -0.00000000000E+00 -0.00000000000E+00 -0.45593999997E+02  0.45594000000E+02  0.51100000000E-03 0. -1.
    9900012    2    1    2    0    0 -0.56242371509E+01  0.98556464799E+01  0.41891022324E+02  0.47787267720E+02  0.19999984844E+02 0.  0.
         12    1    1    2    0    0  0.56242371509E+01 -0.98556464799E+01 -0.41891022324E+02  0.43400732280E+02  0.00000000000E+00 0. -1.
         11    1    3    3    0    0 -0.12483749793E+01  0.71287080183E+00  0.51109817728E+00  0.15257281792E+01  0.51100000000E-03 0. -1.
        -11    1    3    3    0    0 -0.35162489010E+01  0.47346000581E+01  0.14411377477E+01  0.60710231685E+01  0.51100000000E-03 0.  1.
        -12    1    3    3    0    0 -0.85961327062E+00  0.44081756199E+01  0.39938786399E+02  0.40190516373E+02  0.00000000000E+00 0.  1.
</event>
<event>
 7    1  0.2706925E-010  0.4778727E+02  0.7816164E-02  0.1312668E+00
        -11   -1    0    0    0    0  0.00000000000E+00  0.00000000000E+00  0.45593999997E+02  0.45594000000E+02  0.51100000000E-03 0.  1.
         11   -1    0    0    0    0 -0.00000000000E+00 -0.00000000000E+00 -0.45593999997E+02  0.45594000000E+02  0.51100000000E-03 0. -1.
    9900012    2    1    2    0    0  0.21717366481E+02  0.13972400081E+02  0.34881960970E+02  0.47787272218E+02  0.20000005349E+02 0.  0.
         12    1    1    2    0    0 -0.21717366481E+02 -0.13972400081E+02 -0.34881960970E+02  0.43400727782E+02  0.00000000000E+00 0. -1.
         11    1    3    3    0    0  0.11916125057E+01 -0.10071710569E+00  0.13979553175E+02  0.14030609094E+02  0.51100000000E-03 0. -1.
        -11    1    3    3    0    0  0.16305515260E+02  0.11313887593E+02  0.11115013917E+02  0.22746811095E+02  0.51100000000E-03 0.  1.
        -12    1    3    3    0    0  0.42202387158E+01  0.27592295934E+01  0.97873938782E+01  0.11009852029E+02  0.00000000000E+00 0.  1.
</event>
<event>
 7    1  0.2706925E-010  0.4778727E+02  0.7816164E-02  0.1312668E+00
        -11   -1    0    0    0    0  0.00000000000E+00  0.00000000000E+00  0.45593999997E+02  0.45594000000E+02  0.51100000000E-03 0.  1.
         11   -1    0    0    0    0 -0.00000000000E+00 -0.00000000000E+00 -0.45593999997E+02  0.45594000000E+02  0.51100000000E-03 0. -1.
    9900012    2    1    2    0    0 -0.19766556839E+02 -0.23992189354E+02  0.30286649935E+02  0.47787273237E+02  0.20000009998E+02 0.  0.
         12    1    1    2    0    0  0.19766556839E+02  0.23992189354E+02 -0.30286649935E+02  0.43400726763E+02  0.00000000000E+00 0. -1.
         11    1    3    3    0    0  0.38466405754E+01 -0.21960662709E+01  0.59125865847E+01  0.73876945772E+01  0.51100000000E-03 0. -1.
        -11    1    3    3    0    0 -0.11649685977E+02 -0.11037899565E+02  0.10741645050E+02  0.19311482305E+02  0.51100000000E-03 0.  1.
         12    1    3    3    0    0 -0.11963511438E+02 -0.10758223518E+02  0.13632418300E+02  0.21088096355E+02  0.00000000000E+00 0. -1.
</event>
<event>
 7    1  0.2706925E-010  0.4778727E+02  0.7816164E-02  0.1312668E+00
        -11   -1    0    0    0    0  0.00000000000E+00  0.00000000000E+00  0.45593999997E+02  0.45594000000E+02  0.51100000000E-03 0.  1.
         11   -1    0    0    0    0 -0.00000000000E+00 -0.00000000000E+00 -0.45593999997E+02  0.45594000000E+02  0.51100000000E-03 0. -1.
    9900012    2    1    2    0    0 -0.31979617006E+02  0.26553800740E+02  0.12482907417E+02  0.47787271720E+02  0.20000003082E+02 0.  0.
         12    1    1    2    0    0  0.31979617006E+02 -0.26553800740E+02 -0.12482907417E+02  0.43400728280E+02  0.00000000000E+00 0. -1.
         11    1    3    3    0    0 -0.68593763213E+01  0.23394783764E+00  0.21434694633E+01  0.71902876653E+01  0.51100000000E-03 0. -1.
        -11    1    3    3    0    0 -0.17875694871E+02  0.10986197005E+02  0.10868824401E+02  0.23629818786E+02  0.51100000000E-03 0.  1.
        -12    1    3    3    0    0 -0.72445458135E+01  0.15333655898E+02 -0.52938644763E+00  0.16967165269E+02  0.00000000000E+00 0.  1.
</event>
<event>
 7    1  0.2706925E-010  0.4778728E+02  0.7816164E-02  0.1312668E+00
        -11   -1    0    0    0    0  0.00000000000E+00  0.00000000000E+00  0.45593999997E+02  0.45594000000E+02  0.51100000000E-03 0. -1.
         11   -1    0    0    0    0 -0.00000000000E+00 -0.00000000000E+00 -0.45593999997E+02  0.45594000000E+02  0.51100000000E-03 0.  1.
    9900012    2    1    2    0    0  0.26480711642E+02 -0.16332357354E+02 -0.30259686853E+02  0.47787278413E+02  0.20000033598E+02 0.  0.
         12    1    1    2    0    0 -0.26480711642E+02  0.16332357354E+02  0.30259686853E+02  0.43400721587E+02  0.00000000000E+00 0. -1.
         11    1    3    3    0    0  0.20450587761E+02 -0.63982647439E+01 -0.20172327596E+02  0.29429358342E+02  0.51100000000E-03 0. -1.
        -11    1    3    3    0    0  0.77235540555E+01 -0.37590326477E+01 -0.76635855297E+01  0.11511479363E+02  0.51100000000E-03 0.  1.
         12    1    3    3    0    0 -0.16934301744E+01 -0.61750599626E+01 -0.24237737269E+01  0.68464407086E+01  0.00000000000E+00 0. -1.
</event>
<event>
 7    1  0.2706925E-010  0.4778726E+02  0.7816164E-02  0.1312668E+00
        -11   -1    0    0    0    0  0.00000000000E+00  0.00000000000E+00  0.45593999997E+02  0.45594000000E+02  0.51100000000E-03 0.  1.
         11   -1    0    0    0    0 -0.00000000000E+00 -0.00000000000E+00 -0.45593999997E+02  0.45594000000E+02  0.51100000000E-03 0. -1.
    9900012    2    1    2    0    0 -0.97719129166E+01 -0.33035166050E+02  0.26397196507E+02  0.47787257363E+02  0.19999937622E+02 0.  0.
         12    1    1    2    0    0  0.97719129166E+01  0.33035166050E+02 -0.26397196507E+02  0.43400742637E+02  0.00000000000E+00 0. -1.
         11    1    3    3    0    0 -0.93913728742E+01 -0.16125679187E+02  0.65368854204E+01  0.19772867393E+02  0.51100000000E-03 0. -1.
        -11    1    3    3    0    0 -0.30687396971E+01 -0.13953029439E+02  0.19249944619E+02  0.23972162229E+02  0.51100000000E-03 0.  1.
         12    1    3    3    0    0  0.26881996546E+01 -0.29564574241E+01  0.61036646779E+00  0.40422277408E+01  0.00000000000E+00 0. -1.
</event>
<event>
 7    1  0.2706925E-010  0.4778727E+02  0.7816164E-02  0.1312668E+00
        -11   -1    0    0    0    0  0.00000000000E+00  0.00000000000E+00  0.45593999997E+02  0.45594000000E+02  0.51100000000E-03 0.  1.
         11   -1    0    0    0    0 -0.00000000000E+00 -0.00000000000E+00 -0.45593999997E+02  0.45594000000E+02  0.51100000000E-03 0. -1.
    9900012    2    1    2    0    0  0.14402645771E+02 -0.40702845787E+02 -0.44119432680E+01  0.47787273004E+02  0.20000008936E+02 0.  0.
         12    1    1    2    0    0 -0.14402645771E+02  0.40702845787E+02  0.44119432680E+01  0.43400726996E+02  0.00000000000E+00 0. -1.
         11    1    3    3    0    0 -0.34850939493E+00  0.21679504322E+01 -0.18209712905E+00  0.22033219239E+01  0.51100000000E-03 0. -1.
        -11    1    3    3    0    0  0.78000456379E+01 -0.19836040242E+02 -0.25108595413E+01  0.21461910920E+02  0.51100000000E-03 0.  1.
         12    1    3    3    0    0  0.69511095283E+01 -0.23034755977E+02 -0.17189865976E+01  0.24122040161E+02  0.00000000000E+00 0. -1.
</event>
<event>
 7    1  0.2706925E-010  0.4778726E+02  0.7816164E-02  0.1312668E+00
        -11   -1    0    0    0    0  0.00000000000E+00  0.00000000000E+00  0.45593999997E+02  0.45594000000E+02  0.51100000000E-03 0.  1.
         11   -1    0    0    0    0 -0.00000000000E+00 -0.00000000000E+00 -0.45593999997E+02  0.45594000000E+02  0.51100000000E-03 0. -1.
    9900012    2    1    2    0    0 -0.13276913892E+02 -0.19964757804E+02  0.36176737664E+02  0.47787258708E+02  0.19999943752E+02 0.  0.
         12    1    1    2    0    0  0.13276913892E+02  0.19964757804E+02 -0.36176737664E+02  0.43400741292E+02  0.00000000000E+00 0. -1.
         11    1    3    3    0    0 -0.11055719071E+02 -0.57355950474E+01  0.22983528227E+02  0.26141318727E+02  0.51100000000E-03 0. -1.
        -11    1    3    3    0    0 -0.36540442405E+00 -0.41571190830E+01  0.10130247304E+02  0.10956143033E+02  0.51100000000E-03 0.  1.
         12    1    3    3    0    0 -0.18557903966E+01 -0.10072043674E+02  0.30629621335E+01  0.10689796948E+02  0.00000000000E+00 0. -1.
</event>
<event>
 7    1  0.2706925E-010  0.4778727E+02  0.7816164E-02  0.1312668E+00
        -11   -1    0    0    0    0  0.00000000000E+00  0.00000000000E+00  0.45593999997E+02  0.45594000000E+02  0.51100000000E-03 0. -1.
         11   -1    0    0    0    0 -0.00000000000E+00 -0.00000000000E+00 -0.45593999997E+02  0.45594000000E+02  0.51100000000E-03 0.  1.
    9900012    2    1    2    0    0  0.18747057617E+02  0.37190080425E+02  0.12209379742E+02  0.47787271838E+02  0.20000003620E+02 0.  0.
         12    1    1    2    0    0 -0.18747057617E+02 -0.37190080425E+02 -0.12209379742E+02  0.43400728162E+02  0.00000000000E+00 0. -1.
         11    1    3    3    0    0  0.20018915070E+02  0.19768688979E+02  0.81396895603E+01  0.29288437495E+02  0.51100000000E-03 0. -1.
        -11    1    3    3    0    0  0.14576920059E+01  0.32210396328E+01  0.25986679445E+00  0.35450660518E+01  0.51100000000E-03 0.  1.
         12    1    3    3    0    0 -0.27295494589E+01  0.14200351813E+02  0.38098233875E+01  0.14953768291E+02  0.00000000000E+00 0. -1.
</event>
<event>
 7    1  0.2706925E-010  0.4778727E+02  0.7816164E-02  0.1312668E+00
        -11   -1    0    0    0    0  0.00000000000E+00  0.00000000000E+00  0.45593999997E+02  0.45594000000E+02  0.51100000000E-03 0. -1.
         11   -1    0    0    0    0 -0.00000000000E+00 -0.00000000000E+00 -0.45593999997E+02  0.45594000000E+02  0.51100000000E-03 0.  1.
    9900012    2    1    2    0    0 -0.32674216516E+02 -0.28565914829E+02 -0.84036278518E-01  0.47787274464E+02  0.20000015591E+02 0.  0.
         12    1    1    2    0    0  0.32674216516E+02  0.28565914829E+02  0.84036278518E-01  0.43400725536E+02  0.00000000000E+00 0. -1.
         11    1    3    3    0    0 -0.46908838659E+01 -0.31713750654E+01 -0.35500219988E+01  0.66831630013E+01  0.51100000000E-03 0. -1.
        -11    1    3    3    0    0 -0.33570342097E+01 -0.99071781369E+01 -0.37822677450E+01  0.11123282199E+02  0.51100000000E-03 0.  1.
        -12    1    3    3    0    0 -0.24626298440E+02 -0.15487361627E+02  0.72482534653E+01  0.29980829264E+02  0.00000000000E+00 0.  1.
</event>
<event>
 7    1  0.2706925E-010  0.4778727E+02  0.7816164E-02  0.1312668E+00
        -11   -1    0    0    0    0  0.00000000000E+00  0.00000000000E+00  0.45593999997E+02  0.45594000000E+02  0.51100000000E-03 0. -1.
         11   -1    0    0    0    0 -0.00000000000E+00 -0.00000000000E+00 -0.45593999997E+02  0.45594000000E+02  0.51100000000E-03 0.  1.
    9900012    2    1    2    0    0 -0.20658703121E+02  0.29896159992E+02 -0.23728902602E+02  0.47787271716E+02  0.20000003061E+02 0.  0.
         12    1    1    2    0    0  0.20658703121E+02 -0.29896159992E+02  0.23728902602E+02  0.43400728284E+02  0.00000000000E+00 0. -1.
         11    1    3    3    0    0  0.94251320984E+00  0.85137328956E+01 -0.12709155587E+02  0.15326272050E+02  0.51100000000E-03 0. -1.
        -11    1    3    3    0    0 -0.13307409343E+02  0.14026391206E+02 -0.83344676119E+01  0.21054456638E+02  0.51100000000E-03 0.  1.
         12    1    3    3    0    0 -0.82938069879E+01  0.73560358898E+01 -0.26852794036E+01  0.11406543028E+02  0.00000000000E+00 0. -1.
</event>
<event>
 7    1  0.2706925E-010  0.4778727E+02  0.7816164E-02  0.1312668E+00
        -11   -1    0    0    0    0  0.00000000000E+00  0.00000000000E+00  0.45593999997E+02  0.45594000000E+02  0.51100000000E-03 0.  1.
         11   -1    0    0    0    0 -0.00000000000E+00 -0.00000000000E+00 -0.45593999997E+02  0.45594000000E+02  0.51100000000E-03 0. -1.
    9900012    2    1    2    0    0  0.31244483858E+02  0.16422455619E+01  0.30078370401E+02  0.47787272955E+02  0.20000008712E+02 0.  0.
         12    1    1    2    0    0 -0.31244483858E+02 -0.16422455619E+01 -0.30078370401E+02  0.43400727045E+02  0.00000000000E+00 0. -1.
         11    1    3    3    0    0  0.42088985078E+00 -0.45762820034E+01  0.38134219453E+01  0.59717411561E+01  0.51100000000E-03 0. -1.
        -11    1    3    3    0    0  0.18968928212E+02  0.46947875771E+01  0.21206226721E+02  0.28836874309E+02  0.51100000000E-03 0.  1.
         12    1    3    3    0    0  0.11854665794E+02  0.15237399883E+01  0.50587217350E+01  0.12978657490E+02  0.00000000000E+00 0. -1.
</event>
<event>
 7    1  0.2706925E-010  0.4778727E+02  0.7816164E-02  0.1312668E+00
        -11   -1    0    0    0    0  0.00000000000E+00  0.00000000000E+00  0.45593999997E+02  0.45594000000E+02  0.51100000000E-03 0. -1.
         11   -1    0    0    0    0 -0.00000000000E+00 -0.00000000000E+00 -0.45593999997E+02  0.45594000000E+02  0.51100000000E-03 0.  1.
    9900012    2    1    2    0    0  0.41947814745E+02 -0.59085456055E+01 -0.94389195179E+01  0.47787271035E+02  0.19999999956E+02 0.  0.
         12    1    1    2    0    0 -0.41947814745E+02  0.59085456055E+01  0.94389195179E+01  0.43400728965E+02  0.00000000000E+00 0. -1.
         11    1    3    3    0    0  0.18686060871E+02 -0.23599789619E+01  0.82966319029E+00  0.18852764063E+02  0.51100000000E-03 0.  1.
        -11    1    3    3    0    0  0.53940432558E+01 -0.24850440401E+01 -0.92675434670E+01  0.11007202583E+02  0.51100000000E-03 0. -1.
         12    1    3    3    0    0  0.17867710618E+02 -0.10635226035E+01 -0.10010392413E+01  0.17927304388E+02  0.00000000000E+00 0. -1.
</event>
<event>
 7    1  0.2706925E-010  0.4778727E+02  0.7816164E-02  0.1312668E+00
        -11   -1    0    0    0    0  0.00000000000E+00  0.00000000000E+00  0.45593999997E+02  0.45594000000E+02  0.51100000000E-03 0.  1.
         11   -1    0    0    0    0 -0.00000000000E+00 -0.00000000000E+00 -0.45593999997E+02  0.45594000000E+02  0.51100000000E-03 0. -1.
    9900012    2    1    2    0    0 -0.24941486395E+02 -0.34107431286E+02 -0.99110630566E+01  0.47787265174E+02  0.19999973235E+02 0.  0.
         12    1    1    2    0    0  0.24941486395E+02  0.34107431286E+02  0.99110630566E+01  0.43400734826E+02  0.00000000000E+00 0. -1.
         11    1    3    3    0    0 -0.67532387330E+01 -0.14240995425E+01  0.88008178110E+00  0.69576459448E+01  0.51100000000E-03 0. -1.
        -11    1    3    3    0    0 -0.16832489735E+01 -0.13913290352E+02 -0.65808158426E+01  0.15482897433E+02  0.51100000000E-03 0.  1.
        -12    1    3    3    0    0 -0.16504998689E+02 -0.18770041391E+02 -0.42103289950E+01  0.25346721796E+02  0.00000000000E+00 0.  1.
</event>
<event>
 7    1  0.2706925E-010  0.4778725E+02  0.7816164E-02  0.1312668E+00
        -11   -1    0    0    0    0  0.00000000000E+00  0.00000000000E+00  0.45593999997E+02  0.45594000000E+02  0.51100000000E-03 0. -1.
         11   -1    0    0    0    0 -0.00000000000E+00 -0.00000000000E+00 -0.45593999997E+02  0.45594000000E+02  0.51100000000E-03 0.  1.
    9900012    2    1    2    0    0  0.21524615335E+02  0.23811885367E+02  0.29211477190E+02  0.47787247130E+02  0.19999890963E+02 0.  0.
         12    1    1    2    0    0 -0.21524615335E+02 -0.23811885367E+02 -0.29211477190E+02  0.43400752870E+02  0.00000000000E+00 0. -1.
         11    1    3    3    0    0  0.77552315317E+01  0.39684783971E+01 -0.37338676777E+00  0.87196246960E+01  0.51100000000E-03 0. -1.
        -11    1    3    3    0    0  0.37043451747E+01  0.31935291777E+01  0.19371879735E+01  0.52605607389E+01  0.51100000000E-03 0.  1.
         12    1    3    3    0    0  0.10065038629E+02  0.16649877793E+02  0.27647675984E+02  0.33807061695E+02  0.00000000000E+00 0. -1.
</event>
<event>
 7    1  0.2706925E-010  0.4778727E+02  0.7816164E-02  0.1312668E+00
        -11   -1    0    0    0    0  0.00000000000E+00  0.00000000000E+00  0.45593999997E+02  0.45594000000E+02  0.51100000000E-03 0.  1.
         11   -1    0    0    0    0 -0.00000000000E+00 -0.00000000000E+00 -0.45593999997E+02  0.45594000000E+02  0.51100000000E-03 0. -1.
    9900012    2    1    2    0    0  0.19870316569E+02  0.28572170543E+02  0.25931156162E+02  0.47787271089E+02  0.20000000205E+02 0.  0.
         12    1    1    2    0    0 -0.19870316569E+02 -0.28572170543E+02 -0.25931156162E+02  0.43400728911E+02  0.00000000000E+00 0. -1.
         11    1    3    3    0    0  0.10666879957E+02  0.66085520834E+01  0.53663659996E+01  0.13647460312E+02  0.51100000000E-03 0. -1.
        -11    1    3    3    0    0 -0.15593175733E+01  0.93922238941E+01  0.12547875145E+02  0.15751016218E+02  0.51100000000E-03 0.  1.
        -12    1    3    3    0    0  0.10762754186E+02  0.12571394566E+02  0.80169150166E+01  0.18388794560E+02  0.00000000000E+00 0.  1.
</event>
<event>
 7    1  0.2706925E-010  0.4778727E+02  0.7816164E-02  0.1312668E+00
        -11   -1    0    0    0    0  0.00000000000E+00  0.00000000000E+00  0.45593999997E+02  0.45594000000E+02  0.51100000000E-03 0. -1.
         11   -1    0    0    0    0 -0.00000000000E+00 -0.00000000000E+00 -0.45593999997E+02  0.45594000000E+02  0.51100000000E-03 0.  1.
    9900012    2    1    2    0    0 -0.73409575388E+01  0.14434086213E+02 -0.40266496583E+02  0.47787271325E+02  0.20000001281E+02 0.  0.
         12    1    1    2    0    0  0.73409575388E+01 -0.14434086213E+02  0.40266496583E+02  0.43400728675E+02  0.00000000000E+00 0. -1.
         11    1    3    3    0    0 -0.96964045413E+01  0.26808064311E+01 -0.78301243944E+01  0.12748248211E+02  0.51100000000E-03 0. -1.
        -11    1    3    3    0    0  0.29334373127E+01  0.94989444379E+01 -0.30265369094E+02  0.31856358338E+02  0.51100000000E-03 0.  1.
        -12    1    3    3    0    0 -0.57799031015E+00  0.22543353444E+01 -0.21710030951E+01  0.31826647770E+01  0.00000000000E+00 0.  1.
</event>
<event>
 7    1  0.2706925E-010  0.4778727E+02  0.7816164E-02  0.1312668E+00
        -11   -1    0    0    0    0  0.00000000000E+00  0.00000000000E+00  0.45593999997E+02  0.45594000000E+02  0.51100000000E-03 0.  1.
         11   -1    0    0    0    0 -0.00000000000E+00 -0.00000000000E+00 -0.45593999997E+02  0.45594000000E+02  0.51100000000E-03 0. -1.
    9900012    2    1    2    0    0 -0.26317675150E+02  0.28050761715E+02  0.20103691818E+02  0.47787266333E+02  0.19999978520E+02 0.  0.
         12    1    1    2    0    0  0.26317675150E+02 -0.28050761715E+02 -0.20103691818E+02  0.43400733667E+02  0.00000000000E+00 0. -1.
         11    1    3    3    0    0 -0.19627014356E+01 -0.20293051545E+01 -0.44695446418E+00  0.28583290380E+01  0.51100000000E-03 0. -1.
        -11    1    3    3    0    0 -0.23618522341E+02  0.30867377986E+02  0.20143120651E+02  0.43776419807E+02  0.51100000000E-03 0.  1.
        -12    1    3    3    0    0 -0.73645137334E+00 -0.78731111664E+00  0.40752563131E+00  0.11525174879E+01  0.00000000000E+00 0.  1.
</event>
<event>
 7    1  0.2706925E-010  0.4778727E+02  0.7816164E-02  0.1312668E+00
        -11   -1    0    0    0    0  0.00000000000E+00  0.00000000000E+00  0.45593999997E+02  0.45594000000E+02  0.51100000000E-03 0. -1.
         11   -1    0    0    0    0 -0.00000000000E+00 -0.00000000000E+00 -0.45593999997E+02  0.45594000000E+02  0.51100000000E-03 0.  1.
    9900012    2    1    2    0    0  0.16167792512E+02 -0.11637307784E+02 -0.38559030114E+02  0.47787271314E+02  0.20000001227E+02 0.  0.
         12    1    1    2    0    0 -0.16167792512E+02  0.11637307784E+02  0.38559030114E+02  0.43400728686E+02  0.00000000000E+00 0. -1.
         11    1    3    3    0    0 -0.82836602613E+00  0.44443879115E+01 -0.83551641000E+01  0.94998706086E+01  0.51100000000E-03 0. -1.
        -11    1    3    3    0    0  0.68397450898E+01 -0.71493250495E+01 -0.10954707709E+02  0.14761455986E+02  0.51100000000E-03 0.  1.
         12    1    3    3    0    0  0.10156413449E+02 -0.89323706462E+01 -0.19249158305E+02  0.23525944719E+02  0.00000000000E+00 0. -1.
</event>
<event>
 7    1  0.2706925E-010  0.4778727E+02  0.7816164E-02  0.1312668E+00
        -11   -1    0    0    0    0  0.00000000000E+00  0.00000000000E+00  0.45593999997E+02  0.45594000000E+02  0.51100000000E-03 0. -1.
         11   -1    0    0    0    0 -0.00000000000E+00 -0.00000000000E+00 -0.45593999997E+02  0.45594000000E+02  0.51100000000E-03 0.  1.
    9900012    2    1    2    0    0  0.31407513197E+02 -0.29705199163E+02  0.38461038261E+01  0.47787271236E+02  0.20000000875E+02 0.  0.
         12    1    1    2    0    0 -0.31407513197E+02  0.29705199163E+02 -0.38461038261E+01  0.43400728764E+02  0.00000000000E+00 0. -1.
         11    1    3    3    0    0  0.10895701861E+02 -0.22808576883E+02  0.10954380894E+01  0.25301136008E+02  0.51100000000E-03 0. -1.
        -11    1    3    3    0    0  0.17741555809E+02 -0.73136855290E+01  0.10711470286E+01  0.19219785502E+02  0.51100000000E-03 0.  1.
         12    1    3    3    0    0  0.27702555272E+01  0.41706324821E+00  0.16795187081E+01  0.32663497256E+01  0.00000000000E+00 0. -1.
</event>
<event>
 7    1  0.2706925E-010  0.4778727E+02  0.7816164E-02  0.1312668E+00
        -11   -1    0    0    0    0  0.00000000000E+00  0.00000000000E+00  0.45593999997E+02  0.45594000000E+02  0.51100000000E-03 0.  1.
         11   -1    0    0    0    0 -0.00000000000E+00 -0.00000000000E+00 -0.45593999997E+02  0.45594000000E+02  0.51100000000E-03 0. -1.
    9900012    2    1    2    0    0  0.13190637132E+02 -0.24062640222E+01  0.41277600170E+02  0.47787270856E+02  0.19999999139E+02 0.  0.
         12    1    1    2    0    0 -0.13190637132E+02  0.24062640222E+01 -0.41277600170E+02  0.43400729144E+02  0.00000000000E+00 0. -1.
         11    1    3    3    0    0 -0.29307132865E+01 -0.59818216269E+00 -0.33182855408E+00  0.30094871187E+01  0.51100000000E-03 0. -1.
        -11    1    3    3    0    0  0.87009931080E+01 -0.80741770663E+00  0.26704526312E+02  0.28097881240E+02  0.51100000000E-03 0.  1.
         12    1    3    3    0    0  0.74203573108E+01 -0.10006641528E+01  0.14904902412E+02  0.16679902496E+02  0.00000000000E+00 0. -1.
</event>
<event>
 7    1  0.2706925E-010  0.4778727E+02  0.7816164E-02  0.1312668E+00
        -11   -1    0    0    0    0  0.00000000000E+00  0.00000000000E+00  0.45593999997E+02  0.45594000000E+02  0.51100000000E-03 0.  1.
         11   -1    0    0    0    0 -0.00000000000E+00 -0.00000000000E+00 -0.45593999997E+02  0.45594000000E+02  0.51100000000E-03 0. -1.
    9900012    2    1    2    0    0  0.31313355078E+02  0.26992147313E+02 -0.13210651682E+02  0.47787267971E+02  0.19999985985E+02 0.  0.
         12    1    1    2    0    0 -0.31313355078E+02 -0.26992147313E+02  0.13210651682E+02  0.43400732029E+02  0.00000000000E+00 0. -1.
         11    1    3    3    0    0  0.11139561527E+02  0.67345943140E+01 -0.12909484585E+02  0.18333013503E+02  0.51100000000E-03 0. -1.
        -11    1    3    3    0    0  0.99840191481E+01  0.90041110600E+01 -0.36011654698E+01  0.13918442705E+02  0.51100000000E-03 0.  1.
         12    1    3    3    0    0  0.10189774403E+02  0.11253441939E+02  0.32999983724E+01  0.15535811762E+02  0.00000000000E+00 0. -1.
</event>
<event>
 7    1  0.2706925E-010  0.4778727E+02  0.7816164E-02  0.1312668E+00
        -11   -1    0    0    0    0  0.00000000000E+00  0.00000000000E+00  0.45593999997E+02  0.45594000000E+02  0.51100000000E-03 0.  1.
         11   -1    0    0    0    0 -0.00000000000E+00 -0.00000000000E+00 -0.45593999997E+02  0.45594000000E+02  0.51100000000E-03 0. -1.
    9900012    2    1    2    0    0  0.68848791647E-01 -0.80650134193E+01  0.42644744364E+02  0.47787269552E+02  0.19999993194E+02 0.  0.
         12    1    1    2    0    0 -0.68848791647E-01  0.80650134193E+01 -0.42644744364E+02  0.43400730448E+02  0.00000000000E+00 0. -1.
         11    1    3    3    0    0 -0.14302147317E+01  0.24113166487E+01  0.15960288907E+02  0.16204653171E+02  0.51100000000E-03 0. -1.
        -11    1    3    3    0    0  0.71434122348E+01 -0.80142156875E+01  0.16900562602E+02  0.20022112974E+02  0.51100000000E-03 0.  1.
         12    1    3    3    0    0 -0.56443487115E+01 -0.24621143805E+01  0.97838928552E+01  0.11560503406E+02  0.00000000000E+00 0. -1.
</event>
<event>
 7    1  0.2706925E-010  0.4778728E+02  0.7816164E-02  0.1312668E+00
        -11   -1    0    0    0    0  0.00000000000E+00  0.00000000000E+00  0.45593999997E+02  0.45594000000E+02  0.51100000000E-03 0.  1.
         11   -1    0    0    0    0 -0.00000000000E+00 -0.00000000000E+00 -0.45593999997E+02  0.45594000000E+02  0.51100000000E-03 0. -1.
    9900012    2    1    2    0    0 -0.17443102442E+02  0.24179248596E+02  0.31539261261E+02  0.47787275509E+02  0.20000020355E+02 0.  0.
         12    1    1    2    0    0  0.17443102442E+02 -0.24179248596E+02 -0.31539261261E+02  0.43400724491E+02  0.00000000000E+00 0. -1.
         11    1    3    3    0    0 -0.13262613456E+02  0.36273294537E+01  0.98115141956E+01  0.16891425213E+02  0.51100000000E-03 0. -1.
        -11    1    3    3    0    0 -0.32624666681E+01  0.19356945181E+02  0.17115634595E+02  0.26043808541E+02  0.51100000000E-03 0.  1.
         12    1    3    3    0    0 -0.91802231800E+00  0.11949739613E+01  0.46121124713E+01  0.48520417550E+01  0.00000000000E+00 0. -1.
</event>
<event>
 7    1  0.2706925E-010  0.4778727E+02  0.7816164E-02  0.1312668E+00
        -11   -1    0    0    0    0  0.00000000000E+00  0.00000000000E+00  0.45593999997E+02  0.45594000000E+02  0.51100000000E-03 0.  1.
         11   -1    0    0    0    0 -0.00000000000E+00 -0.00000000000E+00 -0.45593999997E+02  0.45594000000E+02  0.51100000000E-03 0. -1.
    9900012    2    1    2    0    0  0.20218679501E+02  0.22687730341E+02  0.30985403744E+02  0.47787270122E+02  0.19999995794E+02 0.  0.
         12    1    1    2    0    0 -0.20218679501E+02 -0.22687730341E+02 -0.30985403744E+02  0.43400729878E+02  0.00000000000E+00 0. -1.
         11    1    3    3    0    0  0.19979377162E+01 -0.15682521332E+01  0.59962700610E+01  0.65120215584E+01  0.51100000000E-03 0. -1.
        -11    1    3    3    0    0  0.10399510339E+02  0.15678259713E+02  0.74338510013E+01  0.20229181493E+02  0.51100000000E-03 0.  1.
        -12    1    3    3    0    0  0.78212314462E+01  0.85777227612E+01  0.17555282681E+02  0.21046067070E+02  0.00000000000E+00 0.  1.
</event>
<event>
 7    1  0.2706925E-010  0.4778722E+02  0.7816164E-02  0.1312668E+00
        -11   -1    0    0    0    0  0.00000000000E+00  0.00000000000E+00  0.45593999997E+02  0.45594000000E+02  0.51100000000E-03 0.  1.
         11   -1    0    0    0    0 -0.00000000000E+00 -0.00000000000E+00 -0.45593999997E+02  0.45594000000E+02  0.51100000000E-03 0. -1.
    9900012    2    1    2    0    0  0.35449723209E+01 -0.30033617703E+01  0.43151366826E+02  0.47787222707E+02  0.19999779609E+02 0.  0.
         12    1    1    2    0    0 -0.35449723209E+01  0.30033617703E+01 -0.43151366826E+02  0.43400777293E+02  0.00000000000E+00 0. -1.
         11    1    3    3    0    0 -0.18356433141E+01 -0.51782493310E+01  0.26929303334E+02  0.27484017734E+02  0.51100000000E-03 0. -1.
        -11    1    3    3    0    0  0.27557224667E+01 -0.17658159635E+01  0.15081933418E+02  0.15432978592E+02  0.51100000000E-03 0.  1.
         12    1    3    3    0    0  0.26248931683E+01  0.39407035242E+01  0.11401300738E+01  0.48702263803E+01  0.00000000000E+00 0. -1.
</event>
<event>
 7    1  0.2706925E-010  0.4778727E+02  0.7816164E-02  0.1312668E+00
        -11   -1    0    0    0    0  0.00000000000E+00  0.00000000000E+00  0.45593999997E+02  0.45594000000E+02  0.51100000000E-03 0.  1.
         11   -1    0    0    0    0 -0.00000000000E+00 -0.00000000000E+00 -0.45593999997E+02  0.45594000000E+02  0.51100000000E-03 0. -1.
    9900012    2    1    2    0    0 -0.12035808364E+02 -0.39787485601E+02  0.12478726612E+02  0.47787270613E+02  0.19999998034E+02 0.  0.
         12    1    1    2    0    0  0.12035808364E+02  0.39787485601E+02 -0.12478726612E+02  0.43400729387E+02  0.00000000000E+00 0. -1.
         11    1    3    3    0    0 -0.49979363477E+00 -0.13181169270E+02  0.73874255238E+01  0.15118434877E+02  0.51100000000E-03 0. -1.
        -11    1    3    3    0    0 -0.11187789247E+02 -0.17407771902E+02 -0.23583564647E+01  0.20826881579E+02  0.51100000000E-03 0.  1.
        -12    1    3    3    0    0 -0.34822548233E+00 -0.91985444288E+01  0.74496575532E+01  0.11841954157E+02  0.00000000000E+00 0.  1.
</event>
<event>
 7    1  0.2706925E-010  0.4778727E+02  0.7816164E-02  0.1312668E+00
        -11   -1    0    0    0    0  0.00000000000E+00  0.00000000000E+00  0.45593999997E+02  0.45594000000E+02  0.51100000000E-03 0. -1.
         11   -1    0    0    0    0 -0.00000000000E+00 -0.00000000000E+00 -0.45593999997E+02  0.45594000000E+02  0.51100000000E-03 0.  1.
    9900012    2    1    2    0    0 -0.14302191567E+02 -0.38606019604E+02 -0.13734845286E+02  0.47787269496E+02  0.19999992940E+02 0.  0.
         12    1    1    2    0    0  0.14302191567E+02  0.38606019604E+02  0.13734845286E+02  0.43400730504E+02  0.00000000000E+00 0. -1.
         11    1    3    3    0    0 -0.14620109359E+02 -0.28818574169E+02 -0.15779515669E+02  0.35961798200E+02  0.51100000000E-03 0. -1.
        -11    1    3    3    0    0  0.40874711157E+00 -0.10710737747E+02  0.18380039342E+01  0.10874982116E+02  0.51100000000E-03 0.  1.
        -12    1    3    3    0    0 -0.90829319644E-01  0.92329231266E+00  0.20666644901E+00  0.95048917988E+00  0.00000000000E+00 0.  1.
</event>
<event>
 7    1  0.2706925E-010  0.4778728E+02  0.7816164E-02  0.1312668E+00
        -11   -1    0    0    0    0  0.00000000000E+00  0.00000000000E+00  0.45593999997E+02  0.45594000000E+02  0.51100000000E-03 0. -1.
         11   -1    0    0    0    0 -0.00000000000E+00 -0.00000000000E+00 -0.45593999997E+02  0.45594000000E+02  0.51100000000E-03 0.  1.
    9900012    2    1    2    0    0  0.43358570363E+02 -0.18992198949E+01  0.22419168039E+00  0.47787275098E+02  0.20000018481E+02 0.  0.
         12    1    1    2    0    0 -0.43358570363E+02  0.18992198949E+01 -0.22419168039E+00  0.43400724902E+02  0.00000000000E+00 0. -1.
         11    1    3    3    0    0  0.16513101692E+02  0.66811402214E+01 -0.12140950030E+01  0.17854808570E+02  0.51100000000E-03 0.  1.
        -11    1    3    3    0    0  0.12781517277E+02 -0.96838260720E+00 -0.33324329617E+01  0.13244246240E+02  0.51100000000E-03 0. -1.
         12    1    3    3    0    0  0.14063951394E+02 -0.76119775090E+01  0.47707196450E+01  0.16688220287E+02  0.00000000000E+00 0. -1.
</event>
<event>
 7    1  0.2706925E-010  0.4778728E+02  0.7816164E-02  0.1312668E+00
        -11   -1    0    0    0    0  0.00000000000E+00  0.00000000000E+00  0.45593999997E+02  0.45594000000E+02  0.51100000000E-03 0.  1.
         11   -1    0    0    0    0 -0.00000000000E+00 -0.00000000000E+00 -0.45593999997E+02  0.45594000000E+02  0.51100000000E-03 0. -1.
    9900012    2    1    2    0    0 -0.33882281777E+02  0.25013790469E+02 -0.10484470647E+02  0.47787275850E+02  0.20000021910E+02 0.  0.
         12    1    1    2    0    0  0.33882281777E+02 -0.25013790469E+02  0.10484470647E+02  0.43400724150E+02  0.00000000000E+00 0. -1.
         11    1    3    3    0    0 -0.14599446334E+02  0.34046986794E+01 -0.60881352173E+01  0.16180271847E+02  0.51100000000E-03 0. -1.
        -11    1    3    3    0    0 -0.47069726128E+01  0.10358128589E+02  0.29962567012E+01  0.11765371797E+02  0.51100000000E-03 0.  1.
        -12    1    3    3    0    0 -0.14575862830E+02  0.11250963200E+02 -0.73925921310E+01  0.19841632206E+02  0.00000000000E+00 0.  1.
</event>
<event>
 7    1  0.2706925E-010  0.4778727E+02  0.7816164E-02  0.1312668E+00
        -11   -1    0    0    0    0  0.00000000000E+00  0.00000000000E+00  0.45593999997E+02  0.45594000000E+02  0.51100000000E-03 0.  1.
         11   -1    0    0    0    0 -0.00000000000E+00 -0.00000000000E+00 -0.45593999997E+02  0.45594000000E+02  0.51100000000E-03 0. -1.
    9900012    2    1    2    0    0  0.15945357985E+02  0.39899793470E+02  0.61135388471E+01  0.47787270543E+02  0.19999997712E+02 0.  0.
         12    1    1    2    0    0 -0.15945357985E+02 -0.39899793470E+02 -0.61135388471E+01  0.43400729457E+02  0.00000000000E+00 0. -1.
         11    1    3    3    0    0  0.16847431345E+02  0.30943854062E+02  0.28868548965E+01  0.35350982710E+02  0.51100000000E-03 0.  1.
        -11    1    3    3    0    0 -0.11997132322E+01  0.23997492722E+01 -0.25438665692E+01  0.36972105420E+01  0.51100000000E-03 0. -1.
        -12    1    3    3    0    0  0.29763987264E+00  0.65561901360E+01  0.57705505198E+01  0.87390772908E+01  0.00000000000E+00 0.  1.
</event>
<event>
 7    1  0.2706925E-010  0.4778729E+02  0.7816164E-02  0.1312668E+00
        -11   -1    0    0    0    0  0.00000000000E+00  0.00000000000E+00  0.45593999997E+02  0.45594000000E+02  0.51100000000E-03 0. -1.
         11   -1    0    0    0    0 -0.00000000000E+00 -0.00000000000E+00 -0.45593999997E+02  0.45594000000E+02  0.51100000000E-03 0.  1.
    9900012    2    1    2    0    0 -0.41509019032E+02  0.36576885622E+01 -0.12134408393E+02  0.47787294779E+02  0.20000108215E+02 0.  0.
         12    1    1    2    0    0  0.41509019032E+02 -0.36576885622E+01  0.12134408393E+02  0.43400705221E+02  0.00000000000E+00 0. -1.
         11    1    3    3    0    0 -0.84465417593E+01 -0.64514370399E+01 -0.12552416319E+01  0.10702370737E+02  0.51100000000E-03 0. -1.
        -11    1    3    3    0    0 -0.30829941009E+02  0.70365990590E+01 -0.10197060227E+02  0.33226179835E+02  0.51100000000E-03 0.  1.
        -12    1    3    3    0    0 -0.22325362642E+01  0.30725265431E+01 -0.68210653378E+00  0.38587442066E+01  0.00000000000E+00 0.  1.
</event>
<event>
 7    1  0.2706925E-010  0.4778726E+02  0.7816164E-02  0.1312668E+00
        -11   -1    0    0    0    0  0.00000000000E+00  0.00000000000E+00  0.45593999997E+02  0.45594000000E+02  0.51100000000E-03 0.  1.
         11   -1    0    0    0    0 -0.00000000000E+00 -0.00000000000E+00 -0.45593999997E+02  0.45594000000E+02  0.51100000000E-03 0. -1.
    9900012    2    1    2    0    0 -0.23378555511E+02 -0.23800543977E+02 -0.27759708986E+02  0.47787260440E+02  0.19999951649E+02 0.  0.
         12    1    1    2    0    0  0.23378555511E+02  0.23800543977E+02  0.27759708986E+02  0.43400739560E+02  0.00000000000E+00 0. -1.
         11    1    3    3    0    0 -0.35786835639E+01 -0.45028105132E+01 -0.91373362339E+00  0.58238464922E+01  0.51100000000E-03 0. -1.
        -11    1    3    3    0    0 -0.20387179729E+01 -0.13281785619E+02 -0.99246034733E+01  0.16705087685E+02  0.51100000000E-03 0.  1.
        -12    1    3    3    0    0 -0.17761153975E+02 -0.60159478445E+01 -0.16921371889E+02  0.25258326262E+02  0.00000000000E+00 0.  1.
</event>
<event>
 7    1  0.2706925E-010  0.4778726E+02  0.7816164E-02  0.1312668E+00
        -11   -1    0    0    0    0  0.00000000000E+00  0.00000000000E+00  0.45593999997E+02  0.45594000000E+02  0.51100000000E-03 0.  1.
         11   -1    0    0    0    0 -0.00000000000E+00 -0.00000000000E+00 -0.45593999997E+02  0.45594000000E+02  0.51100000000E-03 0. -1.
    9900012    2    1    2    0    0  0.82877233848E+01  0.22443917109E+02  0.36210612653E+02  0.47787259882E+02  0.19999949106E+02 0.  0.
         12    1    1    2    0    0 -0.82877233848E+01 -0.22443917109E+02 -0.36210612653E+02  0.43400740118E+02  0.00000000000E+00 0. -1.
         11    1    3    3    0    0  0.54061718152E+01  0.67752048095E+01  0.14509178533E+01  0.87883591634E+01  0.51100000000E-03 0. -1.
        -11    1    3    3    0    0  0.36362337962E+01  0.52525421598E+01  0.19402586998E+02  0.20427231282E+02  0.51100000000E-03 0.  1.
         12    1    3    3    0    0 -0.75468222663E+00  0.10416170140E+02  0.15357107801E+02  0.18571669436E+02  0.00000000000E+00 0. -1.
</event>
<event>
 7    1  0.2706925E-010  0.4778725E+02  0.7816164E-02  0.1312668E+00
        -11   -1    0    0    0    0  0.00000000000E+00  0.00000000000E+00  0.45593999997E+02  0.45594000000E+02  0.51100000000E-03 0.  1.
         11   -1    0    0    0    0 -0.00000000000E+00 -0.00000000000E+00 -0.45593999997E+02  0.45594000000E+02  0.51100000000E-03 0. -1.
    9900012    2    1    2    0    0  0.14919360262E+02  0.29707713905E+02  0.27901420755E+02  0.47787252815E+02  0.19999916884E+02 0.  0.
         12    1    1    2    0    0 -0.14919360262E+02 -0.29707713905E+02 -0.27901420755E+02  0.43400747185E+02  0.00000000000E+00 0. -1.
         11    1    3    3    0    0 -0.23770015634E+01  0.12203260041E+02  0.10393428792E+02  0.16204723212E+02  0.51100000000E-03 0. -1.
        -11    1    3    3    0    0  0.12597599517E+02  0.90436067340E+01  0.62067216789E+01  0.16703584364E+02  0.51100000000E-03 0.  1.
        -12    1    3    3    0    0  0.46987623089E+01  0.84608471300E+01  0.11301270284E+02  0.14878945239E+02  0.00000000000E+00 0.  1.
</event>
<event>
 7    1  0.2706925E-010  0.4778728E+02  0.7816164E-02  0.1312668E+00
        -11   -1    0    0    0    0  0.00000000000E+00  0.00000000000E+00  0.45593999997E+02  0.45594000000E+02  0.51100000000E-03 0.  1.
         11   -1    0    0    0    0 -0.00000000000E+00 -0.00000000000E+00 -0.45593999997E+02  0.45594000000E+02  0.51100000000E-03 0. -1.
    9900012    2    1    2    0    0  0.19241500679E+02 -0.49159846040E+01  0.38590418690E+02  0.47787278028E+02  0.20000031840E+02 0.  0.
         12    1    1    2    0    0 -0.19241500679E+02  0.49159846040E+01 -0.38590418690E+02  0.43400721972E+02  0.00000000000E+00 0. -1.
         11    1    3    3    0    0  0.94685241810E+00 -0.55533094628E+01  0.14023576414E+01  0.58053753286E+01  0.51100000000E-03 0. -1.
        -11    1    3    3    0    0  0.11096939685E+02 -0.19057493679E+00  0.28985888711E+02  0.31038043331E+02  0.51100000000E-03 0.  1.
         12    1    3    3    0    0  0.71977085757E+01  0.82789979555E+00  0.82021723376E+01  0.10943859368E+02  0.00000000000E+00 0. -1.
</event>
<event>
 7    1  0.2706925E-010  0.4778727E+02  0.7816164E-02  0.1312668E+00
        -11   -1    0    0    0    0  0.00000000000E+00  0.00000000000E+00  0.45593999997E+02  0.45594000000E+02  0.51100000000E-03 0.  1.
         11   -1    0    0    0    0 -0.00000000000E+00 -0.00000000000E+00 -0.45593999997E+02  0.45594000000E+02  0.51100000000E-03 0. -1.
    9900012    2    1    2    0    0 -0.10367531345E+02 -0.27197228503E+02  0.32193917941E+02  0.47787270780E+02  0.19999998794E+02 0.  0.
         12    1    1    2    0    0  0.10367531345E+02  0.27197228503E+02 -0.32193917941E+02  0.43400729220E+02  0.00000000000E+00 0. -1.
         11    1    3    3    0    0  0.30475776514E+01 -0.14582675862E+02  0.74702017189E+01  0.16665715671E+02  0.51100000000E-03 0. -1.
        -11    1    3    3    0    0 -0.51543276176E+01 -0.75067721111E+01  0.13429567456E+02  0.16225658786E+02  0.51100000000E-03 0.  1.
         12    1    3    3    0    0 -0.82607813789E+01 -0.51077805302E+01  0.11294148766E+02  0.14895896323E+02  0.00000000000E+00 0. -1.
</event>
<event>
 7    1  0.2706925E-010  0.4778727E+02  0.7816164E-02  0.1312668E+00
        -11   -1    0    0    0    0  0.00000000000E+00  0.00000000000E+00  0.45593999997E+02  0.45594000000E+02  0.51100000000E-03 0. -1.
         11   -1    0    0    0    0 -0.00000000000E+00 -0.00000000000E+00 -0.45593999997E+02  0.45594000000E+02  0.51100000000E-03 0.  1.
    9900012    2    1    2    0    0  0.36039678397E+02  0.10445448767E+02  0.21809577733E+02  0.47787268442E+02  0.19999988133E+02 0.  0.
         12    1    1    2    0    0 -0.36039678397E+02 -0.10445448767E+02 -0.21809577733E+02  0.43400731558E+02  0.00000000000E+00 0. -1.
         11    1    3    3    0    0  0.20211809723E+02  0.28961056350E+01  0.17291038178E+02  0.26756021410E+02  0.51100000000E-03 0. -1.
        -11    1    3    3    0    0  0.17055457246E+02  0.60563065696E+01  0.25590561413E+01  0.18278846783E+02  0.51100000000E-03 0.  1.
         12    1    3    3    0    0 -0.12275885723E+01  0.14930365628E+01  0.19594834141E+01  0.27524002490E+01  0.00000000000E+00 0. -1.
</event>
<event>
 7    1  0.2706925E-010  0.4778727E+02  0.7816164E-02  0.1312668E+00
        -11   -1    0    0    0    0  0.00000000000E+00  0.00000000000E+00  0.45593999997E+02  0.45594000000E+02  0.51100000000E-03 0.  1.
         11   -1    0    0    0    0 -0.00000000000E+00 -0.00000000000E+00 -0.45593999997E+02  0.45594000000E+02  0.51100000000E-03 0. -1.
    9900012    2    1    2    0    0 -0.21492021275E+01  0.10195806626E+02  0.42131338697E+02  0.47787271401E+02  0.20000001625E+02 0.  0.
         12    1    1    2    0    0  0.21492021275E+01 -0.10195806626E+02 -0.42131338697E+02  0.43400728599E+02  0.00000000000E+00 0. -1.
         11    1    3    3    0    0  0.16108589987E+01  0.12739053825E+01  0.26201304606E+02  0.26281667850E+02  0.51100000000E-03 0. -1.
        -11    1    3    3    0    0 -0.28150635212E+01  0.10942080689E+02  0.97092056056E+01  0.14897059649E+02  0.51100000000E-03 0.  1.
        -12    1    3    3    0    0 -0.94499760500E+00 -0.20201794457E+01  0.62208284851E+01  0.66085439022E+01  0.00000000000E+00 0.  1.
</event>
<event>
 7    1  0.2706925E-010  0.4778727E+02  0.7816164E-02  0.1312668E+00
        -11   -1    0    0    0    0  0.00000000000E+00  0.00000000000E+00  0.45593999997E+02  0.45594000000E+02  0.51100000000E-03 0.  1.
         11   -1    0    0    0    0 -0.00000000000E+00 -0.00000000000E+00 -0.45593999997E+02  0.45594000000E+02  0.51100000000E-03 0. -1.
    9900012    2    1    2    0    0 -0.41570762466E+02 -0.17082109437E+01  0.12352194830E+02  0.47787274272E+02  0.20000014715E+02 0.  0.
         12    1    1    2    0    0  0.41570762466E+02  0.17082109437E+01 -0.12352194830E+02  0.43400725728E+02  0.00000000000E+00 0. -1.
         11    1    3    3    0    0 -0.12315035598E+02 -0.52114110674E+01  0.17248648328E+01  0.13483102983E+02  0.51100000000E-03 0. -1.
        -11    1    3    3    0    0 -0.23235339419E+02 -0.31286553308E+01  0.58987988013E+01  0.24175717356E+02  0.51100000000E-03 0.  1.
        -12    1    3    3    0    0 -0.60203874482E+01  0.66318554545E+01  0.47285311963E+01  0.10128453933E+02  0.00000000000E+00 0.  1.
</event>
<event>
 7    1  0.2706925E-010  0.4778727E+02  0.7816164E-02  0.1312668E+00
        -11   -1    0    0    0    0  0.00000000000E+00  0.00000000000E+00  0.45593999997E+02  0.45594000000E+02  0.51100000000E-03 0.  1.
         11   -1    0    0    0    0 -0.00000000000E+00 -0.00000000000E+00 -0.45593999997E+02  0.45594000000E+02  0.51100000000E-03 0. -1.
    9900012    2    1    2    0    0 -0.38487959893E+02  0.62212567003E+01  0.19068196534E+02  0.47787271772E+02  0.20000003318E+02 0.  0.
         12    1    1    2    0    0  0.38487959893E+02 -0.62212567003E+01 -0.19068196534E+02  0.43400728228E+02  0.00000000000E+00 0. -1.
         11    1    3    3    0    0 -0.41634151202E+01 -0.72722952381E+00  0.96744150997E+01  0.10557329020E+02  0.51100000000E-03 0. -1.
        -11    1    3    3    0    0 -0.20341997803E+02  0.34903221508E+01  0.12356412720E+01  0.20676219019E+02  0.51100000000E-03 0.  1.
         12    1    3    3    0    0 -0.13982546970E+02  0.34581640732E+01  0.81581401627E+01  0.16553723733E+02  0.00000000000E+00 0. -1.
</event>
<event>
 7    1  0.2706925E-010  0.4778727E+02  0.7816164E-02  0.1312668E+00
        -11   -1    0    0    0    0  0.00000000000E+00  0.00000000000E+00  0.45593999997E+02  0.45594000000E+02  0.51100000000E-03 0.  1.
         11   -1    0    0    0    0 -0.00000000000E+00 -0.00000000000E+00 -0.45593999997E+02  0.45594000000E+02  0.51100000000E-03 0. -1.
    9900012    2    1    2    0    0  0.16682256255E+02  0.31666870095E+02  0.24546589045E+02  0.47787269947E+02  0.19999994998E+02 0.  0.
         12    1    1    2    0    0 -0.16682256255E+02 -0.31666870095E+02 -0.24546589045E+02  0.43400730053E+02  0.00000000000E+00 0. -1.
         11    1    3    3    0    0  0.13753395685E+01  0.14865717149E+02  0.43617142602E+01  0.15553316586E+02  0.51100000000E-03 0. -1.
        -11    1    3    3    0    0  0.15512836792E+02  0.15561973967E+02  0.14300359535E+02  0.26216853781E+02  0.51100000000E-03 0.  1.
        -12    1    3    3    0    0 -0.20592010636E+00  0.12391789791E+01  0.58845152493E+01  0.60170995797E+01  0.00000000000E+00 0.  1.
</event>
<event>
 7    1  0.2706925E-010  0.4778727E+02  0.7816164E-02  0.1312668E+00
        -11   -1    0    0    0    0  0.00000000000E+00  0.00000000000E+00  0.45593999997E+02  0.45594000000E+02  0.51100000000E-03 0.  1.
         11   -1    0    0    0    0 -0.00000000000E+00 -0.00000000000E+00 -0.45593999997E+02  0.45594000000E+02  0.51100000000E-03 0. -1.
    9900012    2    1    2    0    0  0.38321390423E+02 -0.20160375941E+02 -0.29416948380E+01  0.47787270852E+02  0.19999999125E+02 0.  0.
         12    1    1    2    0    0 -0.38321390423E+02  0.20160375941E+02  0.29416948380E+01  0.43400729148E+02  0.00000000000E+00 0. -1.
         11    1    3    3    0    0  0.20288452026E+02 -0.66655560762E+01 -0.85773705694E+01  0.23013522320E+02  0.51100000000E-03 0. -1.
        -11    1    3    3    0    0  0.15520782942E+02 -0.67492791658E+01  0.38355586571E+01  0.17353932778E+02  0.51100000000E-03 0.  1.
         12    1    3    3    0    0  0.25121554545E+01 -0.67455406989E+01  0.18001170743E+01  0.74198157544E+01  0.00000000000E+00 0. -1.
</event>
<event>
 7    1  0.2706925E-010  0.4778727E+02  0.7816164E-02  0.1312668E+00
        -11   -1    0    0    0    0  0.00000000000E+00  0.00000000000E+00  0.45593999997E+02  0.45594000000E+02  0.51100000000E-03 0.  1.
         11   -1    0    0    0    0 -0.00000000000E+00 -0.00000000000E+00 -0.45593999997E+02  0.45594000000E+02  0.51100000000E-03 0. -1.
    9900012    2    1    2    0    0  0.17100599359E+02  0.39833682562E+02 -0.21143268237E+01  0.47787272554E+02  0.20000006884E+02 0.  0.
         12    1    1    2    0    0 -0.17100599359E+02 -0.39833682562E+02  0.21143268237E+01  0.43400727446E+02  0.00000000000E+00 0. -1.
         11    1    3    3    0    0  0.20094737290E+02  0.34801929119E+02 -0.43443644105E+00  0.40189071555E+02  0.51100000000E-03 0. -1.
        -11    1    3    3    0    0 -0.20943450363E+01  0.27868454018E+01  0.13351433196E+01  0.37330143811E+01  0.51100000000E-03 0.  1.
         12    1    3    3    0    0 -0.89979289499E+00  0.22449080414E+01 -0.30150337022E+01  0.38651866182E+01  0.00000000000E+00 0. -1.
</event>
<event>
 7    1  0.2706925E-010  0.4778727E+02  0.7816164E-02  0.1312668E+00
        -11   -1    0    0    0    0  0.00000000000E+00  0.00000000000E+00  0.45593999997E+02  0.45594000000E+02  0.51100000000E-03 0.  1.
         11   -1    0    0    0    0 -0.00000000000E+00 -0.00000000000E+00 -0.45593999997E+02  0.45594000000E+02  0.51100000000E-03 0. -1.
    9900012    2    1    2    0    0  0.10005918925E+02  0.41109308146E+02  0.96710780545E+01  0.47787269816E+02  0.19999994398E+02 0.  0.
         12    1    1    2    0    0 -0.10005918925E+02 -0.41109308146E+02 -0.96710780545E+01  0.43400730184E+02  0.00000000000E+00 0. -1.
         11    1    3    3    0    0  0.11298548321E+02  0.18816196582E+02  0.65869207823E+01  0.22914929056E+02  0.51100000000E-03 0. -1.
        -11    1    3    3    0    0  0.55870896751E-01  0.15930537878E+02 -0.27127996464E+01  0.16159964135E+02  0.51100000000E-03 0.  1.
         12    1    3    3    0    0 -0.13485002924E+01  0.63625736854E+01  0.57969569186E+01  0.87123766250E+01  0.00000000000E+00 0. -1.
</event>
<event>
 7    1  0.2706925E-010  0.4778727E+02  0.7816164E-02  0.1312668E+00
        -11   -1    0    0    0    0  0.00000000000E+00  0.00000000000E+00  0.45593999997E+02  0.45594000000E+02  0.51100000000E-03 0.  1.
         11   -1    0    0    0    0 -0.00000000000E+00 -0.00000000000E+00 -0.45593999997E+02  0.45594000000E+02  0.51100000000E-03 0. -1.
    9900012    2    1    2    0    0  0.17860404948E+02 -0.93398386003E+01  0.38436916396E+02  0.47787271987E+02  0.20000004299E+02 0.  0.
         12    1    1    2    0    0 -0.17860404948E+02  0.93398386003E+01 -0.38436916396E+02  0.43400728013E+02  0.00000000000E+00 0. -1.
         11    1    3    3    0    0 -0.47279058243E+00 -0.18101005024E+01  0.23130051238E+01  0.29748928935E+01  0.51100000000E-03 0. -1.
        -11    1    3    3    0    0  0.37311922317E+01  0.25821953251E+01 -0.22818100992E-01  0.45376259315E+01  0.51100000000E-03 0.  1.
        -12    1    3    3    0    0  0.14602003299E+02 -0.10111933423E+02  0.36146729373E+02  0.40274753162E+02  0.00000000000E+00 0.  1.
</event>
<event>
 7    1  0.2706925E-010  0.4778727E+02  0.7816164E-02  0.1312668E+00
        -11   -1    0    0    0    0  0.00000000000E+00  0.00000000000E+00  0.45593999997E+02  0.45594000000E+02  0.51100000000E-03 0.  1.
         11   -1    0    0    0    0 -0.00000000000E+00 -0.00000000000E+00 -0.45593999997E+02  0.45594000000E+02  0.51100000000E-03 0. -1.
    9900012    2    1    2    0    0 -0.19344423459E+01  0.17843078246E+02  0.39515892858E+02  0.47787270780E+02  0.19999998794E+02 0.  0.
         12    1    1    2    0    0  0.19344423459E+01 -0.17843078246E+02 -0.39515892858E+02  0.43400729220E+02  0.00000000000E+00 0. -1.
         11    1    3    3    0    0  0.96028691372E+00 -0.19246097447E+01 -0.48521816133E+00  0.22049286953E+01  0.51100000000E-03 0. -1.
        -11    1    3    3    0    0 -0.38716307308E+01  0.74318510047E+01  0.23551886422E+02  0.24998265703E+02  0.51100000000E-03 0.  1.
         12    1    3    3    0    0  0.97690147124E+00  0.12335836986E+02  0.16449224598E+02  0.20584076382E+02  0.00000000000E+00 0. -1.
</event>
<event>
 7    1  0.2706925E-010  0.4778728E+02  0.7816164E-02  0.1312668E+00
        -11   -1    0    0    0    0  0.00000000000E+00  0.00000000000E+00  0.45593999997E+02  0.45594000000E+02  0.51100000000E-03 0.  1.
         11   -1    0    0    0    0 -0.00000000000E+00 -0.00000000000E+00 -0.45593999997E+02  0.45594000000E+02  0.51100000000E-03 0. -1.
    9900012    2    1    2    0    0 -0.22874575767E+02 -0.34143387620E+02  0.13950105339E+02  0.47787279112E+02  0.20000036781E+02 0.  0.
         12    1    1    2    0    0  0.22874575767E+02  0.34143387620E+02 -0.13950105339E+02  0.43400720888E+02  0.00000000000E+00 0. -1.
         11    1    3    3    0    0 -0.12550776107E+01 -0.35149212297E+01 -0.13962909539E+01  0.39849115108E+01  0.51100000000E-03 0. -1.
        -11    1    3    3    0    0 -0.11388690901E+02 -0.13573794931E+02 -0.14400636691E+01  0.17777063112E+02  0.51100000000E-03 0.  1.
        -12    1    3    3    0    0 -0.10230807255E+02 -0.17054671459E+02  0.16786459962E+02  0.26025304489E+02  0.00000000000E+00 0.  1.
</event>
<event>
 7    1  0.2706925E-010  0.4778728E+02  0.7816164E-02  0.1312668E+00
        -11   -1    0    0    0    0  0.00000000000E+00  0.00000000000E+00  0.45593999997E+02  0.45594000000E+02  0.51100000000E-03 0.  1.
         11   -1    0    0    0    0 -0.00000000000E+00 -0.00000000000E+00 -0.45593999997E+02  0.45594000000E+02  0.51100000000E-03 0. -1.
    9900012    2    1    2    0    0  0.23722285534E+02 -0.27596371518E+02  0.23649868994E+02  0.47787275866E+02  0.20000021985E+02 0.  0.
         12    1    1    2    0    0 -0.23722285534E+02  0.27596371518E+02 -0.23649868994E+02  0.43400724134E+02  0.00000000000E+00 0. -1.
         11    1    3    3    0    0  0.83187231647E+01  0.31783226028E+00  0.71001690232E+01  0.10941415487E+02  0.51100000000E-03 0. -1.
        -11    1    3    3    0    0  0.15917828088E+02 -0.23070594406E+02  0.13635409632E+02  0.31169760560E+02  0.51100000000E-03 0.  1.
         12    1    3    3    0    0 -0.51426571913E+00 -0.48436093721E+01  0.29142903386E+01  0.56760998192E+01  0.00000000000E+00 0. -1.
</event>
<event>
 7    1  0.3185669E-010  0.4778727E+02  0.7816164E-02  0.1312668E+00
        -11   -1    0    0    0    0  0.00000000000E+00  0.00000000000E+00  0.45593999997E+02  0.45594000000E+02  0.51100000000E-03 0. -1.
         11   -1    0    0    0    0 -0.00000000000E+00 -0.00000000000E+00 -0.45593999997E+02  0.45594000000E+02  0.51100000000E-03 0.  1.
    9900012    2    1    2    0    0  0.24935056030E+02  0.35521412468E+02  0.30914349366E+00  0.47787270367E+02  0.19999996912E+02 0.  0.
         12    1    1    2    0    0 -0.24935056030E+02 -0.35521412468E+02 -0.30914349366E+00  0.43400729633E+02  0.00000000000E+00 0. -1.
         11    1    3    3    0    0 -0.71750765902E+00  0.15967584057E+00 -0.25528687993E+01  0.26565867165E+01  0.51100000000E-03 0. -1.
        -11    1    3    3    0    0  0.20703238186E+02  0.25712309407E+02  0.65908610221E+01  0.33662833744E+02  0.51100000000E-03 0.  1.
        -12    1    3    3    0    0  0.49493255028E+01  0.96494272209E+01 -0.37288487291E+01  0.11467849906E+02  0.00000000000E+00 0.  1.
</event>
<event>
 7    1  0.2706925E-010  0.4778727E+02  0.7816164E-02  0.1312668E+00
        -11   -1    0    0    0    0  0.00000000000E+00  0.00000000000E+00  0.45593999997E+02  0.45594000000E+02  0.51100000000E-03 0. -1.
         11   -1    0    0    0    0 -0.00000000000E+00 -0.00000000000E+00 -0.45593999997E+02  0.45594000000E+02  0.51100000000E-03 0.  1.
    9900012    2    1    2    0    0  0.32561479674E+02 -0.17831076288E+02  0.22481687674E+02  0.47787268199E+02  0.19999987029E+02 0.  0.
         12    1    1    2    0    0 -0.32561479674E+02  0.17831076288E+02 -0.22481687674E+02  0.43400731801E+02  0.00000000000E+00 0. -1.
         11    1    3    3    0    0  0.24943721221E+02 -0.48560758292E+01  0.17478387383E+02  0.30842579766E+02  0.51100000000E-03 0. -1.
        -11    1    3    3    0    0  0.14869058436E+01 -0.60926056645E+01 -0.35821157560E+00  0.62816437789E+01  0.51100000000E-03 0.  1.
        -12    1    3    3    0    0  0.61308526092E+01 -0.68823947942E+01  0.53615118662E+01  0.10663044655E+02  0.00000000000E+00 0.  1.
</event>
<event>
 7    1  0.2706925E-010  0.4778727E+02  0.7816164E-02  0.1312668E+00
        -11   -1    0    0    0    0  0.00000000000E+00  0.00000000000E+00  0.45593999997E+02  0.45594000000E+02  0.51100000000E-03 0. -1.
         11   -1    0    0    0    0 -0.00000000000E+00 -0.00000000000E+00 -0.45593999997E+02  0.45594000000E+02  0.51100000000E-03 0.  1.
    9900012    2    1    2    0    0  0.36406396179E+02  0.23312117137E+02 -0.38396267000E+01  0.47787271650E+02  0.20000002759E+02 0.  0.
         12    1    1    2    0    0 -0.36406396179E+02 -0.23312117137E+02  0.38396267000E+01  0.43400728350E+02  0.00000000000E+00 0. -1.
         11    1    3    3    0    0  0.43005320893E+01 -0.13717107672E+00 -0.16583822379E+01  0.46112497290E+01  0.51100000000E-03 0.  1.
        -11    1    3    3    0    0  0.16576718289E+02  0.76058258629E+01  0.64872483577E+01  0.19357700478E+02  0.51100000000E-03 0. -1.
        -12    1    3    3    0    0  0.15529145801E+02  0.15843462351E+02 -0.86684928197E+01  0.23818321442E+02  0.00000000000E+00 0.  1.
</event>
<event>
 7    1  0.2706925E-010  0.4778728E+02  0.7816164E-02  0.1312668E+00
        -11   -1    0    0    0    0  0.00000000000E+00  0.00000000000E+00  0.45593999997E+02  0.45594000000E+02  0.51100000000E-03 0.  1.
         11   -1    0    0    0    0 -0.00000000000E+00 -0.00000000000E+00 -0.45593999997E+02  0.45594000000E+02  0.51100000000E-03 0. -1.
    9900012    2    1    2    0    0  0.23447972649E+01 -0.23052013115E+02  0.36697806084E+02  0.47787281639E+02  0.20000048303E+02 0.  0.
         12    1    1    2    0    0 -0.23447972649E+01  0.23052013115E+02 -0.36697806084E+02  0.43400718361E+02  0.00000000000E+00 0. -1.
         11    1    3    3    0    0  0.74057077612E+01 -0.10098423430E+02  0.92786116103E+01  0.15585740178E+02  0.51100000000E-03 0. -1.
        -11    1    3    3    0    0 -0.15026147554E+01 -0.13129525014E+02  0.22987151541E+02  0.26515116715E+02  0.51100000000E-03 0.  1.
         12    1    3    3    0    0 -0.35582957409E+01  0.17593532983E+00  0.44320429334E+01  0.56864247453E+01  0.00000000000E+00 0. -1.
</event>
<event>
 7    1  0.2706925E-010  0.4778727E+02  0.7816164E-02  0.1312668E+00
        -11   -1    0    0    0    0  0.00000000000E+00  0.00000000000E+00  0.45593999997E+02  0.45594000000E+02  0.51100000000E-03 0.  1.
         11   -1    0    0    0    0 -0.00000000000E+00 -0.00000000000E+00 -0.45593999997E+02  0.45594000000E+02  0.51100000000E-03 0. -1.
    9900012    2    1    2    0    0  0.43066623123E+02 -0.52994776127E+01  0.89705220548E+00  0.47787271978E+02  0.20000004255E+02 0.  0.
         12    1    1    2    0    0 -0.43066623123E+02  0.52994776127E+01 -0.89705220548E+00  0.43400728022E+02  0.00000000000E+00 0. -1.
         11    1    3    3    0    0  0.11624598600E+02  0.12071383310E+01  0.60773137599E+01  0.13172783243E+02  0.51100000000E-03 0. -1.
        -11    1    3    3    0    0  0.30424907205E+02 -0.88162037152E+01 -0.44515976325E+01  0.31987765601E+02  0.51100000000E-03 0.  1.
         12    1    3    3    0    0  0.10171173181E+01  0.23095877715E+01 -0.72866392196E+00  0.26267231343E+01  0.00000000000E+00 0. -1.
</event>
<event>
 7    1  0.2706925E-010  0.4778728E+02  0.7816164E-02  0.1312668E+00
        -11   -1    0    0    0    0  0.00000000000E+00  0.00000000000E+00  0.45593999997E+02  0.45594000000E+02  0.51100000000E-03 0. -1.
         11   -1    0    0    0    0 -0.00000000000E+00 -0.00000000000E+00 -0.45593999997E+02  0.45594000000E+02  0.51100000000E-03 0.  1.
    9900012    2    1    2    0    0 -0.11907488302E+02 -0.35299440405E+02 -0.22266208812E+02  0.47787276211E+02  0.20000023555E+02 0.  0.
         12    1    1    2    0    0  0.11907488302E+02  0.35299440405E+02  0.22266208812E+02  0.43400723789E+02  0.00000000000E+00 0. -1.
         11    1    3    3    0    0 -0.58727815537E+01 -0.41571790788E+01  0.28294363351E+00  0.72008165115E+01  0.51100000000E-03 0. -1.
        -11    1    3    3    0    0 -0.67619847599E+01 -0.31188677557E+02 -0.23319975379E+02  0.39525678964E+02  0.51100000000E-03 0.  1.
        -12    1    3    3    0    0  0.72727801119E+00  0.46416230798E-01  0.77082293372E+00  0.10607807347E+01  0.00000000000E+00 0.  1.
</event>
<event>
 7    1  0.2706925E-010  0.4778727E+02  0.7816164E-02  0.1312668E+00
        -11   -1    0    0    0    0  0.00000000000E+00  0.00000000000E+00  0.45593999997E+02  0.45594000000E+02  0.51100000000E-03 0.  1.
         11   -1    0    0    0    0 -0.00000000000E+00 -0.00000000000E+00 -0.45593999997E+02  0.45594000000E+02  0.51100000000E-03 0. -1.
    9900012    2    1    2    0    0  0.71208399712E+01  0.52802489852E+01  0.42485712795E+02  0.47787272092E+02  0.20000004775E+02 0.  0.
         12    1    1    2    0    0 -0.71208399712E+01 -0.52802489852E+01 -0.42485712795E+02  0.43400727908E+02  0.00000000000E+00 0. -1.
         11    1    3    3    0    0  0.44963895433E+00 -0.16002588099E+01  0.23508899486E+01  0.28791816996E+01  0.51100000000E-03 0. -1.
        -11    1    3    3    0    0 -0.47207962354E+01  0.70003489629E+01  0.21067732511E+02  0.22696699234E+02  0.51100000000E-03 0.  1.
        -12    1    3    3    0    0  0.11391997252E+02 -0.11984116783E+00  0.19067090335E+02  0.22211391158E+02  0.00000000000E+00 0.  1.
</event>
<event>
 7    1  0.2706925E-010  0.4778722E+02  0.7816164E-02  0.1312668E+00
        -11   -1    0    0    0    0  0.00000000000E+00  0.00000000000E+00  0.45593999997E+02  0.45594000000E+02  0.51100000000E-03 0.  1.
         11   -1    0    0    0    0 -0.00000000000E+00 -0.00000000000E+00 -0.45593999997E+02  0.45594000000E+02  0.51100000000E-03 0. -1.
    9900012    2    1    2    0    0  0.41947530008E+02 -0.63693574149E+00  0.11118760306E+02  0.47787218997E+02  0.19999762693E+02 0.  0.
         12    1    1    2    0    0 -0.41947530008E+02  0.63693574149E+00 -0.11118760306E+02  0.43400781003E+02  0.00000000000E+00 0. -1.
         11    1    3    3    0    0  0.39598250431E+01 -0.23343065343E+01  0.42690367241E+01  0.62732667870E+01  0.51100000000E-03 0. -1.
        -11    1    3    3    0    0  0.36909546157E+02  0.51763471384E+01  0.57675372182E+01  0.37714369317E+02  0.51100000000E-03 0.  1.
        -12    1    3    3    0    0  0.10781588086E+01 -0.34789763456E+01  0.10821863640E+01  0.37995828924E+01  0.00000000000E+00 0.  1.
</event>
<event>
 7    1  0.2706925E-010  0.4778727E+02  0.7816164E-02  0.1312668E+00
        -11   -1    0    0    0    0  0.00000000000E+00  0.00000000000E+00  0.45593999997E+02  0.45594000000E+02  0.51100000000E-03 0.  1.
         11   -1    0    0    0    0 -0.00000000000E+00 -0.00000000000E+00 -0.45593999997E+02  0.45594000000E+02  0.51100000000E-03 0. -1.
    9900012    2    1    2    0    0 -0.30824468609E+02  0.18519126487E+02  0.24300558016E+02  0.47787273845E+02  0.20000012768E+02 0.  0.
         12    1    1    2    0    0  0.30824468609E+02 -0.18519126487E+02 -0.24300558016E+02  0.43400726155E+02  0.00000000000E+00 0. -1.
         11    1    3    3    0    0 -0.71291841837E+01  0.78656622318E+01 -0.15930677531E+01  0.10734606402E+02  0.51100000000E-03 0. -1.
        -11    1    3    3    0    0 -0.12045262883E+02  0.27923017125E+01  0.10650454640E+02  0.16319236841E+02  0.51100000000E-03 0.  1.
         12    1    3    3    0    0 -0.11650021543E+02  0.78611625428E+01  0.15243171129E+02  0.20733430603E+02  0.00000000000E+00 0. -1.
</event>
<event>
 7    1  0.2706925E-010  0.4778728E+02  0.7816164E-02  0.1312668E+00
        -11   -1    0    0    0    0  0.00000000000E+00  0.00000000000E+00  0.45593999997E+02  0.45594000000E+02  0.51100000000E-03 0. -1.
         11   -1    0    0    0    0 -0.00000000000E+00 -0.00000000000E+00 -0.45593999997E+02  0.45594000000E+02  0.51100000000E-03 0.  1.
    9900012    2    1    2    0    0  0.43794855308E+01 -0.41122985522E+02 -0.13165980135E+02  0.47787275758E+02  0.20000021492E+02 0.  0.
         12    1    1    2    0    0 -0.43794855308E+01  0.41122985522E+02  0.13165980135E+02  0.43400724242E+02  0.00000000000E+00 0. -1.
         11    1    3    3    0    0 -0.23450205062E+01 -0.13251243297E+02 -0.35848680894E+01  0.13926444255E+02  0.51100000000E-03 0. -1.
        -11    1    3    3    0    0  0.44058543973E+01 -0.40319230123E-01 -0.24132865260E+00  0.44126430164E+01  0.51100000000E-03 0.  1.
        -12    1    3    3    0    0  0.23186516397E+01 -0.27831422995E+02 -0.93397833927E+01  0.29448188487E+02  0.00000000000E+00 0.  1.
</event>
<event>
 7    1  0.2706925E-010  0.4778727E+02  0.7816164E-02  0.1312668E+00
        -11   -1    0    0    0    0  0.00000000000E+00  0.00000000000E+00  0.45593999997E+02  0.45594000000E+02  0.51100000000E-03 0. -1.
         11   -1    0    0    0    0 -0.00000000000E+00 -0.00000000000E+00 -0.45593999997E+02  0.45594000000E+02  0.51100000000E-03 0.  1.
    9900012    2    1    2    0    0  0.26879613293E+02  0.26196990170E+02 -0.21790538957E+02  0.47787268522E+02  0.19999988501E+02 0.  0.
         12    1    1    2    0    0 -0.26879613293E+02 -0.26196990170E+02  0.21790538957E+02  0.43400731478E+02  0.00000000000E+00 0. -1.
         11    1    3    3    0    0  0.13736392804E+02  0.20071067367E+02 -0.91181063033E+01  0.25974527817E+02  0.51100000000E-03 0. -1.
        -11    1    3    3    0    0  0.65791365037E+01 -0.17390568637E+01 -0.81420511457E+01  0.10611425589E+02  0.51100000000E-03 0.  1.
        -12    1    3    3    0    0  0.65640839854E+01  0.78649796663E+01 -0.45303815085E+01  0.11201315116E+02  0.00000000000E+00 0.  1.
</event>
<event>
 7    1  0.2706925E-010  0.4778727E+02  0.7816164E-02  0.1312668E+00
        -11   -1    0    0    0    0  0.00000000000E+00  0.00000000000E+00  0.45593999997E+02  0.45594000000E+02  0.51100000000E-03 0.  1.
         11   -1    0    0    0    0 -0.00000000000E+00 -0.00000000000E+00 -0.45593999997E+02  0.45594000000E+02  0.51100000000E-03 0. -1.
    9900012    2    1    2    0    0 -0.99972379115E+01 -0.40138707940E+02  0.13136305393E+02  0.47787272353E+02  0.20000005965E+02 0.  0.
         12    1    1    2    0    0  0.99972379115E+01  0.40138707940E+02 -0.13136305393E+02  0.43400727647E+02  0.00000000000E+00 0. -1.
         11    1    3    3    0    0 -0.17341129445E+01  0.17637443814E+01 -0.51479263664E-01  0.24739830887E+01  0.51100000000E-03 0. -1.
        -11    1    3    3    0    0 -0.18614010654E+01 -0.27243741748E+02  0.72739301305E+01  0.28259446883E+02  0.51100000000E-03 0.  1.
         12    1    3    3    0    0 -0.64017239016E+01 -0.14658710573E+02  0.59138545262E+01  0.17053842381E+02  0.00000000000E+00 0. -1.
</event>
<event>
 7    1  0.2706925E-010  0.4778727E+02  0.7816164E-02  0.1312668E+00
        -11   -1    0    0    0    0  0.00000000000E+00  0.00000000000E+00  0.45593999997E+02  0.45594000000E+02  0.51100000000E-03 0.  1.
         11   -1    0    0    0    0 -0.00000000000E+00 -0.00000000000E+00 -0.45593999997E+02  0.45594000000E+02  0.51100000000E-03 0. -1.
    9900012    2    1    2    0    0  0.31016947867E+02 -0.29202410371E+02 -0.82940744043E+01  0.47787268478E+02  0.19999988297E+02 0.  0.
         12    1    1    2    0    0 -0.31016947867E+02  0.29202410371E+02  0.82940744043E+01  0.43400731522E+02  0.00000000000E+00 0. -1.
         11    1    3    3    0    0  0.15114861536E+02 -0.83579344839E+01  0.41585482519E+01  0.17765349192E+02  0.51100000000E-03 0. -1.
        -11    1    3    3    0    0  0.90635561010E+01 -0.16708535276E+02 -0.10794862286E+02  0.21859831937E+02  0.51100000000E-03 0.  1.
         12    1    3    3    0    0  0.68385302301E+01 -0.41359406105E+01 -0.16577603698E+01  0.81620873486E+01  0.00000000000E+00 0. -1.
</event>
<event>
 7    1  0.2706925E-010  0.4778727E+02  0.7816164E-02  0.1312668E+00
        -11   -1    0    0    0    0  0.00000000000E+00  0.00000000000E+00  0.45593999997E+02  0.45594000000E+02  0.51100000000E-03 0. -1.
         11   -1    0    0    0    0 -0.00000000000E+00 -0.00000000000E+00 -0.45593999997E+02  0.45594000000E+02  0.51100000000E-03 0.  1.
    9900012    2    1    2    0    0  0.14033950364E+02 -0.36305456113E+02 -0.19198580579E+02  0.47787269561E+02  0.19999993237E+02 0.  0.
         12    1    1    2    0    0 -0.14033950364E+02  0.36305456113E+02  0.19198580579E+02  0.43400730439E+02  0.00000000000E+00 0. -1.
         11    1    3    3    0    0 -0.28219263657E+01 -0.36416269074E+00 -0.12114810299E+01  0.30925021303E+01  0.51100000000E-03 0. -1.
        -11    1    3    3    0    0  0.67622340217E+01 -0.23223807401E+02 -0.73344090213E+01  0.25275810474E+02  0.51100000000E-03 0.  1.
        -12    1    3    3    0    0  0.10093642707E+02 -0.12717486021E+02 -0.10652690528E+02  0.19418956957E+02  0.00000000000E+00 0.  1.
</event>
<event>
 7    1  0.2706925E-010  0.4778728E+02  0.7816164E-02  0.1312668E+00
        -11   -1    0    0    0    0  0.00000000000E+00  0.00000000000E+00  0.45593999997E+02  0.45594000000E+02  0.51100000000E-03 0. -1.
         11   -1    0    0    0    0 -0.00000000000E+00 -0.00000000000E+00 -0.45593999997E+02  0.45594000000E+02  0.51100000000E-03 0.  1.
    9900012    2    1    2    0    0  0.23355129278E+02  0.31615991185E+02 -0.18400811771E+02  0.47787276089E+02  0.20000022998E+02 0.  0.
         12    1    1    2    0    0 -0.23355129278E+02 -0.31615991185E+02  0.18400811771E+02  0.43400723911E+02  0.00000000000E+00 0. -1.
         11    1    3    3    0    0  0.93677079867E+01  0.15795023873E+02 -0.62169786579E+01  0.19387819784E+02  0.51100000000E-03 0. -1.
        -11    1    3    3    0    0  0.16040266257E+02  0.15015064378E+02 -0.74893670009E+01  0.23212774893E+02  0.51100000000E-03 0.  1.
        -12    1    3    3    0    0 -0.20528449660E+01  0.80590293382E+00 -0.46944661119E+01  0.51866814120E+01  0.00000000000E+00 0.  1.
</event>
<event>
 7    1  0.2706925E-010  0.4778727E+02  0.7816164E-02  0.1312668E+00
        -11   -1    0    0    0    0  0.00000000000E+00  0.00000000000E+00  0.45593999997E+02  0.45594000000E+02  0.51100000000E-03 0.  1.
         11   -1    0    0    0    0 -0.00000000000E+00 -0.00000000000E+00 -0.45593999997E+02  0.45594000000E+02  0.51100000000E-03 0. -1.
    9900012    2    1    2    0    0 -0.36406173632E+02  0.22139109845E+02  0.82506731010E+01  0.47787271090E+02  0.20000000210E+02 0.  0.
         12    1    1    2    0    0  0.36406173632E+02 -0.22139109845E+02 -0.82506731010E+01  0.43400728910E+02  0.00000000000E+00 0. -1.
         11    1    3    3    0    0 -0.43764554874E+01 -0.35136891088E+00  0.38273259046E+01  0.58245383152E+01  0.51100000000E-03 0. -1.
        -11    1    3    3    0    0 -0.12677875314E+02  0.15909815739E+01  0.42935723708E+01  0.13479410551E+02  0.51100000000E-03 0.  1.
        -12    1    3    3    0    0 -0.19351842831E+02  0.20899497182E+02  0.12977482562E+00  0.28483322224E+02  0.00000000000E+00 0.  1.
</event>
<event>
 7    1  0.2706925E-010  0.4778727E+02  0.7816164E-02  0.1312668E+00
        -11   -1    0    0    0    0  0.00000000000E+00  0.00000000000E+00  0.45593999997E+02  0.45594000000E+02  0.51100000000E-03 0. -1.
         11   -1    0    0    0    0 -0.00000000000E+00 -0.00000000000E+00 -0.45593999997E+02  0.45594000000E+02  0.51100000000E-03 0.  1.
    9900012    2    1    2    0    0  0.29553660124E+02 -0.27191607537E+02  0.16456641709E+02  0.47787269551E+02  0.19999993189E+02 0.  0.
         12    1    1    2    0    0 -0.29553660124E+02  0.27191607537E+02 -0.16456641709E+02  0.43400730449E+02  0.00000000000E+00 0. -1.
         11    1    3    3    0    0  0.87297040967E+01 -0.83406139962E+01  0.14268557316E+02  0.18691316262E+02  0.51100000000E-03 0. -1.
        -11    1    3    3    0    0  0.16224078789E+02 -0.10056729533E+02  0.15401797063E+01  0.19150213974E+02  0.51100000000E-03 0.  1.
        -12    1    3    3    0    0  0.45998772390E+01 -0.87942640076E+01  0.64790468700E+00  0.99457393156E+01  0.00000000000E+00 0.  1.
</event>
<event>
 7    1  0.2706925E-010  0.4778726E+02  0.7816164E-02  0.1312668E+00
        -11   -1    0    0    0    0  0.00000000000E+00  0.00000000000E+00  0.45593999997E+02  0.45594000000E+02  0.51100000000E-03 0. -1.
         11   -1    0    0    0    0 -0.00000000000E+00 -0.00000000000E+00 -0.45593999997E+02  0.45594000000E+02  0.51100000000E-03 0.  1.
    9900012    2    1    2    0    0 -0.25952775816E+02 -0.14939592575E+02 -0.31414740382E+02  0.47787263691E+02  0.19999966473E+02 0.  0.
         12    1    1    2    0    0  0.25952775816E+02  0.14939592575E+02  0.31414740382E+02  0.43400736309E+02  0.00000000000E+00 0. -1.
         11    1    3    3    0    0 -0.43011561745E+01 -0.31114561342E+01 -0.10621846714E+02  0.11874541321E+02  0.51100000000E-03 0.  1.
        -11    1    3    3    0    0  0.96891867818E+00 -0.57779287301E+01 -0.44728640987E+01  0.73708735793E+01  0.51100000000E-03 0. -1.
        -12    1    3    3    0    0 -0.22620538320E+02 -0.60502077111E+01 -0.16320029569E+02  0.28541848790E+02  0.00000000000E+00 0.  1.
</event>
<event>
 7    1  0.2706925E-010  0.4778727E+02  0.7816164E-02  0.1312668E+00
        -11   -1    0    0    0    0  0.00000000000E+00  0.00000000000E+00  0.45593999997E+02  0.45594000000E+02  0.51100000000E-03 0.  1.
         11   -1    0    0    0    0 -0.00000000000E+00 -0.00000000000E+00 -0.45593999997E+02  0.45594000000E+02  0.51100000000E-03 0. -1.
    9900012    2    1    2    0    0  0.36847987988E+01 -0.21356511184E+02  0.37602465372E+02  0.47787265972E+02  0.19999976871E+02 0.  0.
         12    1    1    2    0    0 -0.36847987988E+01  0.21356511184E+02 -0.37602465372E+02  0.43400734028E+02  0.00000000000E+00 0. -1.
         11    1    3    3    0    0 -0.13204449964E+01 -0.16720919096E+01 -0.14230946636E+01  0.25621602263E+01  0.51100000000E-03 0. -1.
        -11    1    3    3    0    0 -0.18954767017E+00 -0.16911100261E+02  0.30255044735E+02  0.34661058445E+02  0.51100000000E-03 0.  1.
        -12    1    3    3    0    0  0.51947914654E+01 -0.27733190133E+01  0.87705153010E+01  0.10564047300E+02  0.00000000000E+00 0.  1.
</event>
<event>
 7    1  0.2706925E-010  0.4778727E+02  0.7816164E-02  0.1312668E+00
        -11   -1    0    0    0    0  0.00000000000E+00  0.00000000000E+00  0.45593999997E+02  0.45594000000E+02  0.51100000000E-03 0.  1.
         11   -1    0    0    0    0 -0.00000000000E+00 -0.00000000000E+00 -0.45593999997E+02  0.45594000000E+02  0.51100000000E-03 0. -1.
    9900012    2    1    2    0    0  0.25286511212E+02  0.76654128845E+01  0.34430467920E+02  0.47787270454E+02  0.19999997306E+02 0.  0.
         12    1    1    2    0    0 -0.25286511212E+02 -0.76654128845E+01 -0.34430467920E+02  0.43400729546E+02  0.00000000000E+00 0. -1.
         11    1    3    3    0    0  0.99386506810E+01 -0.58672413786E+01  0.13465915033E+02  0.17735054742E+02  0.51100000000E-03 0. -1.
        -11    1    3    3    0    0  0.15020758432E+02  0.12289057605E+02  0.21203550550E+02  0.28744298163E+02  0.51100000000E-03 0.  1.
         12    1    3    3    0    0  0.32710209908E+00  0.12435966583E+01 -0.23899766328E+00  0.13079175490E+01  0.00000000000E+00 0. -1.
</event>
<event>
 7    1  0.2706925E-010  0.4778727E+02  0.7816164E-02  0.1312668E+00
        -11   -1    0    0    0    0  0.00000000000E+00  0.00000000000E+00  0.45593999997E+02  0.45594000000E+02  0.51100000000E-03 0.  1.
         11   -1    0    0    0    0 -0.00000000000E+00 -0.00000000000E+00 -0.45593999997E+02  0.45594000000E+02  0.51100000000E-03 0. -1.
    9900012    2    1    2    0    0 -0.33556798639E+02 -0.41852381120E+01  0.27203824095E+02  0.47787274219E+02  0.20000014473E+02 0.  0.
         12    1    1    2    0    0  0.33556798639E+02  0.41852381120E+01 -0.27203824095E+02  0.43400725781E+02  0.00000000000E+00 0. -1.
         11    1    3    3    0    0 -0.80618247515E+00 -0.46300748544E+01  0.38253233514E+01  0.60597543139E+01  0.51100000000E-03 0. -1.
        -11    1    3    3    0    0 -0.22501030389E+02  0.53235357723E+01  0.14246794849E+02  0.27158931595E+02  0.51100000000E-03 0.  1.
        -12    1    3    3    0    0 -0.10249585775E+02 -0.48786990299E+01  0.91317058952E+01  0.14568588310E+02  0.00000000000E+00 0.  1.
</event>
<event>
 7    1  0.2706925E-010  0.4778727E+02  0.7816164E-02  0.1312668E+00
        -11   -1    0    0    0    0  0.00000000000E+00  0.00000000000E+00  0.45593999997E+02  0.45594000000E+02  0.51100000000E-03 0.  1.
         11   -1    0    0    0    0 -0.00000000000E+00 -0.00000000000E+00 -0.45593999997E+02  0.45594000000E+02  0.51100000000E-03 0. -1.
    9900012    2    1    2    0    0 -0.11285546074E+01 -0.23747432717E+02  0.36309910392E+02  0.47787265112E+02  0.19999972950E+02 0.  0.
         12    1    1    2    0    0  0.11285546074E+01  0.23747432717E+02 -0.36309910392E+02  0.43400734888E+02  0.00000000000E+00 0. -1.
         11    1    3    3    0    0 -0.71999847092E+01 -0.60316139492E+01  0.62267477315E+01  0.11269096424E+02  0.51100000000E-03 0. -1.
        -11    1    3    3    0    0  0.57437031718E+01 -0.14337424784E+02  0.29164462561E+02  0.33001784078E+02  0.51100000000E-03 0.  1.
        -12    1    3    3    0    0  0.32772693002E+00 -0.33783939838E+01  0.91870009948E+00  0.35163846097E+01  0.00000000000E+00 0.  1.
</event>
<event>
 7    1  0.2706925E-010  0.4778730E+02  0.7816164E-02  0.1312668E+00
        -11   -1    0    0    0    0  0.00000000000E+00  0.00000000000E+00  0.45593999997E+02  0.45594000000E+02  0.51100000000E-03 0.  1.
         11   -1    0    0    0    0 -0.00000000000E+00 -0.00000000000E+00 -0.45593999997E+02  0.45594000000E+02  0.51100000000E-03 0. -1.
    9900012    2    1    2    0    0 -0.37897984200E+02  0.20927412646E+02  0.30670626863E+01  0.47787300927E+02  0.20000136247E+02 0.  0.
         12    1    1    2    0    0  0.37897984200E+02 -0.20927412646E+02 -0.30670626863E+01  0.43400699073E+02  0.00000000000E+00 0. -1.
         11    1    3    3    0    0 -0.12372747074E+01 -0.31623263782E-01 -0.19561927540E+01  0.23148518494E+01  0.51100000000E-03 0. -1.
        -11    1    3    3    0    0 -0.27783724966E+00 -0.24348826180E+00 -0.26442937531E+01  0.26699756150E+01  0.51100000000E-03 0.  1.
        -12    1    3    3    0    0 -0.36382872243E+02  0.21202524172E+02  0.76675491935E+01  0.42802473463E+02  0.00000000000E+00 0.  1.
</event>
<event>
 7    1  0.2706925E-010  0.4778727E+02  0.7816164E-02  0.1312668E+00
        -11   -1    0    0    0    0  0.00000000000E+00  0.00000000000E+00  0.45593999997E+02  0.45594000000E+02  0.51100000000E-03 0. -1.
         11   -1    0    0    0    0 -0.00000000000E+00 -0.00000000000E+00 -0.45593999997E+02  0.45594000000E+02  0.51100000000E-03 0.  1.
    9900012    2    1    2    0    0 -0.13450617342E+02  0.40176874296E+02  0.94086540256E+01  0.47787272983E+02  0.20000008838E+02 0.  0.
         12    1    1    2    0    0  0.13450617342E+02 -0.40176874296E+02 -0.94086540256E+01  0.43400727017E+02  0.00000000000E+00 0. -1.
         11    1    3    3    0    0 -0.16644480472E+01 -0.45167995487E+00 -0.40757936556E+00  0.17721521616E+01  0.51100000000E-03 0. -1.
        -11    1    3    3    0    0 -0.99870885272E+00  0.19894528629E+02 -0.16381535693E+01  0.19986826565E+02  0.51100000000E-03 0.  1.
        -12    1    3    3    0    0 -0.10787460442E+02  0.20734025621E+02  0.11454386960E+02  0.26028294256E+02  0.00000000000E+00 0.  1.
</event>
<event>
 7    1  0.2706925E-010  0.4778727E+02  0.7816164E-02  0.1312668E+00
        -11   -1    0    0    0    0  0.00000000000E+00  0.00000000000E+00  0.45593999997E+02  0.45594000000E+02  0.51100000000E-03 0. -1.
         11   -1    0    0    0    0 -0.00000000000E+00 -0.00000000000E+00 -0.45593999997E+02  0.45594000000E+02  0.51100000000E-03 0.  1.
    9900012    2    1    2    0    0  0.40177158658E+02  0.15228350512E+02  0.61251005086E+01  0.47787267364E+02  0.19999983218E+02 0.  0.
         12    1    1    2    0    0 -0.40177158658E+02 -0.15228350512E+02 -0.61251005086E+01  0.43400732636E+02  0.00000000000E+00 0. -1.
         11    1    3    3    0    0  0.22185630052E+02  0.11423976992E+02  0.11350171548E+01  0.24979945863E+02  0.51100000000E-03 0. -1.
        -11    1    3    3    0    0 -0.64057650608E+00  0.14500388861E+00  0.37192377103E+01  0.37767835250E+01  0.51100000000E-03 0.  1.
        -12    1    3    3    0    0  0.18632105112E+02  0.36593696311E+01  0.12708456434E+01  0.19030537976E+02  0.00000000000E+00 0.  1.
</event>
<event>
 7    1  0.2706925E-010  0.4778725E+02  0.7816164E-02  0.1312668E+00
        -11   -1    0    0    0    0  0.00000000000E+00  0.00000000000E+00  0.45593999997E+02  0.45594000000E+02  0.51100000000E-03 0.  1.
         11   -1    0    0    0    0 -0.00000000000E+00 -0.00000000000E+00 -0.45593999997E+02  0.45594000000E+02  0.51100000000E-03 0. -1.
    9900012    2    1    2    0    0  0.80695492776E+00  0.25061800374E+02  0.35424280603E+02  0.47787254954E+02  0.19999926639E+02 0.  0.
         12    1    1    2    0    0 -0.80695492776E+00 -0.25061800374E+02 -0.35424280603E+02  0.43400745046E+02  0.00000000000E+00 0. -1.
         11    1    3    3    0    0  0.12395710841E+01 -0.81209963019E+00  0.10058327169E+01  0.17910170288E+01  0.51100000000E-03 0. -1.
        -11    1    3    3    0    0  0.52102766498E+01  0.12606908786E+02  0.77727307527E+01  0.15700206225E+02  0.51100000000E-03 0.  1.
        -12    1    3    3    0    0 -0.56428928061E+01  0.13266991218E+02  0.26645717134E+02  0.30296031700E+02  0.00000000000E+00 0.  1.
</event>
<event>
 7    1  0.2706925E-010  0.4778727E+02  0.7816164E-02  0.1312668E+00
        -11   -1    0    0    0    0  0.00000000000E+00  0.00000000000E+00  0.45593999997E+02  0.45594000000E+02  0.51100000000E-03 0. -1.
         11   -1    0    0    0    0 -0.00000000000E+00 -0.00000000000E+00 -0.45593999997E+02  0.45594000000E+02  0.51100000000E-03 0.  1.
    9900012    2    1    2    0    0 -0.75899966081E+01  0.37020988276E+02  0.21341556643E+02  0.47787266581E+02  0.19999979648E+02 0.  0.
         12    1    1    2    0    0  0.75899966081E+01 -0.37020988276E+02 -0.21341556643E+02  0.43400733419E+02  0.00000000000E+00 0. -1.
         11    1    3    3    0    0 -0.97259569943E+01  0.71696705577E+01  0.74203155124E+01  0.14179545054E+02  0.51100000000E-03 0. -1.
        -11    1    3    3    0    0  0.22600685654E+01  0.24019772625E+02  0.13757068091E+02  0.27772545969E+02  0.51100000000E-03 0.  1.
        -12    1    3    3    0    0 -0.12410817934E+00  0.58315450924E+01  0.16417303936E+00  0.58351755579E+01  0.00000000000E+00 0.  1.
</event>
<event>
 7    1  0.2706925E-010  0.4778729E+02  0.7816164E-02  0.1312668E+00
        -11   -1    0    0    0    0  0.00000000000E+00  0.00000000000E+00  0.45593999997E+02  0.45594000000E+02  0.51100000000E-03 0.  1.
         11   -1    0    0    0    0 -0.00000000000E+00 -0.00000000000E+00 -0.45593999997E+02  0.45594000000E+02  0.51100000000E-03 0. -1.
    9900012    2    1    2    0    0 -0.35858347117E+02  0.24442281074E+02 -0.61295933223E+00  0.47787287089E+02  0.20000073152E+02 0.  0.
         12    1    1    2    0    0  0.35858347117E+02 -0.24442281074E+02  0.61295933223E+00  0.43400712911E+02  0.00000000000E+00 0. -1.
         11    1    3    3    0    0 -0.19977218023E+02  0.34702236954E+01 -0.75446515279E+00  0.20290414248E+02  0.51100000000E-03 0. -1.
        -11    1    3    3    0    0 -0.12132402552E+02  0.19961714415E+02  0.14378190542E+01  0.23403686846E+02  0.51100000000E-03 0.  1.
        -12    1    3    3    0    0 -0.37487265419E+01  0.10103429640E+01 -0.12963132336E+01  0.40931859951E+01  0.00000000000E+00 0.  1.
</event>
<event>
 7    1  0.2706925E-010  0.4778726E+02  0.7816164E-02  0.1312668E+00
        -11   -1    0    0    0    0  0.00000000000E+00  0.00000000000E+00  0.45593999997E+02  0.45594000000E+02  0.51100000000E-03 0.  1.
         11   -1    0    0    0    0 -0.00000000000E+00 -0.00000000000E+00 -0.45593999997E+02  0.45594000000E+02  0.51100000000E-03 0. -1.
    9900012    2    1    2    0    0 -0.23213577224E+02  0.30673081615E+02  0.20097669428E+02  0.47787257844E+02  0.19999939812E+02 0.  0.
         12    1    1    2    0    0  0.23213577224E+02 -0.30673081615E+02 -0.20097669428E+02  0.43400742156E+02  0.00000000000E+00 0. -1.
         11    1    3    3    0    0 -0.17446350991E+01  0.30683160152E+01  0.10463243284E+01  0.36814548292E+01  0.51100000000E-03 0. -1.
        -11    1    3    3    0    0 -0.15455034121E+02  0.79533843166E+01  0.15421805371E+02  0.23236748545E+02  0.51100000000E-03 0.  1.
        -12    1    3    3    0    0 -0.60139080045E+01  0.19651381283E+02  0.36295397280E+01  0.20869054470E+02  0.00000000000E+00 0.  1.
</event>
<event>
 7    1  0.2706925E-010  0.4778727E+02  0.7816164E-02  0.1312668E+00
        -11   -1    0    0    0    0  0.00000000000E+00  0.00000000000E+00  0.45593999997E+02  0.45594000000E+02  0.51100000000E-03 0.  1.
         11   -1    0    0    0    0 -0.00000000000E+00 -0.00000000000E+00 -0.45593999997E+02  0.45594000000E+02  0.51100000000E-03 0. -1.
    9900012    2    1    2    0    0 -0.30904011736E+02 -0.30470528714E+02 -0.33529003762E+00  0.47787268659E+02  0.19999989124E+02 0.  0.
         12    1    1    2    0    0  0.30904011736E+02  0.30470528714E+02  0.33529003762E+00  0.43400731341E+02  0.00000000000E+00 0. -1.
         11    1    3    3    0    0  0.15853105317E+00 -0.87478015554E+00 -0.31270108812E+00  0.94241957056E+00  0.51100000000E-03 0. -1.
        -11    1    3    3    0    0 -0.17923401001E+01 -0.10070189759E+02 -0.48677982028E+01  0.11327694577E+02  0.51100000000E-03 0.  1.
        -12    1    3    3    0    0 -0.29270202689E+02 -0.19525558799E+02  0.48452092533E+01  0.35517154512E+02  0.00000000000E+00 0.  1.
</event>
<event>
 7    1  0.2706925E-010  0.4778727E+02  0.7816164E-02  0.1312668E+00
        -11   -1    0    0    0    0  0.00000000000E+00  0.00000000000E+00  0.45593999997E+02  0.45594000000E+02  0.51100000000E-03 0. -1.
         11   -1    0    0    0    0 -0.00000000000E+00 -0.00000000000E+00 -0.45593999997E+02  0.45594000000E+02  0.51100000000E-03 0.  1.
    9900012    2    1    2    0    0 -0.17081711271E+02 -0.48784130883E+00 -0.39894867794E+02  0.47787270451E+02  0.19999997296E+02 0.  0.
         12    1    1    2    0    0  0.17081711271E+02  0.48784130883E+00  0.39894867794E+02  0.43400729549E+02  0.00000000000E+00 0. -1.
         11    1    3    3    0    0 -0.32917757742E+00 -0.23609115418E+01 -0.23855468979E+02  0.23974270827E+02  0.51100000000E-03 0. -1.
        -11    1    3    3    0    0 -0.10414615610E+02 -0.12428666628E+01 -0.86960051389E+01  0.13624589589E+02  0.51100000000E-03 0.  1.
         12    1    3    3    0    0 -0.63379180838E+01  0.31159368958E+01 -0.73433936753E+01  0.10188410035E+02  0.00000000000E+00 0. -1.
</event>
<event>
 7    1  0.2706925E-010  0.4778728E+02  0.7816164E-02  0.1312668E+00
        -11   -1    0    0    0    0  0.00000000000E+00  0.00000000000E+00  0.45593999997E+02  0.45594000000E+02  0.51100000000E-03 0. -1.
         11   -1    0    0    0    0 -0.00000000000E+00 -0.00000000000E+00 -0.45593999997E+02  0.45594000000E+02  0.51100000000E-03 0.  1.
    9900012    2    1    2    0    0 -0.97146782124E+01 -0.35910263574E+02 -0.22353983351E+02  0.47787279103E+02  0.20000036742E+02 0.  0.
         12    1    1    2    0    0  0.97146782124E+01  0.35910263574E+02  0.22353983351E+02  0.43400720897E+02  0.00000000000E+00 0. -1.
         11    1    3    3    0    0 -0.10372207876E+02 -0.24590833034E+02 -0.18621173563E+02  0.32542892783E+02  0.51100000000E-03 0. -1.
        -11    1    3    3    0    0 -0.18107336160E+00 -0.74788782364E+01  0.24894371087E+01  0.78843962747E+01  0.51100000000E-03 0.  1.
         12    1    3    3    0    0  0.83860302486E+00 -0.38405523029E+01 -0.62222468969E+01  0.73599900456E+01  0.00000000000E+00 0. -1.
</event>
<event>
 7    1  0.2706925E-010  0.4778727E+02  0.7816164E-02  0.1312668E+00
        -11   -1    0    0    0    0  0.00000000000E+00  0.00000000000E+00  0.45593999997E+02  0.45594000000E+02  0.51100000000E-03 0. -1.
         11   -1    0    0    0    0 -0.00000000000E+00 -0.00000000000E+00 -0.45593999997E+02  0.45594000000E+02  0.51100000000E-03 0.  1.
    9900012    2    1    2    0    0  0.39579956276E+02  0.10418297651E+02  0.14439868980E+02  0.47787266355E+02  0.19999978621E+02 0.  0.
         12    1    1    2    0    0 -0.39579956276E+02 -0.10418297651E+02 -0.14439868980E+02  0.43400733645E+02  0.00000000000E+00 0. -1.
         11    1    3    3    0    0 -0.24814989056E-01  0.35902515008E+00 -0.29806847570E-01  0.36111431896E+00  0.51100000000E-03 0. -1.
        -11    1    3    3    0    0  0.20623263468E+02  0.10180587238E+02  0.16543811360E+02  0.28331273306E+02  0.51100000000E-03 0.  1.
        -12    1    3    3    0    0  0.18981507797E+02 -0.12131473693E+00 -0.20741355327E+01  0.19094878730E+02  0.00000000000E+00 0.  1.
</event>
<event>
 7    1  0.2706925E-010  0.4778727E+02  0.7816164E-02  0.1312668E+00
        -11   -1    0    0    0    0  0.00000000000E+00  0.00000000000E+00  0.45593999997E+02  0.45594000000E+02  0.51100000000E-03 0. -1.
         11   -1    0    0    0    0 -0.00000000000E+00 -0.00000000000E+00 -0.45593999997E+02  0.45594000000E+02  0.51100000000E-03 0.  1.
    9900012    2    1    2    0    0  0.17565269909E+02  0.10509108220E+02 -0.38270656875E+02  0.47787271432E+02  0.20000001768E+02 0.  0.
         12    1    1    2    0    0 -0.17565269909E+02 -0.10509108220E+02  0.38270656875E+02  0.43400728568E+02  0.00000000000E+00 0. -1.
         11    1    3    3    0    0  0.13634766571E+02  0.10136597437E+02 -0.19343841023E+02  0.25745711348E+02  0.51100000000E-03 0. -1.
        -11    1    3    3    0    0  0.57586964256E+01 -0.85032211272E+00 -0.18968597285E+02  0.19841706465E+02  0.51100000000E-03 0.  1.
         12    1    3    3    0    0 -0.18281930880E+01  0.12228328961E+01  0.41781432421E-01  0.21998536194E+01  0.00000000000E+00 0. -1.
</event>
<event>
 7    1  0.2706925E-010  0.4778727E+02  0.7816164E-02  0.1312668E+00
        -11   -1    0    0    0    0  0.00000000000E+00  0.00000000000E+00  0.45593999997E+02  0.45594000000E+02  0.51100000000E-03 0. -1.
         11   -1    0    0    0    0 -0.00000000000E+00 -0.00000000000E+00 -0.45593999997E+02  0.45594000000E+02  0.51100000000E-03 0.  1.
    9900012    2    1    2    0    0  0.24541416292E+02  0.10893825046E+02 -0.34097906343E+02  0.47787265504E+02  0.19999974741E+02 0.  0.
         12    1    1    2    0    0 -0.24541416292E+02 -0.10893825046E+02  0.34097906343E+02  0.43400734496E+02  0.00000000000E+00 0. -1.
         11    1    3    3    0    0  0.41953496216E+01  0.35941642307E+01 -0.78902190704E+01  0.96319537066E+01  0.51100000000E-03 0. -1.
        -11    1    3    3    0    0 -0.96599351024E+00  0.52800478475E+01 -0.98351607338E+01  0.11204572087E+02  0.51100000000E-03 0.  1.
        -12    1    3    3    0    0  0.21312060181E+02  0.20196129675E+01 -0.16372526539E+02  0.26950739711E+02  0.00000000000E+00 0.  1.
</event>
<event>
 7    1  0.2706925E-010  0.4778728E+02  0.7816164E-02  0.1312668E+00
        -11   -1    0    0    0    0  0.00000000000E+00  0.00000000000E+00  0.45593999997E+02  0.45594000000E+02  0.51100000000E-03 0.  1.
         11   -1    0    0    0    0 -0.00000000000E+00 -0.00000000000E+00 -0.45593999997E+02  0.45594000000E+02  0.51100000000E-03 0. -1.
    9900012    2    1    2    0    0  0.35820999380E+02 -0.88122011733E+01  0.22865345407E+02  0.47787275275E+02  0.20000019288E+02 0.  0.
         12    1    1    2    0    0 -0.35820999380E+02  0.88122011733E+01 -0.22865345407E+02  0.43400724725E+02  0.00000000000E+00 0. -1.
         11    1    3    3    0    0  0.24351416029E+02  0.30456693391E+01  0.13642139636E+02  0.28078025900E+02  0.51100000000E-03 0. -1.
        -11    1    3    3    0    0  0.10633237990E+02 -0.92962828426E+01  0.55995089114E+01  0.15193456656E+02  0.51100000000E-03 0.  1.
        -12    1    3    3    0    0  0.83634536152E+00 -0.25615876698E+01  0.36236968597E+01  0.45157927194E+01  0.00000000000E+00 0.  1.
</event>
<event>
 7    1  0.2706925E-010  0.4778731E+02  0.7816164E-02  0.1312668E+00
        -11   -1    0    0    0    0  0.00000000000E+00  0.00000000000E+00  0.45593999997E+02  0.45594000000E+02  0.51100000000E-03 0.  1.
         11   -1    0    0    0    0 -0.00000000000E+00 -0.00000000000E+00 -0.45593999997E+02  0.45594000000E+02  0.51100000000E-03 0. -1.
    9900012    2    1    2    0    0  0.20799452299E+02  0.10223474376E+02  0.36694457823E+02  0.47787310153E+02  0.20000178309E+02 0.  0.
         12    1    1    2    0    0 -0.20799452299E+02 -0.10223474376E+02 -0.36694457823E+02  0.43400689847E+02  0.00000000000E+00 0. -1.
         11    1    3    3    0    0 -0.73735340361E+00  0.23432919793E+00 -0.48169016695E+00  0.91138679652E+00  0.51100000000E-03 0. -1.
        -11    1    3    3    0    0  0.14294365242E+02  0.97138247836E+01  0.12970073304E+02  0.21608101984E+02  0.51100000000E-03 0.  1.
        -12    1    3    3    0    0  0.72424404611E+01  0.27532039492E+00  0.24206074686E+02  0.25267821372E+02  0.00000000000E+00 0.  1.
</event>
<event>
 7    1  0.2706925E-010  0.4778727E+02  0.7816164E-02  0.1312668E+00
        -11   -1    0    0    0    0  0.00000000000E+00  0.00000000000E+00  0.45593999997E+02  0.45594000000E+02  0.51100000000E-03 0.  1.
         11   -1    0    0    0    0 -0.00000000000E+00 -0.00000000000E+00 -0.45593999997E+02  0.45594000000E+02  0.51100000000E-03 0. -1.
    9900012    2    1    2    0    0 -0.23116478206E+02 -0.35034654387E+02 -0.11037433468E+02  0.47787268322E+02  0.19999987585E+02 0.  0.
         12    1    1    2    0    0  0.23116478206E+02  0.35034654387E+02  0.11037433468E+02  0.43400731678E+02  0.00000000000E+00 0. -1.
         11    1    3    3    0    0  0.18692320657E+01 -0.15544231769E+00 -0.46307966632E+00  0.19320025539E+01  0.51100000000E-03 0. -1.
        -11    1    3    3    0    0 -0.20235122874E+02 -0.34312252940E+02 -0.93713087158E+01  0.40922027404E+02  0.51100000000E-03 0.  1.
        -12    1    3    3    0    0 -0.47505873971E+01 -0.56695912943E+00 -0.12030450857E+01  0.49332383634E+01  0.00000000000E+00 0.  1.
</event>
<event>
 7    1  0.2706925E-010  0.4778727E+02  0.7816164E-02  0.1312668E+00
        -11   -1    0    0    0    0  0.00000000000E+00  0.00000000000E+00  0.45593999997E+02  0.45594000000E+02  0.51100000000E-03 0.  1.
         11   -1    0    0    0    0 -0.00000000000E+00 -0.00000000000E+00 -0.45593999997E+02  0.45594000000E+02  0.51100000000E-03 0. -1.
    9900012    2    1    2    0    0  0.29971222617E+02  0.25834264431E+02  0.17830864248E+02  0.47787272774E+02  0.20000007888E+02 0.  0.
         12    1    1    2    0    0 -0.29971222617E+02 -0.25834264431E+02 -0.17830864248E+02  0.43400727226E+02  0.00000000000E+00 0. -1.
         11    1    3    3    0    0 -0.13960352301E+01  0.71143563021E+01  0.16549552106E+01  0.74365218326E+01  0.51100000000E-03 0. -1.
        -11    1    3    3    0    0  0.19282098460E+02  0.13611566462E+02  0.12583856138E+02  0.26747476482E+02  0.51100000000E-03 0.  1.
         12    1    3    3    0    0  0.12085159387E+02  0.51083416675E+01  0.35920528994E+01  0.13603274460E+02  0.00000000000E+00 0. -1.
</event>
<event>
 7    1  0.2706925E-010  0.4778721E+02  0.7816164E-02  0.1312668E+00
        -11   -1    0    0    0    0  0.00000000000E+00  0.00000000000E+00  0.45593999997E+02  0.45594000000E+02  0.51100000000E-03 0. -1.
         11   -1    0    0    0    0 -0.00000000000E+00 -0.00000000000E+00 -0.45593999997E+02  0.45594000000E+02  0.51100000000E-03 0.  1.
    9900012    2    1    2    0    0  0.39522792988E+02  0.15584036097E+02  0.88721591027E+01  0.47787210217E+02  0.19999722661E+02 0.  0.
         12    1    1    2    0    0 -0.39522792988E+02 -0.15584036097E+02 -0.88721591027E+01  0.43400789783E+02  0.00000000000E+00 0. -1.
         11    1    3    3    0    0  0.43331056536E+01 -0.24487271687E+01  0.60693759093E+01  0.78491651494E+01  0.51100000000E-03 0. -1.
        -11    1    3    3    0    0  0.65528688702E+01  0.14172736577E+01 -0.78816468377E-01  0.67048465566E+01  0.51100000000E-03 0.  1.
         12    1    3    3    0    0  0.28636818464E+02  0.16615489608E+02  0.28815996618E+01  0.33233198511E+02  0.00000000000E+00 0. -1.
</event>
<event>
 7    1  0.2706925E-010  0.4778728E+02  0.7816164E-02  0.1312668E+00
        -11   -1    0    0    0    0  0.00000000000E+00  0.00000000000E+00  0.45593999997E+02  0.45594000000E+02  0.51100000000E-03 0. -1.
         11   -1    0    0    0    0 -0.00000000000E+00 -0.00000000000E+00 -0.45593999997E+02  0.45594000000E+02  0.51100000000E-03 0.  1.
    9900012    2    1    2    0    0  0.13439385385E+02  0.41076613345E+02  0.39645331390E+01  0.47787276891E+02  0.20000026655E+02 0.  0.
         12    1    1    2    0    0 -0.13439385385E+02 -0.41076613345E+02 -0.39645331390E+01  0.43400723109E+02  0.00000000000E+00 0. -1.
         11    1    3    3    0    0  0.50252634070E+01  0.11396487868E+02  0.80182545520E+01  0.14813021783E+02  0.51100000000E-03 0. -1.
        -11    1    3    3    0    0  0.49296784028E+01  0.28191573222E+02 -0.20618332615E+01  0.28693512970E+02  0.51100000000E-03 0.  1.
         12    1    3    3    0    0  0.34844435747E+01  0.14885522553E+01 -0.19918881514E+01  0.42807421377E+01  0.00000000000E+00 0. -1.
</event>
<event>
 7    1  0.2706925E-010  0.4778727E+02  0.7816164E-02  0.1312668E+00
        -11   -1    0    0    0    0  0.00000000000E+00  0.00000000000E+00  0.45593999997E+02  0.45594000000E+02  0.51100000000E-03 0.  1.
         11   -1    0    0    0    0 -0.00000000000E+00 -0.00000000000E+00 -0.45593999997E+02  0.45594000000E+02  0.51100000000E-03 0. -1.
    9900012    2    1    2    0    0 -0.13650263502E+02 -0.33577773487E+02  0.23871044735E+02  0.47787270251E+02  0.19999996381E+02 0.  0.
         12    1    1    2    0    0  0.13650263502E+02  0.33577773487E+02 -0.23871044735E+02  0.43400729749E+02  0.00000000000E+00 0. -1.
         11    1    3    3    0    0 -0.23757844133E+01 -0.12489775217E+02  0.25494521401E+01  0.12966824709E+02  0.51100000000E-03 0. -1.
        -11    1    3    3    0    0 -0.86058565154E+01 -0.71075484120E+01  0.16243908575E+02  0.19708946619E+02  0.51100000000E-03 0.  1.
        -12    1    3    3    0    0 -0.26686225736E+01 -0.13980449858E+02  0.50776840197E+01  0.15111498923E+02  0.00000000000E+00 0.  1.
</event>
<event>
 7    1  0.2706925E-010  0.4778728E+02  0.7816164E-02  0.1312668E+00
        -11   -1    0    0    0    0  0.00000000000E+00  0.00000000000E+00  0.45593999997E+02  0.45594000000E+02  0.51100000000E-03 0. -1.
         11   -1    0    0    0    0 -0.00000000000E+00 -0.00000000000E+00 -0.45593999997E+02  0.45594000000E+02  0.51100000000E-03 0.  1.
    9900012    2    1    2    0    0 -0.39867740647E+02 -0.10212400544E+01 -0.17121415265E+02  0.47787279542E+02  0.20000038744E+02 0.  0.
         12    1    1    2    0    0  0.39867740647E+02  0.10212400544E+01  0.17121415265E+02  0.43400720458E+02  0.00000000000E+00 0. -1.
         11    1    3    3    0    0 -0.18625182778E+02 -0.74010402727E+01 -0.10240610448E+02  0.22506508686E+02  0.51100000000E-03 0.  1.
        -11    1    3    3    0    0 -0.22234093884E+02  0.59078577593E+01 -0.72520914633E+01  0.24121578410E+02  0.51100000000E-03 0. -1.
         12    1    3    3    0    0  0.99153601452E+00  0.47194245901E+00  0.37128664632E+00  0.11591924458E+01  0.00000000000E+00 0. -1.
</event>
<event>
 7    1  0.2706925E-010  0.4778728E+02  0.7816164E-02  0.1312668E+00
        -11   -1    0    0    0    0  0.00000000000E+00  0.00000000000E+00  0.45593999997E+02  0.45594000000E+02  0.51100000000E-03 0.  1.
         11   -1    0    0    0    0 -0.00000000000E+00 -0.00000000000E+00 -0.45593999997E+02  0.45594000000E+02  0.51100000000E-03 0. -1.
    9900012    2    1    2    0    0  0.30157231026E+02  0.31201813163E+02  0.78152434154E+00  0.47787279867E+02  0.20000040226E+02 0.  0.
         12    1    1    2    0    0 -0.30157231026E+02 -0.31201813163E+02 -0.78152434154E+00  0.43400720133E+02  0.00000000000E+00 0. -1.
         11    1    3    3    0    0  0.52681101146E+01  0.13915902572E+02  0.12447227988E+01  0.14931666474E+02  0.51100000000E-03 0. -1.
        -11    1    3    3    0    0  0.14878836167E+02  0.28198037098E+01 -0.15945456584E+01  0.15227397504E+02  0.51100000000E-03 0.  1.
        -12    1    3    3    0    0  0.10010284744E+02  0.14466106880E+02  0.11313472011E+01  0.17628215889E+02  0.00000000000E+00 0.  1.
</event>
<event>
 7    1  0.2706925E-010  0.4778727E+02  0.7816164E-02  0.1312668E+00
        -11   -1    0    0    0    0  0.00000000000E+00  0.00000000000E+00  0.45593999997E+02  0.45594000000E+02  0.51100000000E-03 0.  1.
         11   -1    0    0    0    0 -0.00000000000E+00 -0.00000000000E+00 -0.45593999997E+02  0.45594000000E+02  0.51100000000E-03 0. -1.
    9900012    2    1    2    0    0 -0.16071019108E+02 -0.24971475389E+02  0.31650765836E+02  0.47787271708E+02  0.20000003023E+02 0.  0.
         12    1    1    2    0    0  0.16071019108E+02  0.24971475389E+02 -0.31650765836E+02  0.43400728292E+02  0.00000000000E+00 0. -1.
         11    1    3    3    0    0 -0.24078723953E+01 -0.17185526452E+02  0.97651151158E+01  0.19912248552E+02  0.51100000000E-03 0. -1.
        -11    1    3    3    0    0 -0.12915413926E+02 -0.45770643751E+01  0.15492114993E+02  0.20682433668E+02  0.51100000000E-03 0.  1.
         12    1    3    3    0    0 -0.74773278667E+00 -0.32088845626E+01  0.63935357268E+01  0.71925894882E+01  0.00000000000E+00 0. -1.
</event>
<event>
 7    1  0.2706925E-010  0.4778727E+02  0.7816164E-02  0.1312668E+00
        -11   -1    0    0    0    0  0.00000000000E+00  0.00000000000E+00  0.45593999997E+02  0.45594000000E+02  0.51100000000E-03 0. -1.
         11   -1    0    0    0    0 -0.00000000000E+00 -0.00000000000E+00 -0.45593999997E+02  0.45594000000E+02  0.51100000000E-03 0.  1.
    9900012    2    1    2    0    0  0.26598783026E+02  0.33507597003E+02  0.73054058832E+01  0.47787271084E+02  0.20000000179E+02 0.  0.
         12    1    1    2    0    0 -0.26598783026E+02 -0.33507597003E+02 -0.73054058832E+01  0.43400728916E+02  0.00000000000E+00 0. -1.
         11    1    3    3    0    0  0.71771323555E-01 -0.10576206748E+01 -0.37008733672E+00  0.11227989635E+01  0.51100000000E-03 0. -1.
        -11    1    3    3    0    0  0.27428702744E+02  0.30609945648E+02  0.95493015788E+01  0.42195872639E+02  0.51100000000E-03 0.  1.
        -12    1    3    3    0    0 -0.90169104227E+00  0.39552720292E+01 -0.18738083589E+01  0.44685994816E+01  0.00000000000E+00 0.  1.
</event>
<event>
 7    1  0.2706925E-010  0.4778727E+02  0.7816164E-02  0.1312668E+00
        -11   -1    0    0    0    0  0.00000000000E+00  0.00000000000E+00  0.45593999997E+02  0.45594000000E+02  0.51100000000E-03 0. -1.
         11   -1    0    0    0    0 -0.00000000000E+00 -0.00000000000E+00 -0.45593999997E+02  0.45594000000E+02  0.51100000000E-03 0.  1.
    9900012    2    1    2    0    0 -0.34009332183E+01  0.28689618009E+02  0.32387697898E+02  0.47787268400E+02  0.19999987942E+02 0.  0.
         12    1    1    2    0    0  0.34009332183E+01 -0.28689618009E+02 -0.32387697898E+02  0.43400731600E+02  0.00000000000E+00 0. -1.
         11    1    3    3    0    0 -0.72850656414E+01  0.11447993050E+02  0.89961713076E+01  0.16280657994E+02  0.51100000000E-03 0. -1.
        -11    1    3    3    0    0  0.66967479071E+01  0.16968676509E+02  0.19570626602E+02  0.26754286401E+02  0.51100000000E-03 0.  1.
        -12    1    3    3    0    0 -0.28126154841E+01  0.27294845106E+00  0.38208999889E+01  0.47523240044E+01  0.00000000000E+00 0.  1.
</event>
<event>
 7    1  0.2706925E-010  0.4778727E+02  0.7816164E-02  0.1312668E+00
        -11   -1    0    0    0    0  0.00000000000E+00  0.00000000000E+00  0.45593999997E+02  0.45594000000E+02  0.51100000000E-03 0.  1.
         11   -1    0    0    0    0 -0.00000000000E+00 -0.00000000000E+00 -0.45593999997E+02  0.45594000000E+02  0.51100000000E-03 0. -1.
    9900012    2    1    2    0    0  0.16552016606E+02  0.38628685580E+02  0.10838745383E+02  0.47787274144E+02  0.20000014130E+02 0.  0.
         12    1    1    2    0    0 -0.16552016606E+02 -0.38628685580E+02 -0.10838745383E+02  0.43400725856E+02  0.00000000000E+00 0. -1.
         11    1    3    3    0    0 -0.23035807397E+01  0.15814611501E+02  0.11715990937E+01  0.16024389719E+02  0.51100000000E-03 0. -1.
        -11    1    3    3    0    0  0.16526606462E+02  0.18680697350E+02  0.57154505560E+01  0.25588347933E+02  0.51100000000E-03 0.  1.
         12    1    3    3    0    0  0.23289908836E+01  0.41333767292E+01  0.39516957331E+01  0.61745364918E+01  0.00000000000E+00 0. -1.
</event>
<event>
 7    1  0.2706925E-010  0.4778727E+02  0.7816164E-02  0.1312668E+00
        -11   -1    0    0    0    0  0.00000000000E+00  0.00000000000E+00  0.45593999997E+02  0.45594000000E+02  0.51100000000E-03 0. -1.
         11   -1    0    0    0    0 -0.00000000000E+00 -0.00000000000E+00 -0.45593999997E+02  0.45594000000E+02  0.51100000000E-03 0.  1.
    9900012    2    1    2    0    0  0.21913588340E+02  0.36037260421E+02 -0.10233948545E+02  0.47787271948E+02  0.20000004120E+02 0.  0.
         12    1    1    2    0    0 -0.21913588340E+02 -0.36037260421E+02  0.10233948545E+02  0.43400728052E+02  0.00000000000E+00 0. -1.
         11    1    3    3    0    0  0.24517766449E+01  0.12472602919E+02  0.36231345932E+01  0.13217569248E+02  0.51100000000E-03 0. -1.
        -11    1    3    3    0    0  0.16471738249E+02  0.17997174705E+02 -0.14221735751E+02  0.28239586157E+02  0.51100000000E-03 0.  1.
        -12    1    3    3    0    0  0.29900734460E+01  0.55674827978E+01  0.36465261286E+00  0.63301165427E+01  0.00000000000E+00 0.  1.
</event>
<event>
 7    1  0.2706925E-010  0.4778727E+02  0.7816164E-02  0.1312668E+00
        -11   -1    0    0    0    0  0.00000000000E+00  0.00000000000E+00  0.45593999997E+02  0.45594000000E+02  0.51100000000E-03 0.  1.
         11   -1    0    0    0    0 -0.00000000000E+00 -0.00000000000E+00 -0.45593999997E+02  0.45594000000E+02  0.51100000000E-03 0. -1.
    9900012    2    1    2    0    0  0.62526704792E+01 -0.90133947624E+01  0.41991499017E+02  0.47787272322E+02  0.20000005824E+02 0.  0.
         12    1    1    2    0    0 -0.62526704792E+01  0.90133947624E+01 -0.41991499017E+02  0.43400727678E+02  0.00000000000E+00 0. -1.
         11    1    3    3    0    0 -0.63908792699E+00 -0.50297959941E+01  0.25228630749E+01  0.56632251833E+01  0.51100000000E-03 0. -1.
        -11    1    3    3    0    0  0.23472209604E+01  0.31106052893E+01  0.25615151070E+02  0.25909868315E+02  0.51100000000E-03 0.  1.
        -12    1    3    3    0    0  0.45445374458E+01 -0.70942040576E+01  0.13853484873E+02  0.16214178824E+02  0.00000000000E+00 0.  1.
</event>
<event>
 7    1  0.2706925E-010  0.4778727E+02  0.7816164E-02  0.1312668E+00
        -11   -1    0    0    0    0  0.00000000000E+00  0.00000000000E+00  0.45593999997E+02  0.45594000000E+02  0.51100000000E-03 0.  1.
         11   -1    0    0    0    0 -0.00000000000E+00 -0.00000000000E+00 -0.45593999997E+02  0.45594000000E+02  0.51100000000E-03 0. -1.
    9900012    2    1    2    0    0 -0.77928828223E+01 -0.34354813108E+02  0.25350364540E+02  0.47787272026E+02  0.20000004477E+02 0.  0.
         12    1    1    2    0    0  0.77928828223E+01  0.34354813108E+02 -0.25350364540E+02  0.43400727974E+02  0.00000000000E+00 0. -1.
         11    1    3    3    0    0 -0.10574919694E+02 -0.13331112577E+02  0.75586547835E+01  0.18619364959E+02  0.51100000000E-03 0.  1.
        -11    1    3    3    0    0 -0.22472984140E+01 -0.69537076088E+01  0.97950246422E+01  0.12220757246E+02  0.51100000000E-03 0. -1.
         12    1    3    3    0    0  0.50293352860E+01 -0.14069992922E+02  0.79966851143E+01  0.16947149821E+02  0.00000000000E+00 0. -1.
</event>
<event>
 7    1  0.2706925E-010  0.4778727E+02  0.7816164E-02  0.1312668E+00
        -11   -1    0    0    0    0  0.00000000000E+00  0.00000000000E+00  0.45593999997E+02  0.45594000000E+02  0.51100000000E-03 0.  1.
         11   -1    0    0    0    0 -0.00000000000E+00 -0.00000000000E+00 -0.45593999997E+02  0.45594000000E+02  0.51100000000E-03 0. -1.
    9900012    2    1    2    0    0 -0.20800145603E+02  0.38884324630E+01  0.37892705128E+02  0.47787273439E+02  0.20000010916E+02 0.  0.
         12    1    1    2    0    0  0.20800145603E+02 -0.38884324630E+01 -0.37892705128E+02  0.43400726561E+02  0.00000000000E+00 0. -1.
         11    1    3    3    0    0  0.41124603533E+00  0.95216175823E-01 -0.10755358676E+01  0.11554077572E+01  0.51100000000E-03 0. -1.
        -11    1    3    3    0    0 -0.17578528119E+02 -0.23293686588E+01  0.22182793301E+02  0.28399065619E+02  0.51100000000E-03 0.  1.
        -12    1    3    3    0    0 -0.36328635193E+01  0.61225849460E+01  0.16785447695E+02  0.18232800062E+02  0.00000000000E+00 0.  1.
</event>
<event>
 7    1  0.2706925E-010  0.4778726E+02  0.7816164E-02  0.1312668E+00
        -11   -1    0    0    0    0  0.00000000000E+00  0.00000000000E+00  0.45593999997E+02  0.45594000000E+02  0.51100000000E-03 0.  1.
         11   -1    0    0    0    0 -0.00000000000E+00 -0.00000000000E+00 -0.45593999997E+02  0.45594000000E+02  0.51100000000E-03 0. -1.
    9900012    2    1    2    0    0  0.23168386336E+01  0.19488638338E+02  0.38709809001E+02  0.47787261776E+02  0.19999957741E+02 0.  0.
         12    1    1    2    0    0 -0.23168386336E+01 -0.19488638338E+02 -0.38709809001E+02  0.43400738224E+02  0.00000000000E+00 0. -1.
         11    1    3    3    0    0  0.11961718646E+01  0.11656827129E+02  0.22763220905E+02  0.25602278650E+02  0.51100000000E-03 0. -1.
        -11    1    3    3    0    0  0.15189843007E+01  0.81355471756E+01  0.18138060148E+02  0.19936992434E+02  0.51100000000E-03 0.  1.
         12    1    3    3    0    0 -0.39831753175E+00 -0.30373596671E+00 -0.21914720519E+01  0.22479906912E+01  0.00000000000E+00 0. -1.
</event>
<event>
 7    1  0.2706925E-010  0.4778726E+02  0.7816164E-02  0.1312668E+00
        -11   -1    0    0    0    0  0.00000000000E+00  0.00000000000E+00  0.45593999997E+02  0.45594000000E+02  0.51100000000E-03 0.  1.
         11   -1    0    0    0    0 -0.00000000000E+00 -0.00000000000E+00 -0.45593999997E+02  0.45594000000E+02  0.51100000000E-03 0. -1.
    9900012    2    1    2    0    0  0.52925631297E+01  0.22980217684E+02  0.36435178821E+02  0.47787264004E+02  0.19999967898E+02 0.  0.
         12    1    1    2    0    0 -0.52925631297E+01 -0.22980217684E+02 -0.36435178821E+02  0.43400735996E+02  0.00000000000E+00 0. -1.
         11    1    3    3    0    0  0.12129559332E+01  0.46685927559E+00  0.46180886492E+00  0.13793068432E+01  0.51100000000E-03 0. -1.
        -11    1    3    3    0    0  0.46326608993E+01  0.13190370450E+02  0.63640041809E+01  0.15360597941E+02  0.51100000000E-03 0.  1.
        -12    1    3    3    0    0 -0.55305370279E+00  0.93229879580E+01  0.29609365776E+02  0.31047359219E+02  0.00000000000E+00 0.  1.
</event>
<event>
 7    1  0.2706925E-010  0.4778727E+02  0.7816164E-02  0.1312668E+00
        -11   -1    0    0    0    0  0.00000000000E+00  0.00000000000E+00  0.45593999997E+02  0.45594000000E+02  0.51100000000E-03 0. -1.
         11   -1    0    0    0    0 -0.00000000000E+00 -0.00000000000E+00 -0.45593999997E+02  0.45594000000E+02  0.51100000000E-03 0.  1.
    9900012    2    1    2    0    0  0.17894179120E+02  0.34376001989E+02 -0.19537458094E+02  0.47787269270E+02  0.19999991908E+02 0.  0.
         12    1    1    2    0    0 -0.17894179120E+02 -0.34376001989E+02  0.19537458094E+02  0.43400730730E+02  0.00000000000E+00 0. -1.
         11    1    3    3    0    0 -0.18711692649E+01  0.39774044097E+01  0.19078945968E+01  0.47917723557E+01  0.51100000000E-03 0. -1.
        -11    1    3    3    0    0  0.89304701228E+01  0.73306710608E+01 -0.45467899002E+01  0.12416333334E+02  0.51100000000E-03 0.  1.
         12    1    3    3    0    0  0.10834878262E+02  0.23067926519E+02 -0.16898562791E+02  0.30579163579E+02  0.00000000000E+00 0. -1.
</event>
<event>
 7    1  0.2706925E-010  0.4778728E+02  0.7816164E-02  0.1312668E+00
        -11   -1    0    0    0    0  0.00000000000E+00  0.00000000000E+00  0.45593999997E+02  0.45594000000E+02  0.51100000000E-03 0.  1.
         11   -1    0    0    0    0 -0.00000000000E+00 -0.00000000000E+00 -0.45593999997E+02  0.45594000000E+02  0.51100000000E-03 0. -1.
    9900012    2    1    2    0    0 -0.35559550584E+02  0.43871884050E+01  0.24492717839E+02  0.47787282415E+02  0.20000051841E+02 0.  0.
         12    1    1    2    0    0  0.35559550584E+02 -0.43871884050E+01 -0.24492717839E+02  0.43400717585E+02  0.00000000000E+00 0. -1.
         11    1    3    3    0    0 -0.15609672295E+02  0.34635663703E+01  0.15353208244E+02  0.22167073889E+02  0.51100000000E-03 0. -1.
        -11    1    3    3    0    0 -0.61384582508E+01  0.43884394594E+01  0.85004639826E+01  0.11366484011E+02  0.51100000000E-03 0.  1.
         12    1    3    3    0    0 -0.13811420038E+02 -0.34648174247E+01  0.63904561216E+00  0.14253724515E+02  0.00000000000E+00 0. -1.
</event>
<event>
 7    1  0.2706925E-010  0.4778727E+02  0.7816164E-02  0.1312668E+00
        -11   -1    0    0    0    0  0.00000000000E+00  0.00000000000E+00  0.45593999997E+02  0.45594000000E+02  0.51100000000E-03 0. -1.
         11   -1    0    0    0    0 -0.00000000000E+00 -0.00000000000E+00 -0.45593999997E+02  0.45594000000E+02  0.51100000000E-03 0.  1.
    9900012    2    1    2    0    0  0.42284131614E+02  0.90279439094E+01 -0.37645257306E+01  0.47787271763E+02  0.20000003275E+02 0.  0.
         12    1    1    2    0    0 -0.42284131614E+02 -0.90279439094E+01  0.37645257306E+01  0.43400728237E+02  0.00000000000E+00 0. -1.
         11    1    3    3    0    0  0.21988523392E+02  0.99247648654E+01  0.44328211398E+01  0.24528473701E+02  0.51100000000E-03 0. -1.
        -11    1    3    3    0    0  0.65459333148E+01 -0.39913645163E+01 -0.31484602962E+01  0.82881262154E+01  0.51100000000E-03 0.  1.
         12    1    3    3    0    0  0.13749674907E+02  0.30945435602E+01 -0.50488865742E+01  0.14970671846E+02  0.00000000000E+00 0. -1.
</event>
<event>
 7    1  0.2706925E-010  0.4778727E+02  0.7816164E-02  0.1312668E+00
        -11   -1    0    0    0    0  0.00000000000E+00  0.00000000000E+00  0.45593999997E+02  0.45594000000E+02  0.51100000000E-03 0.  1.
         11   -1    0    0    0    0 -0.00000000000E+00 -0.00000000000E+00 -0.45593999997E+02  0.45594000000E+02  0.51100000000E-03 0. -1.
    9900012    2    1    2    0    0  0.13295296862E+02 -0.36661859808E+02  0.19046420395E+02  0.47787274049E+02  0.20000013698E+02 0.  0.
         12    1    1    2    0    0 -0.13295296862E+02  0.36661859808E+02 -0.19046420395E+02  0.43400725951E+02  0.00000000000E+00 0. -1.
         11    1    3    3    0    0 -0.51381662659E+01 -0.80170978550E+01  0.39454275983E+01  0.10307327965E+02  0.51100000000E-03 0. -1.
        -11    1    3    3    0    0  0.93788503885E+01 -0.11455108162E+02  0.77184003555E+01  0.16695988798E+02  0.51100000000E-03 0.  1.
        -12    1    3    3    0    0  0.90546127389E+01 -0.17189653791E+02  0.73825924414E+01  0.20783957286E+02  0.00000000000E+00 0.  1.
</event>
<event>
 7    1  0.2706925E-010  0.4778728E+02  0.7816164E-02  0.1312668E+00
        -11   -1    0    0    0    0  0.00000000000E+00  0.00000000000E+00  0.45593999997E+02  0.45594000000E+02  0.51100000000E-03 0.  1.
         11   -1    0    0    0    0 -0.00000000000E+00 -0.00000000000E+00 -0.45593999997E+02  0.45594000000E+02  0.51100000000E-03 0. -1.
    9900012    2    1    2    0    0 -0.82227963048E+01  0.19614340979E+02  0.37832341873E+02  0.47787276012E+02  0.20000022649E+02 0.  0.
         12    1    1    2    0    0  0.82227963048E+01 -0.19614340979E+02 -0.37832341873E+02  0.43400723988E+02  0.00000000000E+00 0. -1.
         11    1    3    3    0    0 -0.28944159134E+01  0.34671496115E+01  0.22229078408E+02  0.22683269100E+02  0.51100000000E-03 0. -1.
        -11    1    3    3    0    0 -0.20925077387E+01  0.20379757845E-01  0.52925630513E+01  0.56912413307E+01  0.51100000000E-03 0.  1.
         12    1    3    3    0    0 -0.32358726527E+01  0.16126811610E+02  0.10310700413E+02  0.19412765582E+02  0.00000000000E+00 0. -1.
</event>
<event>
 7    1  0.2706925E-010  0.4778727E+02  0.7816164E-02  0.1312668E+00
        -11   -1    0    0    0    0  0.00000000000E+00  0.00000000000E+00  0.45593999997E+02  0.45594000000E+02  0.51100000000E-03 0.  1.
         11   -1    0    0    0    0 -0.00000000000E+00 -0.00000000000E+00 -0.45593999997E+02  0.45594000000E+02  0.51100000000E-03 0. -1.
    9900012    2    1    2    0    0 -0.17842609689E+02  0.35969893741E+02  0.16475175601E+02  0.47787269738E+02  0.19999994042E+02 0.  0.
         12    1    1    2    0    0  0.17842609689E+02 -0.35969893741E+02 -0.16475175601E+02  0.43400730262E+02  0.00000000000E+00 0. -1.
         11    1    3    3    0    0 -0.18321686631E+02  0.23955349171E+02  0.87762035894E+01  0.31409627578E+02  0.51100000000E-03 0. -1.
        -11    1    3    3    0    0 -0.17367061715E+01  0.54669879533E+01  0.75264492098E+01  0.94631677348E+01  0.51100000000E-03 0.  1.
         12    1    3    3    0    0  0.22157831136E+01  0.65475566165E+01  0.17252280133E+00  0.69144744247E+01  0.00000000000E+00 0. -1.
</event>
<event>
 7    1  0.2706925E-010  0.4778727E+02  0.7816164E-02  0.1312668E+00
        -11   -1    0    0    0    0  0.00000000000E+00  0.00000000000E+00  0.45593999997E+02  0.45594000000E+02  0.51100000000E-03 0.  1.
         11   -1    0    0    0    0 -0.00000000000E+00 -0.00000000000E+00 -0.45593999997E+02  0.45594000000E+02  0.51100000000E-03 0. -1.
    9900012    2    1    2    0    0  0.25423981248E+02 -0.26479833482E+02  0.23153031738E+02  0.47787270946E+02  0.19999999551E+02 0.  0.
         12    1    1    2    0    0 -0.25423981248E+02  0.26479833482E+02 -0.23153031738E+02  0.43400729054E+02  0.00000000000E+00 0. -1.
         11    1    3    3    0    0  0.12344390698E+02 -0.51915932288E+01  0.31422305027E+01  0.13755371124E+02  0.51100000000E-03 0. -1.
        -11    1    3    3    0    0  0.11451417313E+02 -0.22310175070E+02  0.16468170161E+02  0.30001324952E+02  0.51100000000E-03 0.  1.
        -12    1    3    3    0    0  0.16281732364E+01  0.10219348165E+01  0.35426310745E+01  0.40305748705E+01  0.00000000000E+00 0.  1.
</event>
<event>
 7    1  0.2706925E-010  0.4778727E+02  0.7816164E-02  0.1312668E+00
        -11   -1    0    0    0    0  0.00000000000E+00  0.00000000000E+00  0.45593999997E+02  0.45594000000E+02  0.51100000000E-03 0. -1.
         11   -1    0    0    0    0 -0.00000000000E+00 -0.00000000000E+00 -0.45593999997E+02  0.45594000000E+02  0.51100000000E-03 0.  1.
    9900012    2    1    2    0    0  0.14204090722E+02 -0.20902356503E+02 -0.35283969437E+02  0.47787271897E+02  0.20000003889E+02 0.  0.
         12    1    1    2    0    0 -0.14204090722E+02  0.20902356503E+02  0.35283969437E+02  0.43400728103E+02  0.00000000000E+00 0. -1.
         11    1    3    3    0    0  0.26791714705E+01  0.17654618918E+01 -0.80104443412E+01  0.86291386745E+01  0.51100000000E-03 0. -1.
        -11    1    3    3    0    0  0.13000213778E+02 -0.23139305288E+02 -0.25980467269E+02  0.37140512750E+02  0.51100000000E-03 0.  1.
        -12    1    3    3    0    0 -0.14752945272E+01  0.47148689335E+00 -0.12930578262E+01  0.20176204733E+01  0.00000000000E+00 0.  1.
</event>
<event>
 7    1  0.2706925E-010  0.4778728E+02  0.7816164E-02  0.1312668E+00
        -11   -1    0    0    0    0  0.00000000000E+00  0.00000000000E+00  0.45593999997E+02  0.45594000000E+02  0.51100000000E-03 0.  1.
         11   -1    0    0    0    0 -0.00000000000E+00 -0.00000000000E+00 -0.45593999997E+02  0.45594000000E+02  0.51100000000E-03 0. -1.
    9900012    2    1    2    0    0  0.36627278809E+02 -0.22266240971E+02  0.68028878537E+01  0.47787281998E+02  0.20000049941E+02 0.  0.
         12    1    1    2    0    0 -0.36627278809E+02  0.22266240971E+02 -0.68028878537E+01  0.43400718002E+02  0.00000000000E+00 0. -1.
         11    1    3    3    0    0  0.47765510906E+01  0.14657891175E+01 -0.35146297499E+01  0.61087315048E+01  0.51100000000E-03 0. -1.
        -11    1    3    3    0    0  0.26968878329E+02 -0.19273454129E+02  0.57504535825E+01  0.33643040128E+02  0.51100000000E-03 0.  1.
         12    1    3    3    0    0  0.48818493893E+01 -0.44585759597E+01  0.45670640211E+01  0.80355103647E+01  0.00000000000E+00 0. -1.
</event>
<event>
 7    1  0.2706925E-010  0.4778727E+02  0.7816164E-02  0.1312668E+00
        -11   -1    0    0    0    0  0.00000000000E+00  0.00000000000E+00  0.45593999997E+02  0.45594000000E+02  0.51100000000E-03 0.  1.
         11   -1    0    0    0    0 -0.00000000000E+00 -0.00000000000E+00 -0.45593999997E+02  0.45594000000E+02  0.51100000000E-03 0. -1.
    9900012    2    1    2    0    0  0.62540649138E+00  0.30831894133E+02  0.30538933538E+02  0.47787270850E+02  0.19999999112E+02 0.  0.
         12    1    1    2    0    0 -0.62540649138E+00 -0.30831894133E+02 -0.30538933538E+02  0.43400729150E+02  0.00000000000E+00 0. -1.
         11    1    3    3    0    0  0.48331592634E+01  0.16110624010E+02  0.52600171131E+01  0.17623263453E+02  0.51100000000E-03 0. -1.
        -11    1    3    3    0    0 -0.13604275013E+01  0.12378884059E+02  0.16749693900E+02  0.20871985520E+02  0.51100000000E-03 0.  1.
         12    1    3    3    0    0 -0.28473252707E+01  0.23423860641E+01  0.85292225252E+01  0.92920218765E+01  0.00000000000E+00 0. -1.
</event>
<event>
 7    1  0.2706925E-010  0.4778726E+02  0.7816164E-02  0.1312668E+00
        -11   -1    0    0    0    0  0.00000000000E+00  0.00000000000E+00  0.45593999997E+02  0.45594000000E+02  0.51100000000E-03 0. -1.
         11   -1    0    0    0    0 -0.00000000000E+00 -0.00000000000E+00 -0.45593999997E+02  0.45594000000E+02  0.51100000000E-03 0.  1.
    9900012    2    1    2    0    0 -0.22636865859E+02 -0.22617490350E+02 -0.29319717784E+02  0.47787257880E+02  0.19999939978E+02 0.  0.
         12    1    1    2    0    0  0.22636865859E+02  0.22617490350E+02  0.29319717784E+02  0.43400742120E+02  0.00000000000E+00 0. -1.
         11    1    3    3    0    0 -0.71266142555E+01  0.45380336833E+00 -0.36510198091E+01  0.80202564891E+01  0.51100000000E-03 0. -1.
        -11    1    3    3    0    0 -0.52683931293E+01 -0.16168313710E+02 -0.19777553696E+02  0.26082982285E+02  0.51100000000E-03 0.  1.
        -12    1    3    3    0    0 -0.10241858474E+02 -0.69029800083E+01 -0.58911442786E+01  0.13684019106E+02  0.00000000000E+00 0.  1.
</event>
<event>
 7    1  0.2706925E-010  0.4778727E+02  0.7816164E-02  0.1312668E+00
        -11   -1    0    0    0    0  0.00000000000E+00  0.00000000000E+00  0.45593999997E+02  0.45594000000E+02  0.51100000000E-03 0.  1.
         11   -1    0    0    0    0 -0.00000000000E+00 -0.00000000000E+00 -0.45593999997E+02  0.45594000000E+02  0.51100000000E-03 0. -1.
    9900012    2    1    2    0    0  0.24704246562E+02  0.13344648122E+02  0.33094467118E+02  0.47787272063E+02  0.20000004642E+02 0.  0.
         12    1    1    2    0    0 -0.24704246562E+02 -0.13344648122E+02 -0.33094467118E+02  0.43400727937E+02  0.00000000000E+00 0. -1.
         11    1    3    3    0    0 -0.20452940027E+01  0.71829114427E+00  0.62326919016E+01  0.65989103894E+01  0.51100000000E-03 0. -1.
        -11    1    3    3    0    0  0.25658341540E+02  0.11612763685E+02  0.27679976410E+02  0.39489085395E+02  0.51100000000E-03 0.  1.
        -12    1    3    3    0    0  0.10911990248E+01  0.10135932933E+01 -0.81820119433E+00  0.16992762784E+01  0.00000000000E+00 0.  1.
</event>
<event>
 7    1  0.2706925E-010  0.4778727E+02  0.7816164E-02  0.1312668E+00
        -11   -1    0    0    0    0  0.00000000000E+00  0.00000000000E+00  0.45593999997E+02  0.45594000000E+02  0.51100000000E-03 0. -1.
         11   -1    0    0    0    0 -0.00000000000E+00 -0.00000000000E+00 -0.45593999997E+02  0.45594000000E+02  0.51100000000E-03 0.  1.
    9900012    2    1    2    0    0 -0.11931135179E+02 -0.16582313053E+01 -0.41695578946E+02  0.47787273954E+02  0.20000013266E+02 0.  0.
         12    1    1    2    0    0  0.11931135179E+02  0.16582313053E+01  0.41695578946E+02  0.43400726046E+02  0.00000000000E+00 0. -1.
         11    1    3    3    0    0  0.17794813752E+01  0.24270708206E+00  0.43684539078E+00  0.18483221713E+01  0.51100000000E-03 0. -1.
        -11    1    3    3    0    0 -0.18334508420E-01 -0.41730869860E+01 -0.13307553725E+02  0.13946539985E+02  0.51100000000E-03 0.  1.
        -12    1    3    3    0    0 -0.13692282045E+02  0.22721485987E+01 -0.28824870612E+02  0.31992411798E+02  0.00000000000E+00 0.  1.
</event>
<event>
 7    1  0.2706925E-010  0.4778727E+02  0.7816164E-02  0.1312668E+00
        -11   -1    0    0    0    0  0.00000000000E+00  0.00000000000E+00  0.45593999997E+02  0.45594000000E+02  0.51100000000E-03 0.  1.
         11   -1    0    0    0    0 -0.00000000000E+00 -0.00000000000E+00 -0.45593999997E+02  0.45594000000E+02  0.51100000000E-03 0. -1.
    9900012    2    1    2    0    0 -0.36412885320E+02 -0.30807813217E+01  0.23414388022E+02  0.47787274231E+02  0.20000014527E+02 0.  0.
         12    1    1    2    0    0  0.36412885320E+02  0.30807813217E+01 -0.23414388022E+02  0.43400725769E+02  0.00000000000E+00 0. -1.
         11    1    3    3    0    0 -0.18259726685E+02  0.35217483704E+01  0.16185940136E+02  0.24653701315E+02  0.51100000000E-03 0. -1.
        -11    1    3    3    0    0 -0.81500557895E+01 -0.15413687593E+01  0.84693651737E+01  0.11854508582E+02  0.51100000000E-03 0.  1.
         12    1    3    3    0    0 -0.10003102845E+02 -0.50611609328E+01 -0.12409172873E+01  0.11279064333E+02  0.00000000000E+00 0. -1.
</event>
<event>
 7    1  0.2706925E-010  0.4778727E+02  0.7816164E-02  0.1312668E+00
        -11   -1    0    0    0    0  0.00000000000E+00  0.00000000000E+00  0.45593999997E+02  0.45594000000E+02  0.51100000000E-03 0. -1.
         11   -1    0    0    0    0 -0.00000000000E+00 -0.00000000000E+00 -0.45593999997E+02  0.45594000000E+02  0.51100000000E-03 0.  1.
    9900012    2    1    2    0    0  0.31331064207E+02 -0.21798593462E+02  0.20659368720E+02  0.47787265246E+02  0.19999973564E+02 0.  0.
         12    1    1    2    0    0 -0.31331064207E+02  0.21798593462E+02 -0.20659368720E+02  0.43400734754E+02  0.00000000000E+00 0. -1.
         11    1    3    3    0    0  0.79903596625E+01 -0.10288710266E+01  0.96832415718E+01  0.12596411819E+02  0.51100000000E-03 0. -1.
        -11    1    3    3    0    0  0.12664772876E+02 -0.10092198021E+02 -0.53705465331E+00  0.16203004686E+02  0.51100000000E-03 0.  1.
        -12    1    3    3    0    0  0.10675931669E+02 -0.10677524414E+02  0.11513181802E+02  0.18987848740E+02  0.00000000000E+00 0.  1.
</event>
<event>
 7    1  0.2706925E-010  0.4778727E+02  0.7816164E-02  0.1312668E+00
        -11   -1    0    0    0    0  0.00000000000E+00  0.00000000000E+00  0.45593999997E+02  0.45594000000E+02  0.51100000000E-03 0.  1.
         11   -1    0    0    0    0 -0.00000000000E+00 -0.00000000000E+00 -0.45593999997E+02  0.45594000000E+02  0.51100000000E-03 0. -1.
    9900012    2    1    2    0    0 -0.29553892551E+02  0.31076761106E+02  0.66652737748E+01  0.47787268206E+02  0.19999987057E+02 0.  0.
         12    1    1    2    0    0  0.29553892551E+02 -0.31076761106E+02 -0.66652737748E+01  0.43400731794E+02  0.00000000000E+00 0. -1.
         11    1    3    3    0    0  0.79148768652E-01  0.24245715697E+01 -0.92243045495E+00  0.25953207951E+01  0.51100000000E-03 0. -1.
        -11    1    3    3    0    0  0.20542807582E+00 -0.65000474986E+00  0.30508648465E+01  0.31260971581E+01  0.51100000000E-03 0.  1.
        -12    1    3    3    0    0 -0.29838469396E+02  0.29302194286E+02  0.45368393833E+01  0.42065850253E+02  0.00000000000E+00 0.  1.
</event>
<event>
 7    1  0.2706925E-010  0.4778727E+02  0.7816164E-02  0.1312668E+00
        -11   -1    0    0    0    0  0.00000000000E+00  0.00000000000E+00  0.45593999997E+02  0.45594000000E+02  0.51100000000E-03 0.  1.
         11   -1    0    0    0    0 -0.00000000000E+00 -0.00000000000E+00 -0.45593999997E+02  0.45594000000E+02  0.51100000000E-03 0. -1.
    9900012    2    1    2    0    0  0.38265530703E+02 -0.12697332898E+02  0.16067047065E+02  0.47787273001E+02  0.20000008919E+02 0.  0.
         12    1    1    2    0    0 -0.38265530703E+02  0.12697332898E+02 -0.16067047065E+02  0.43400726999E+02  0.00000000000E+00 0. -1.
         11    1    3    3    0    0 -0.23998854544E+01 -0.71102551475E+00  0.85343492567E+00  0.26444959652E+01  0.51100000000E-03 0. -1.
        -11    1    3    3    0    0  0.26363628107E+02 -0.90884885811E+01  0.10694863355E+02  0.29866730890E+02  0.51100000000E-03 0.  1.
         12    1    3    3    0    0  0.14301788050E+02 -0.28978188025E+01  0.45187487841E+01  0.15276046145E+02  0.00000000000E+00 0. -1.
</event>
<event>
 7    1  0.2706925E-010  0.4778727E+02  0.7816164E-02  0.1312668E+00
        -11   -1    0    0    0    0  0.00000000000E+00  0.00000000000E+00  0.45593999997E+02  0.45594000000E+02  0.51100000000E-03 0. -1.
         11   -1    0    0    0    0 -0.00000000000E+00 -0.00000000000E+00 -0.45593999997E+02  0.45594000000E+02  0.51100000000E-03 0.  1.
    9900012    2    1    2    0    0 -0.39917095203E+02  0.16108592724E+02 -0.55463920639E+01  0.47787265975E+02  0.19999976886E+02 0.  0.
         12    1    1    2    0    0  0.39917095203E+02 -0.16108592724E+02  0.55463920639E+01  0.43400734025E+02  0.00000000000E+00 0. -1.
         11    1    3    3    0    0 -0.12242747118E+02 -0.77113517502E+00  0.41388760497E+01  0.12946420419E+02  0.51100000000E-03 0.  1.
        -11    1    3    3    0    0 -0.27406890582E+02  0.16039503229E+02 -0.77103453457E+01  0.32678016170E+02  0.51100000000E-03 0. -1.
         12    1    3    3    0    0 -0.26745750282E+00  0.84022467088E+00 -0.19749227680E+01  0.21628293860E+01  0.00000000000E+00 0. -1.
</event>
<event>
 7    1  0.2706925E-010  0.4778728E+02  0.7816164E-02  0.1312668E+00
        -11   -1    0    0    0    0  0.00000000000E+00  0.00000000000E+00  0.45593999997E+02  0.45594000000E+02  0.51100000000E-03 0.  1.
         11   -1    0    0    0    0 -0.00000000000E+00 -0.00000000000E+00 -0.45593999997E+02  0.45594000000E+02  0.51100000000E-03 0. -1.
    9900012    2    1    2    0    0 -0.22274233291E+02  0.43669278494E+01  0.36992044511E+02  0.47787275528E+02  0.20000020444E+02 0.  0.
         12    1    1    2    0    0  0.22274233291E+02 -0.43669278494E+01 -0.36992044511E+02  0.43400724472E+02  0.00000000000E+00 0. -1.
         11    1    3    3    0    0 -0.15264814126E+02  0.15421235866E+01  0.26993361498E+02  0.31048901119E+02  0.51100000000E-03 0. -1.
        -11    1    3    3    0    0 -0.77973669502E+01  0.24163755120E+01  0.16319810818E+01  0.83247320968E+01  0.51100000000E-03 0.  1.
        -12    1    3    3    0    0  0.78794778518E+00  0.40842875078E+00  0.83667019315E+01  0.84136423127E+01  0.00000000000E+00 0.  1.
</event>
<event>
 7    1  0.2706925E-010  0.4778727E+02  0.7816164E-02  0.1312668E+00
        -11   -1    0    0    0    0  0.00000000000E+00  0.00000000000E+00  0.45593999997E+02  0.45594000000E+02  0.51100000000E-03 0.  1.
         11   -1    0    0    0    0 -0.00000000000E+00 -0.00000000000E+00 -0.45593999997E+02  0.45594000000E+02  0.51100000000E-03 0. -1.
    9900012    2    1    2    0    0  0.15380076450E+02 -0.21555893970E+02  0.34386335113E+02  0.47787270064E+02  0.19999995531E+02 0.  0.
         12    1    1    2    0    0 -0.15380076450E+02  0.21555893970E+02 -0.34386335113E+02  0.43400729936E+02  0.00000000000E+00 0. -1.
         11    1    3    3    0    0  0.27560762328E+01 -0.42442694253E+01 -0.18419264783E+01  0.53853943744E+01  0.51100000000E-03 0. -1.
        -11    1    3    3    0    0  0.56311128021E+01 -0.38249905498E+01  0.10152003888E+02  0.12223058836E+02  0.51100000000E-03 0.  1.
         12    1    3    3    0    0  0.69928874151E+01 -0.13486633995E+02  0.26076257703E+02  0.30178816854E+02  0.00000000000E+00 0. -1.
</event>
<event>
 7    1  0.2706925E-010  0.4778727E+02  0.7816164E-02  0.1312668E+00
        -11   -1    0    0    0    0  0.00000000000E+00  0.00000000000E+00  0.45593999997E+02  0.45594000000E+02  0.51100000000E-03 0.  1.
         11   -1    0    0    0    0 -0.00000000000E+00 -0.00000000000E+00 -0.45593999997E+02  0.45594000000E+02  0.51100000000E-03 0. -1.
    9900012    2    1    2    0    0 -0.30723485724E+02 -0.30548934852E+02 -0.25402918801E+01  0.47787273296E+02  0.20000010266E+02 0.  0.
         12    1    1    2    0    0  0.30723485724E+02  0.30548934852E+02  0.25402918801E+01  0.43400726704E+02  0.00000000000E+00 0. -1.
         11    1    3    3    0    0  0.26482711424E+01 -0.17798102957E+01  0.13882575639E+01  0.34797017196E+01  0.51100000000E-03 0. -1.
        -11    1    3    3    0    0 -0.18095756786E+02 -0.15409265884E+02 -0.33753481890E+01  0.24006142223E+02  0.51100000000E-03 0.  1.
         12    1    3    3    0    0 -0.15276000080E+02 -0.13359858672E+02 -0.55320125504E+00  0.20301429354E+02  0.00000000000E+00 0. -1.
</event>
<event>
 7    1  0.2706925E-010  0.4778727E+02  0.7816164E-02  0.1312668E+00
        -11   -1    0    0    0    0  0.00000000000E+00  0.00000000000E+00  0.45593999997E+02  0.45594000000E+02  0.51100000000E-03 0.  1.
         11   -1    0    0    0    0 -0.00000000000E+00 -0.00000000000E+00 -0.45593999997E+02  0.45594000000E+02  0.51100000000E-03 0. -1.
    9900012    2    1    2    0    0  0.25690599118E+02 -0.17106789843E+02  0.30511863155E+02  0.47787274949E+02  0.20000017802E+02 0.  0.
         12    1    1    2    0    0 -0.25690599118E+02  0.17106789843E+02 -0.30511863155E+02  0.43400725051E+02  0.00000000000E+00 0. -1.
         11    1    3    3    0    0 -0.53994010022E+00 -0.40642908752E+01  0.27791084704E+01  0.49531242445E+01  0.51100000000E-03 0. -1.
        -11    1    3    3    0    0  0.20517520443E+02 -0.60275737522E+01  0.25927947451E+02  0.33608908785E+02  0.51100000000E-03 0.  1.
        -12    1    3    3    0    0  0.57130187758E+01 -0.70149252156E+01  0.18048072332E+01  0.92252419189E+01  0.00000000000E+00 0.  1.
</event>
<event>
 7    1  0.2706925E-010  0.4778727E+02  0.7816164E-02  0.1312668E+00
        -11   -1    0    0    0    0  0.00000000000E+00  0.00000000000E+00  0.45593999997E+02  0.45594000000E+02  0.51100000000E-03 0.  1.
         11   -1    0    0    0    0 -0.00000000000E+00 -0.00000000000E+00 -0.45593999997E+02  0.45594000000E+02  0.51100000000E-03 0. -1.
    9900012    2    1    2    0    0 -0.15676020436E+02  0.41268437359E+01  0.40259844735E+02  0.47787267817E+02  0.19999985284E+02 0.  0.
         12    1    1    2    0    0  0.15676020436E+02 -0.41268437359E+01 -0.40259844735E+02  0.43400732183E+02  0.00000000000E+00 0. -1.
         11    1    3    3    0    0 -0.82975127448E-01 -0.21672796945E+01 -0.88469091204E+00  0.23423629985E+01  0.51100000000E-03 0. -1.
        -11    1    3    3    0    0 -0.15117278510E+02  0.69671333253E+01  0.30316879912E+02  0.34585925811E+02  0.51100000000E-03 0.  1.
         12    1    3    3    0    0 -0.47576679785E+00 -0.67300989492E+00  0.10827655736E+02  0.10858979008E+02  0.00000000000E+00 0. -1.
</event>
<event>
 7    1  0.2706925E-010  0.4778727E+02  0.7816164E-02  0.1312668E+00
        -11   -1    0    0    0    0  0.00000000000E+00  0.00000000000E+00  0.45593999997E+02  0.45594000000E+02  0.51100000000E-03 0. -1.
         11   -1    0    0    0    0 -0.00000000000E+00 -0.00000000000E+00 -0.45593999997E+02  0.45594000000E+02  0.51100000000E-03 0.  1.
    9900012    2    1    2    0    0  0.29791643051E+02  0.24002484611E+02 -0.20492974611E+02  0.47787271071E+02  0.20000000120E+02 0.  0.
         12    1    1    2    0    0 -0.29791643051E+02 -0.24002484611E+02  0.20492974611E+02  0.43400728929E+02  0.00000000000E+00 0. -1.
         11    1    3    3    0    0 -0.17038473947E+01 -0.14038934045E+01  0.36010107525E+00  0.22368919690E+01  0.51100000000E-03 0. -1.
        -11    1    3    3    0    0  0.26964763151E+02  0.21793451858E+02 -0.18482228744E+02  0.39289257759E+02  0.51100000000E-03 0.  1.
         12    1    3    3    0    0  0.45307272951E+01  0.36129261576E+01 -0.23708469425E+01  0.62611213427E+01  0.00000000000E+00 0. -1.
</event>
<event>
 7    1  0.2706925E-010  0.4778727E+02  0.7816164E-02  0.1312668E+00
        -11   -1    0    0    0    0  0.00000000000E+00  0.00000000000E+00  0.45593999997E+02  0.45594000000E+02  0.51100000000E-03 0.  1.
         11   -1    0    0    0    0 -0.00000000000E+00 -0.00000000000E+00 -0.45593999997E+02  0.45594000000E+02  0.51100000000E-03 0. -1.
    9900012    2    1    2    0    0  0.73128539156E+01  0.11658166045E+02  0.41161060633E+02  0.47787267513E+02  0.19999983899E+02 0.  0.
         12    1    1    2    0    0 -0.73128539156E+01 -0.11658166045E+02 -0.41161060633E+02  0.43400732487E+02  0.00000000000E+00 0. -1.
         11    1    3    3    0    0  0.16947006198E+01 -0.45680230348E+01  0.65639823533E+01  0.81746381714E+01  0.51100000000E-03 0. -1.
        -11    1    3    3    0    0  0.41414322995E+01  0.85037816924E+01  0.98909598097E+01  0.13685643967E+02  0.51100000000E-03 0.  1.
         12    1    3    3    0    0  0.14767209964E+01  0.77224073878E+01  0.24706118470E+02  0.25926985375E+02  0.00000000000E+00 0. -1.
</event>
<event>
 7    1  0.2706925E-010  0.4778727E+02  0.7816164E-02  0.1312668E+00
        -11   -1    0    0    0    0  0.00000000000E+00  0.00000000000E+00  0.45593999997E+02  0.45594000000E+02  0.51100000000E-03 0. -1.
         11   -1    0    0    0    0 -0.00000000000E+00 -0.00000000000E+00 -0.45593999997E+02  0.45594000000E+02  0.51100000000E-03 0.  1.
    9900012    2    1    2    0    0 -0.17534304426E+02 -0.35185650133E+02 -0.18388623461E+02  0.47787270977E+02  0.19999999690E+02 0.  0.
         12    1    1    2    0    0  0.17534304426E+02  0.35185650133E+02  0.18388623461E+02  0.43400729023E+02  0.00000000000E+00 0. -1.
         11    1    3    3    0    0 -0.12425617316E+01  0.10132691372E+01 -0.48692687591E+01  0.51264463823E+01  0.51100000000E-03 0. -1.
        -11    1    3    3    0    0 -0.16727159098E+02 -0.33462940119E+02 -0.13803027150E+02  0.39875929728E+02  0.51100000000E-03 0.  1.
        -12    1    3    3    0    0  0.43541640293E+00 -0.27359791509E+01  0.28367244861E+00  0.27848948663E+01  0.00000000000E+00 0.  1.
</event>
<event>
 7    1  0.2706925E-010  0.4778726E+02  0.7816164E-02  0.1312668E+00
        -11   -1    0    0    0    0  0.00000000000E+00  0.00000000000E+00  0.45593999997E+02  0.45594000000E+02  0.51100000000E-03 0.  1.
         11   -1    0    0    0    0 -0.00000000000E+00 -0.00000000000E+00 -0.45593999997E+02  0.45594000000E+02  0.51100000000E-03 0. -1.
    9900012    2    1    2    0    0  0.18539759445E+02 -0.20252092838E+02  0.33611811330E+02  0.47787264920E+02  0.19999972075E+02 0.  0.
         12    1    1    2    0    0 -0.18539759445E+02  0.20252092838E+02 -0.33611811330E+02  0.43400735080E+02  0.00000000000E+00 0. -1.
         11    1    3    3    0    0  0.13825221810E+02 -0.38439794611E+01  0.13909632931E+02  0.19984764816E+02  0.51100000000E-03 0. -1.
        -11    1    3    3    0    0  0.13351717133E+01 -0.96821592688E+01  0.17354892747E+02  0.19917810977E+02  0.51100000000E-03 0.  1.
         12    1    3    3    0    0  0.33793659215E+01 -0.67259541080E+01  0.23472856525E+01  0.78846891270E+01  0.00000000000E+00 0. -1.
</event>
<event>
 7    1  0.2706925E-010  0.4778727E+02  0.7816164E-02  0.1312668E+00
        -11   -1    0    0    0    0  0.00000000000E+00  0.00000000000E+00  0.45593999997E+02  0.45594000000E+02  0.51100000000E-03 0.  1.
         11   -1    0    0    0    0 -0.00000000000E+00 -0.00000000000E+00 -0.45593999997E+02  0.45594000000E+02  0.51100000000E-03 0. -1.
    9900012    2    1    2    0    0 -0.15310639429E+02  0.40458370513E+02 -0.35110647881E+01  0.47787274197E+02  0.20000014375E+02 0.  0.
         12    1    1    2    0    0  0.15310639429E+02 -0.40458370513E+02  0.35110647881E+01  0.43400725803E+02  0.00000000000E+00 0. -1.
         11    1    3    3    0    0 -0.80176062141E+01  0.42988766137E+01  0.23463651972E+01  0.93950933707E+01  0.51100000000E-03 0. -1.
        -11    1    3    3    0    0 -0.71338776880E+01  0.23109917634E+02 -0.24816444334E+00  0.24187229890E+02  0.51100000000E-03 0.  1.
         12    1    3    3    0    0 -0.15915552652E+00  0.13049576265E+02 -0.56092655420E+01  0.14204950936E+02  0.00000000000E+00 0. -1.
</event>
<event>
 7    1  0.2706925E-010  0.4778727E+02  0.7816164E-02  0.1312668E+00
        -11   -1    0    0    0    0  0.00000000000E+00  0.00000000000E+00  0.45593999997E+02  0.45594000000E+02  0.51100000000E-03 0.  1.
         11   -1    0    0    0    0 -0.00000000000E+00 -0.00000000000E+00 -0.45593999997E+02  0.45594000000E+02  0.51100000000E-03 0. -1.
    9900012    2    1    2    0    0 -0.91481601308E+01 -0.42128289946E+02  0.50141361582E+01  0.47787271792E+02  0.20000003408E+02 0.  0.
         12    1    1    2    0    0  0.91481601308E+01  0.42128289946E+02 -0.50141361582E+01  0.43400728208E+02  0.00000000000E+00 0. -1.
         11    1    3    3    0    0  0.41217135056E+01 -0.10323371278E+02  0.62625710728E+01  0.12758538846E+02  0.51100000000E-03 0.  1.
        -11    1    3    3    0    0 -0.11910496836E+02 -0.22316061840E+02  0.41900331661E+00  0.25299053638E+02  0.51100000000E-03 0. -1.
        -12    1    3    3    0    0 -0.13593768001E+01 -0.94888568281E+01 -0.16674382312E+01  0.97296793084E+01  0.00000000000E+00 0.  1.
</event>
<event>
 7    1  0.2706925E-010  0.4778727E+02  0.7816164E-02  0.1312668E+00
        -11   -1    0    0    0    0  0.00000000000E+00  0.00000000000E+00  0.45593999997E+02  0.45594000000E+02  0.51100000000E-03 0.  1.
         11   -1    0    0    0    0 -0.00000000000E+00 -0.00000000000E+00 -0.45593999997E+02  0.45594000000E+02  0.51100000000E-03 0. -1.
    9900012    2    1    2    0    0 -0.11058653145E+02  0.25073415787E+02  0.33654909771E+02  0.47787274887E+02  0.20000017522E+02 0.  0.
         12    1    1    2    0    0  0.11058653145E+02 -0.25073415787E+02 -0.33654909771E+02  0.43400725113E+02  0.00000000000E+00 0. -1.
         11    1    3    3    0    0 -0.25563128582E+01  0.51754262309E+01  0.17619252685E+02  0.18540707579E+02  0.51100000000E-03 0.  1.
        -11    1    3    3    0    0 -0.65267795648E+01  0.50727245378E+01  0.15208908216E+01  0.84050279521E+01  0.51100000000E-03 0. -1.
        -12    1    3    3    0    0 -0.19755607224E+01  0.14825265018E+02  0.14514766265E+02  0.20841539356E+02  0.00000000000E+00 0.  1.
</event>
<event>
 7    1  0.2706925E-010  0.4778727E+02  0.7816164E-02  0.1312668E+00
        -11   -1    0    0    0    0  0.00000000000E+00  0.00000000000E+00  0.45593999997E+02  0.45594000000E+02  0.51100000000E-03 0. -1.
         11   -1    0    0    0    0 -0.00000000000E+00 -0.00000000000E+00 -0.45593999997E+02  0.45594000000E+02  0.51100000000E-03 0.  1.
    9900012    2    1    2    0    0 -0.25492548532E+02 -0.15833253264E+02 -0.31353809033E+02  0.47787270968E+02  0.19999999653E+02 0.  0.
         12    1    1    2    0    0  0.25492548532E+02  0.15833253264E+02  0.31353809033E+02  0.43400729032E+02  0.00000000000E+00 0. -1.
         11    1    3    3    0    0 -0.10594499646E+02 -0.13699734260E+01 -0.46351265145E+01  0.11644940876E+02  0.51100000000E-03 0. -1.
        -11    1    3    3    0    0 -0.65564934248E+01 -0.13227909889E+02 -0.11387538112E+02  0.18645139596E+02  0.51100000000E-03 0.  1.
        -12    1    3    3    0    0 -0.83415554618E+01 -0.12353699491E+01 -0.15331144407E+02  0.17497190497E+02  0.00000000000E+00 0.  1.
</event>
<event>
 7    1  0.2706925E-010  0.4778728E+02  0.7816164E-02  0.1312668E+00
        -11   -1    0    0    0    0  0.00000000000E+00  0.00000000000E+00  0.45593999997E+02  0.45594000000E+02  0.51100000000E-03 0.  1.
         11   -1    0    0    0    0 -0.00000000000E+00 -0.00000000000E+00 -0.45593999997E+02  0.45594000000E+02  0.51100000000E-03 0. -1.
    9900012    2    1    2    0    0 -0.36217944869E+02 -0.87673169894E+01  0.22248983940E+02  0.47787278070E+02  0.20000032032E+02 0.  0.
         12    1    1    2    0    0  0.36217944869E+02  0.87673169894E+01 -0.22248983940E+02  0.43400721930E+02  0.00000000000E+00 0. -1.
         11    1    3    3    0    0 -0.31803320018E+01  0.22884466549E+01 -0.14101687275E+01  0.41641416684E+01  0.51100000000E-03 0. -1.
        -11    1    3    3    0    0 -0.17906563752E+02 -0.11352092850E+02  0.16582263754E+02  0.26916287057E+02  0.51100000000E-03 0.  1.
        -12    1    3    3    0    0 -0.15131049115E+02  0.29632920563E+00  0.70768889133E+01  0.16706849344E+02  0.00000000000E+00 0.  1.
</event>
<event>
 7    1  0.2706925E-010  0.4778727E+02  0.7816164E-02  0.1312668E+00
        -11   -1    0    0    0    0  0.00000000000E+00  0.00000000000E+00  0.45593999997E+02  0.45594000000E+02  0.51100000000E-03 0.  1.
         11   -1    0    0    0    0 -0.00000000000E+00 -0.00000000000E+00 -0.45593999997E+02  0.45594000000E+02  0.51100000000E-03 0. -1.
    9900012    2    1    2    0    0  0.82519062479E+01  0.21979860548E+02  0.36502264528E+02  0.47787267954E+02  0.19999985911E+02 0.  0.
         12    1    1    2    0    0 -0.82519062479E+01 -0.21979860548E+02 -0.36502264528E+02  0.43400732046E+02  0.00000000000E+00 0. -1.
         11    1    3    3    0    0 -0.12991737035E+01 -0.21672695942E+01  0.48977629002E-01  0.25273125797E+01  0.51100000000E-03 0. -1.
        -11    1    3    3    0    0  0.64626891794E+01  0.22239428667E+02  0.30671389656E+02  0.38432963489E+02  0.51100000000E-03 0.  1.
         12    1    3    3    0    0  0.30883907721E+01  0.19077014753E+01  0.57818972425E+01  0.68269918854E+01  0.00000000000E+00 0. -1.
</event>
<event>
 7    1  0.2706925E-010  0.4778728E+02  0.7816164E-02  0.1312668E+00
        -11   -1    0    0    0    0  0.00000000000E+00  0.00000000000E+00  0.45593999997E+02  0.45594000000E+02  0.51100000000E-03 0. -1.
         11   -1    0    0    0    0 -0.00000000000E+00 -0.00000000000E+00 -0.45593999997E+02  0.45594000000E+02  0.51100000000E-03 0.  1.
    9900012    2    1    2    0    0  0.17504273551E+02  0.15201611651E+02 -0.36689702508E+02  0.47787275819E+02  0.20000021767E+02 0.  0.
         12    1    1    2    0    0 -0.17504273551E+02 -0.15201611651E+02  0.36689702508E+02  0.43400724181E+02  0.00000000000E+00 0. -1.
         11    1    3    3    0    0  0.10083079320E+02  0.11152882841E+02 -0.70925067686E+01  0.16624046943E+02  0.51100000000E-03 0. -1.
        -11    1    3    3    0    0  0.31039156561E+01 -0.58931607941E+00 -0.13477808361E+02  0.13843153699E+02  0.51100000000E-03 0.  1.
         12    1    3    3    0    0  0.43172785756E+01  0.46380448897E+01 -0.16119387378E+02  0.17320075177E+02  0.00000000000E+00 0. -1.
</event>
<event>
 7    1  0.2706925E-010  0.4778727E+02  0.7816164E-02  0.1312668E+00
        -11   -1    0    0    0    0  0.00000000000E+00  0.00000000000E+00  0.45593999997E+02  0.45594000000E+02  0.51100000000E-03 0.  1.
         11   -1    0    0    0    0 -0.00000000000E+00 -0.00000000000E+00 -0.45593999997E+02  0.45594000000E+02  0.51100000000E-03 0. -1.
    9900012    2    1    2    0    0  0.23470212239E+02 -0.30696984876E+02  0.19760247459E+02  0.47787272786E+02  0.20000007942E+02 0.  0.
         12    1    1    2    0    0 -0.23470212239E+02  0.30696984876E+02 -0.19760247459E+02  0.43400727214E+02  0.00000000000E+00 0. -1.
         11    1    3    3    0    0  0.19664910088E+02 -0.24072444446E+02  0.19687238784E+02  0.36793731009E+02  0.51100000000E-03 0. -1.
        -11    1    3    3    0    0  0.40008718704E+01 -0.71540927668E+01  0.24462601276E+01  0.85540755147E+01  0.51100000000E-03 0.  1.
         12    1    3    3    0    0 -0.19556971931E+00  0.52955233663E+00 -0.23732514521E+01  0.24394662627E+01  0.00000000000E+00 0. -1.
</event>
<event>
 7    1  0.2706925E-010  0.4778727E+02  0.7816164E-02  0.1312668E+00
        -11   -1    0    0    0    0  0.00000000000E+00  0.00000000000E+00  0.45593999997E+02  0.45594000000E+02  0.51100000000E-03 0.  1.
         11   -1    0    0    0    0 -0.00000000000E+00 -0.00000000000E+00 -0.45593999997E+02  0.45594000000E+02  0.51100000000E-03 0. -1.
    9900012    2    1    2    0    0 -0.20814618139E+02 -0.36521799305E+02 -0.10795064313E+02  0.47787267676E+02  0.19999984644E+02 0.  0.
         12    1    1    2    0    0  0.20814618139E+02  0.36521799305E+02  0.10795064313E+02  0.43400732324E+02  0.00000000000E+00 0. -1.
         11    1    3    3    0    0 -0.10722911306E+02 -0.16305818558E+02 -0.64145764849E+01  0.20542817174E+02  0.51100000000E-03 0.  1.
        -11    1    3    3    0    0 -0.71105045830E+01 -0.87599726978E+01 -0.91057279901E+01  0.14498644060E+02  0.51100000000E-03 0. -1.
         12    1    3    3    0    0 -0.29812022501E+01 -0.11456008048E+02  0.47252401621E+01  0.12745806442E+02  0.00000000000E+00 0. -1.
</event>
<event>
 7    1  0.2706925E-010  0.4778727E+02  0.7816164E-02  0.1312668E+00
        -11   -1    0    0    0    0  0.00000000000E+00  0.00000000000E+00  0.45593999997E+02  0.45594000000E+02  0.51100000000E-03 0.  1.
         11   -1    0    0    0    0 -0.00000000000E+00 -0.00000000000E+00 -0.45593999997E+02  0.45594000000E+02  0.51100000000E-03 0. -1.
    9900012    2    1    2    0    0  0.14475142784E+02 -0.11944073924E+01  0.40898251456E+02  0.47787270285E+02  0.19999996537E+02 0.  0.
         12    1    1    2    0    0 -0.14475142784E+02  0.11944073924E+01 -0.40898251456E+02  0.43400729715E+02  0.00000000000E+00 0. -1.
         11    1    3    3    0    0 -0.92590963654E+00 -0.22029527276E+01  0.18649758785E+02  0.18802228920E+02  0.51100000000E-03 0. -1.
        -11    1    3    3    0    0  0.41510257893E+01 -0.37498690184E+01  0.11179099712E+02  0.12500592121E+02  0.51100000000E-03 0.  1.
         12    1    3    3    0    0  0.11250026632E+02  0.47584143536E+01  0.11069392959E+02  0.16484449243E+02  0.00000000000E+00 0. -1.
</event>
<event>
 7    1  0.2706925E-010  0.4778728E+02  0.7816164E-02  0.1312668E+00
        -11   -1    0    0    0    0  0.00000000000E+00  0.00000000000E+00  0.45593999997E+02  0.45594000000E+02  0.51100000000E-03 0. -1.
         11   -1    0    0    0    0 -0.00000000000E+00 -0.00000000000E+00 -0.45593999997E+02  0.45594000000E+02  0.51100000000E-03 0.  1.
    9900012    2    1    2    0    0  0.30991823659E+02 -0.28661517316E+02 -0.10082022516E+02  0.47787275506E+02  0.20000020343E+02 0.  0.
         12    1    1    2    0    0 -0.30991823659E+02  0.28661517316E+02  0.10082022516E+02  0.43400724494E+02  0.00000000000E+00 0. -1.
         11    1    3    3    0    0  0.10361816231E+02 -0.53023200885E+01 -0.70392556289E+01  0.13602681868E+02  0.51100000000E-03 0. -1.
        -11    1    3    3    0    0  0.17813272985E+02 -0.17605790788E+02  0.31888298799E+01  0.25247677120E+02  0.51100000000E-03 0.  1.
        -12    1    3    3    0    0  0.28167344424E+01 -0.57534064395E+01 -0.62315967672E+01  0.89369165177E+01  0.00000000000E+00 0.  1.
</event>
<event>
 7    1  0.2706925E-010  0.4778727E+02  0.7816164E-02  0.1312668E+00
        -11   -1    0    0    0    0  0.00000000000E+00  0.00000000000E+00  0.45593999997E+02  0.45594000000E+02  0.51100000000E-03 0. -1.
         11   -1    0    0    0    0 -0.00000000000E+00 -0.00000000000E+00 -0.45593999997E+02  0.45594000000E+02  0.51100000000E-03 0.  1.
    9900012    2    1    2    0    0  0.64131019047E+01 -0.42095392497E+02 -0.83948530362E+01  0.47787268404E+02  0.19999987962E+02 0.  0.
         12    1    1    2    0    0 -0.64131019047E+01  0.42095392497E+02  0.83948530362E+01  0.43400731596E+02  0.00000000000E+00 0. -1.
         11    1    3    3    0    0  0.22893349451E+01 -0.72843600150E+01 -0.95637588477E+01  0.12237991619E+02  0.51100000000E-03 0. -1.
        -11    1    3    3    0    0  0.48341313181E+01 -0.28685435661E+02 -0.72313279960E+00  0.29098899738E+02  0.51100000000E-03 0.  1.
         12    1    3    3    0    0 -0.71036435846E+00 -0.61255968210E+01  0.18920386110E+01  0.64503770464E+01  0.00000000000E+00 0. -1.
</event>
<event>
 7    1  0.2706925E-010  0.4778727E+02  0.7816164E-02  0.1312668E+00
        -11   -1    0    0    0    0  0.00000000000E+00  0.00000000000E+00  0.45593999997E+02  0.45594000000E+02  0.51100000000E-03 0.  1.
         11   -1    0    0    0    0 -0.00000000000E+00 -0.00000000000E+00 -0.45593999997E+02  0.45594000000E+02  0.51100000000E-03 0. -1.
    9900012    2    1    2    0    0 -0.10855168727E+02 -0.41888587136E+02  0.33368886256E+01  0.47787271366E+02  0.20000001464E+02 0.  0.
         12    1    1    2    0    0  0.10855168727E+02  0.41888587136E+02 -0.33368886256E+01  0.43400728634E+02  0.00000000000E+00 0. -1.
         11    1    3    3    0    0 -0.27330650521E+01  0.32469007828E+00  0.73055131657E+00  0.28475908612E+01  0.51100000000E-03 0. -1.
        -11    1    3    3    0    0 -0.61139368954E-01 -0.27024056549E+02  0.52865951191E+01  0.27536366111E+02  0.51100000000E-03 0.  1.
        -12    1    3    3    0    0 -0.80609643055E+01 -0.15189220665E+02 -0.26802578100E+01  0.17403314393E+02  0.00000000000E+00 0.  1.
</event>
<event>
 7    1  0.2706925E-010  0.4778727E+02  0.7816164E-02  0.1312668E+00
        -11   -1    0    0    0    0  0.00000000000E+00  0.00000000000E+00  0.45593999997E+02  0.45594000000E+02  0.51100000000E-03 0.  1.
         11   -1    0    0    0    0 -0.00000000000E+00 -0.00000000000E+00 -0.45593999997E+02  0.45594000000E+02  0.51100000000E-03 0. -1.
    9900012    2    1    2    0    0  0.33944923900E+02 -0.14145262279E+02  0.23049440521E+02  0.47787274063E+02  0.20000013765E+02 0.  0.
         12    1    1    2    0    0 -0.33944923900E+02  0.14145262279E+02 -0.23049440521E+02  0.43400725937E+02  0.00000000000E+00 0. -1.
         11    1    3    3    0    0  0.24940939610E+02 -0.14401312056E+02  0.10574855293E+02  0.30680218746E+02  0.51100000000E-03 0. -1.
        -11    1    3    3    0    0  0.76579825518E+01 -0.25899166184E+01  0.10945315772E+02  0.13607068107E+02  0.51100000000E-03 0.  1.
         12    1    3    3    0    0  0.13460017378E+01  0.28459663959E+01  0.15292694553E+01  0.34999872102E+01  0.00000000000E+00 0. -1.
</event>
<event>
 7    1  0.2706925E-010  0.4778728E+02  0.7816164E-02  0.1312668E+00
        -11   -1    0    0    0    0  0.00000000000E+00  0.00000000000E+00  0.45593999997E+02  0.45594000000E+02  0.51100000000E-03 0. -1.
         11   -1    0    0    0    0 -0.00000000000E+00 -0.00000000000E+00 -0.45593999997E+02  0.45594000000E+02  0.51100000000E-03 0.  1.
    9900012    2    1    2    0    0  0.33974917395E+02  0.59421017593E+00 -0.26999531257E+02  0.47787276667E+02  0.20000025635E+02 0.  0.
         12    1    1    2    0    0 -0.33974917395E+02 -0.59421017593E+00  0.26999531257E+02  0.43400723333E+02  0.00000000000E+00 0. -1.
         11    1    3    3    0    0  0.26678588754E+02 -0.50438190281E+01 -0.15755978587E+02  0.31391687909E+02  0.51100000000E-03 0. -1.
        -11    1    3    3    0    0  0.57042635175E+01 -0.24544598830E+00 -0.66410132480E+01  0.87579634181E+01  0.51100000000E-03 0.  1.
         12    1    3    3    0    0  0.15920651235E+01  0.58834751923E+01 -0.46025394224E+01  0.76376253398E+01  0.00000000000E+00 0. -1.
</event>
<event>
 7    1  0.2706925E-010  0.4778726E+02  0.7816164E-02  0.1312668E+00
        -11   -1    0    0    0    0  0.00000000000E+00  0.00000000000E+00  0.45593999997E+02  0.45594000000E+02  0.51100000000E-03 0.  1.
         11   -1    0    0    0    0 -0.00000000000E+00 -0.00000000000E+00 -0.45593999997E+02  0.45594000000E+02  0.51100000000E-03 0. -1.
    9900012    2    1    2    0    0 -0.52225301164E+01  0.32105280527E+02  0.28733256460E+02  0.47787264000E+02  0.19999967882E+02 0.  0.
         12    1    1    2    0    0  0.52225301164E+01 -0.32105280527E+02 -0.28733256460E+02  0.43400736000E+02  0.00000000000E+00 0. -1.
         11    1    3    3    0    0  0.61613877657E+01  0.12704900164E+02  0.11503529144E+02  0.18212862773E+02  0.51100000000E-03 0. -1.
        -11    1    3    3    0    0 -0.11261194256E+02  0.18991468400E+02  0.13625616092E+02  0.25945091678E+02  0.51100000000E-03 0.  1.
        -12    1    3    3    0    0 -0.12272362628E+00  0.40891196351E+00  0.36041112248E+01  0.36293095491E+01  0.00000000000E+00 0.  1.
</event>
<event>
 7    1  0.2706925E-010  0.4778728E+02  0.7816164E-02  0.1312668E+00
        -11   -1    0    0    0    0  0.00000000000E+00  0.00000000000E+00  0.45593999997E+02  0.45594000000E+02  0.51100000000E-03 0.  1.
         11   -1    0    0    0    0 -0.00000000000E+00 -0.00000000000E+00 -0.45593999997E+02  0.45594000000E+02  0.51100000000E-03 0. -1.
    9900012    2    1    2    0    0 -0.35250496465E+02 -0.25294909703E+01  0.25191804194E+02  0.47787276225E+02  0.20000023622E+02 0.  0.
         12    1    1    2    0    0  0.35250496465E+02  0.25294909703E+01 -0.25191804194E+02  0.43400723775E+02  0.00000000000E+00 0. -1.
         11    1    3    3    0    0 -0.21416875570E+02 -0.49258060780E+00  0.11511914503E+02  0.24319732124E+02  0.51100000000E-03 0. -1.
        -11    1    3    3    0    0 -0.54971908467E+01 -0.39113428763E+01  0.13301415897E+02  0.14914602758E+02  0.51100000000E-03 0.  1.
        -12    1    3    3    0    0 -0.83364300491E+01  0.18744325138E+01  0.37847379482E+00  0.85529413435E+01  0.00000000000E+00 0.  1.
</event>
<event>
 7    1  0.2706925E-010  0.4778727E+02  0.7816164E-02  0.1312668E+00
        -11   -1    0    0    0    0  0.00000000000E+00  0.00000000000E+00  0.45593999997E+02  0.45594000000E+02  0.51100000000E-03 0. -1.
         11   -1    0    0    0    0 -0.00000000000E+00 -0.00000000000E+00 -0.45593999997E+02  0.45594000000E+02  0.51100000000E-03 0.  1.
    9900012    2    1    2    0    0  0.26766155138E+02  0.22669216847E+02 -0.25559786810E+02  0.47787272413E+02  0.20000006239E+02 0.  0.
         12    1    1    2    0    0 -0.26766155138E+02 -0.22669216847E+02  0.25559786810E+02  0.43400727587E+02  0.00000000000E+00 0. -1.
         11    1    3    3    0    0  0.22147511783E+01  0.56751856220E+01 -0.65956253278E+00  0.61276323015E+01  0.51100000000E-03 0. -1.
        -11    1    3    3    0    0  0.26603290810E+01  0.23396534853E+01 -0.11640003631E+02  0.12167210610E+02  0.51100000000E-03 0.  1.
        -12    1    3    3    0    0  0.21891074878E+02  0.14654377740E+02 -0.13260220647E+02  0.29492429501E+02  0.00000000000E+00 0.  1.
</event>
<event>
 7    1  0.2706925E-010  0.4778728E+02  0.7816164E-02  0.1312668E+00
        -11   -1    0    0    0    0  0.00000000000E+00  0.00000000000E+00  0.45593999997E+02  0.45594000000E+02  0.51100000000E-03 0.  1.
         11   -1    0    0    0    0 -0.00000000000E+00 -0.00000000000E+00 -0.45593999997E+02  0.45594000000E+02  0.51100000000E-03 0. -1.
    9900012    2    1    2    0    0  0.10372763478E+02 -0.27636368329E+02  0.31816029741E+02  0.47787276215E+02  0.20000023574E+02 0.  0.
         12    1    1    2    0    0 -0.10372763478E+02  0.27636368329E+02 -0.31816029741E+02  0.43400723785E+02  0.00000000000E+00 0. -1.
         11    1    3    3    0    0  0.75517014009E+01 -0.17055206077E+02  0.89745604537E+01  0.20699057562E+02  0.51100000000E-03 0. -1.
        -11    1    3    3    0    0  0.48433111058E+01 -0.27524487435E+01  0.49409360353E+01  0.74462397033E+01  0.51100000000E-03 0.  1.
         12    1    3    3    0    0 -0.20222490288E+01 -0.78287135086E+01  0.17900533252E+02  0.19641978949E+02  0.00000000000E+00 0. -1.
</event>
<event>
 7    1  0.2706925E-010  0.4778727E+02  0.7816164E-02  0.1312668E+00
        -11   -1    0    0    0    0  0.00000000000E+00  0.00000000000E+00  0.45593999997E+02  0.45594000000E+02  0.51100000000E-03 0. -1.
         11   -1    0    0    0    0 -0.00000000000E+00 -0.00000000000E+00 -0.45593999997E+02  0.45594000000E+02  0.51100000000E-03 0.  1.
    9900012    2    1    2    0    0 -0.29010095712E+02  0.30419449230E+02  0.10802546762E+02  0.47787267734E+02  0.19999984907E+02 0.  0.
         12    1    1    2    0    0  0.29010095712E+02 -0.30419449230E+02 -0.10802546762E+02  0.43400732266E+02  0.00000000000E+00 0. -1.
         11    1    3    3    0    0 -0.15323509558E+02  0.78403373539E+01 -0.71497313219E+00  0.17227652824E+02  0.51100000000E-03 0.  1.
        -11    1    3    3    0    0 -0.16071242182E+01  0.11223114235E+02  0.71886666008E+01  0.13424532362E+02  0.51100000000E-03 0. -1.
         12    1    3    3    0    0 -0.12079461936E+02  0.11355997641E+02  0.43288532930E+01  0.17135082548E+02  0.00000000000E+00 0. -1.
</event>
<event>
 7    1  0.2706925E-010  0.4778727E+02  0.7816164E-02  0.1312668E+00
        -11   -1    0    0    0    0  0.00000000000E+00  0.00000000000E+00  0.45593999997E+02  0.45594000000E+02  0.51100000000E-03 0.  1.
         11   -1    0    0    0    0 -0.00000000000E+00 -0.00000000000E+00 -0.45593999997E+02  0.45594000000E+02  0.51100000000E-03 0. -1.
    9900012    2    1    2    0    0 -0.83781301968E+01  0.36333337445E+02  0.22210779443E+02  0.47787271907E+02  0.20000003933E+02 0.  0.
         12    1    1    2    0    0  0.83781301968E+01 -0.36333337445E+02 -0.22210779443E+02  0.43400728093E+02  0.00000000000E+00 0. -1.
         11    1    3    3    0    0 -0.30523654405E+01  0.11913323934E+02  0.17116503949E+02  0.21076501836E+02  0.51100000000E-03 0. -1.
        -11    1    3    3    0    0 -0.57539018733E+01  0.24728480098E+02  0.42901892384E+01  0.25748996848E+02  0.51100000000E-03 0.  1.
        -12    1    3    3    0    0  0.42813711697E+00 -0.30846658639E+00  0.80408625598E+00  0.96177322322E+00  0.00000000000E+00 0.  1.
</event>
<event>
 7    1  0.2706925E-010  0.4778727E+02  0.7816164E-02  0.1312668E+00
        -11   -1    0    0    0    0  0.00000000000E+00  0.00000000000E+00  0.45593999997E+02  0.45594000000E+02  0.51100000000E-03 0.  1.
         11   -1    0    0    0    0 -0.00000000000E+00 -0.00000000000E+00 -0.45593999997E+02  0.45594000000E+02  0.51100000000E-03 0. -1.
    9900012    2    1    2    0    0 -0.21296792301E+02 -0.24487582362E+01  0.37736894780E+02  0.47787274121E+02  0.20000014025E+02 0.  0.
         12    1    1    2    0    0  0.21296792301E+02  0.24487582362E+01 -0.37736894780E+02  0.43400725879E+02  0.00000000000E+00 0. -1.
         11    1    3    3    0    0  0.21133892086E+01 -0.57591816185E+00  0.40451078885E+00  0.22274929665E+01  0.51100000000E-03 0. -1.
        -11    1    3    3    0    0 -0.21856769426E+02 -0.36291178665E+01  0.26814434756E+02  0.34783656762E+02  0.51100000000E-03 0.  1.
        -12    1    3    3    0    0 -0.15534120836E+01  0.17562777922E+01  0.10517949236E+02  0.10776124392E+02  0.00000000000E+00 0.  1.
</event>
<event>
 7    1  0.2706925E-010  0.4778727E+02  0.7816164E-02  0.1312668E+00
        -11   -1    0    0    0    0  0.00000000000E+00  0.00000000000E+00  0.45593999997E+02  0.45594000000E+02  0.51100000000E-03 0. -1.
         11   -1    0    0    0    0 -0.00000000000E+00 -0.00000000000E+00 -0.45593999997E+02  0.45594000000E+02  0.51100000000E-03 0.  1.
    9900012    2    1    2    0    0 -0.19587535195E+01 -0.23601390790E+02 -0.36369778513E+02  0.47787272453E+02  0.20000006422E+02 0.  0.
         12    1    1    2    0    0  0.19587535195E+01  0.23601390790E+02  0.36369778513E+02  0.43400727547E+02  0.00000000000E+00 0. -1.
         11    1    3    3    0    0 -0.73961728037E+01 -0.16482495424E+02 -0.22533162016E+02  0.28881125640E+02  0.51100000000E-03 0.  1.
        -11    1    3    3    0    0 -0.17577339059E+01 -0.30041600962E+01 -0.99170929206E+00  0.36191288936E+01  0.51100000000E-03 0. -1.
         12    1    3    3    0    0  0.71951531900E+01 -0.41147352698E+01 -0.12844907205E+02  0.15287017919E+02  0.00000000000E+00 0. -1.
</event>
<event>
 7    1  0.2706925E-010  0.4778729E+02  0.7816164E-02  0.1312668E+00
        -11   -1    0    0    0    0  0.00000000000E+00  0.00000000000E+00  0.45593999997E+02  0.45594000000E+02  0.51100000000E-03 0. -1.
         11   -1    0    0    0    0 -0.00000000000E+00 -0.00000000000E+00 -0.45593999997E+02  0.45594000000E+02  0.51100000000E-03 0.  1.
    9900012    2    1    2    0    0 -0.16279575719E+02  0.38262274979E+02  0.12433637355E+02  0.47787290213E+02  0.20000087395E+02 0.  0.
         12    1    1    2    0    0  0.16279575719E+02 -0.38262274979E+02 -0.12433637355E+02  0.43400709787E+02  0.00000000000E+00 0. -1.
         11    1    3    3    0    0 -0.62840437479E+01  0.71700186801E+00  0.37804372174E+01  0.73685143224E+01  0.51100000000E-03 0. -1.
        -11    1    3    3    0    0 -0.94933371593E+00  0.17003810584E+02  0.40875118571E+01  0.17513953361E+02  0.51100000000E-03 0.  1.
        -12    1    3    3    0    0 -0.90461982550E+01  0.20541462527E+02  0.45656882807E+01  0.22904822530E+02  0.00000000000E+00 0.  1.
</event>
<event>
 7    1  0.2706925E-010  0.4778727E+02  0.7816164E-02  0.1312668E+00
        -11   -1    0    0    0    0  0.00000000000E+00  0.00000000000E+00  0.45593999997E+02  0.45594000000E+02  0.51100000000E-03 0.  1.
         11   -1    0    0    0    0 -0.00000000000E+00 -0.00000000000E+00 -0.45593999997E+02  0.45594000000E+02  0.51100000000E-03 0. -1.
    9900012    2    1    2    0    0 -0.19982882707E+02 -0.37160853168E+02  0.10167517284E+02  0.47787274002E+02  0.20000013483E+02 0.  0.
         12    1    1    2    0    0  0.19982882707E+02  0.37160853168E+02 -0.10167517284E+02  0.43400725998E+02  0.00000000000E+00 0. -1.
         11    1    3    3    0    0  0.56158065650E+00 -0.16350345325E+02  0.49647781258E+01  0.17096730307E+02  0.51100000000E-03 0. -1.
        -11    1    3    3    0    0 -0.12430553063E+02 -0.13849639830E+02  0.69356857498E+01  0.19860385443E+02  0.51100000000E-03 0.  1.
         12    1    3    3    0    0 -0.81139103009E+01 -0.69608680136E+01 -0.17329465919E+01  0.10830158252E+02  0.00000000000E+00 0. -1.
</event>
<event>
 7    1  0.2706925E-010  0.4778727E+02  0.7816164E-02  0.1312668E+00
        -11   -1    0    0    0    0  0.00000000000E+00  0.00000000000E+00  0.45593999997E+02  0.45594000000E+02  0.51100000000E-03 0. -1.
         11   -1    0    0    0    0 -0.00000000000E+00 -0.00000000000E+00 -0.45593999997E+02  0.45594000000E+02  0.51100000000E-03 0.  1.
    9900012    2    1    2    0    0 -0.18884327111E+01 -0.65799051254E+01 -0.42857460286E+02  0.47787271530E+02  0.20000002216E+02 0.  0.
         12    1    1    2    0    0  0.18884327111E+01  0.65799051254E+01  0.42857460286E+02  0.43400728470E+02  0.00000000000E+00 0. -1.
         11    1    3    3    0    0  0.25234751007E+00  0.38532942237E+01 -0.11095713626E+01  0.40177984656E+01  0.51100000000E-03 0. -1.
        -11    1    3    3    0    0 -0.48814227193E+01 -0.60142681603E+01 -0.21098839775E+02  0.22475781397E+02  0.51100000000E-03 0.  1.
        -12    1    3    3    0    0  0.27406424981E+01 -0.44189311887E+01 -0.20649049148E+02  0.21293691668E+02  0.00000000000E+00 0.  1.
</event>
<event>
 7    1  0.2706925E-010  0.4778727E+02  0.7816164E-02  0.1312668E+00
        -11   -1    0    0    0    0  0.00000000000E+00  0.00000000000E+00  0.45593999997E+02  0.45594000000E+02  0.51100000000E-03 0.  1.
         11   -1    0    0    0    0 -0.00000000000E+00 -0.00000000000E+00 -0.45593999997E+02  0.45594000000E+02  0.51100000000E-03 0. -1.
    9900012    2    1    2    0    0 -0.27388740944E+02 -0.13137561471E+00  0.33666945749E+02  0.47787266987E+02  0.19999981499E+02 0.  0.
         12    1    1    2    0    0  0.27388740944E+02  0.13137561471E+00 -0.33666945749E+02  0.43400733013E+02  0.00000000000E+00 0. -1.
         11    1    3    3    0    0 -0.89077234967E+00 -0.22872342751E+01  0.30528866886E+01  0.39172737207E+01  0.51100000000E-03 0. -1.
        -11    1    3    3    0    0 -0.10302168486E+02 -0.21077243514E-02  0.24228048783E+02  0.26327419700E+02  0.51100000000E-03 0.  1.
        -12    1    3    3    0    0 -0.16195800108E+02  0.21579663847E+01  0.63860102773E+01  0.17542573566E+02  0.00000000000E+00 0.  1.
</event>
<event>
 7    1  0.2706925E-010  0.4778728E+02  0.7816164E-02  0.1312668E+00
        -11   -1    0    0    0    0  0.00000000000E+00  0.00000000000E+00  0.45593999997E+02  0.45594000000E+02  0.51100000000E-03 0.  1.
         11   -1    0    0    0    0 -0.00000000000E+00 -0.00000000000E+00 -0.45593999997E+02  0.45594000000E+02  0.51100000000E-03 0. -1.
    9900012    2    1    2    0    0  0.81376299336E+01  0.35006539897E+02  0.24329897068E+02  0.47787277105E+02  0.20000027633E+02 0.  0.
         12    1    1    2    0    0 -0.81376299336E+01 -0.35006539897E+02 -0.24329897068E+02  0.43400722895E+02  0.00000000000E+00 0. -1.
         11    1    3    3    0    0  0.77927881157E+01  0.39043832073E+01  0.88482135878E+01  0.12420251157E+02  0.51100000000E-03 0. -1.
        -11    1    3    3    0    0  0.34541250300E+01  0.16496241660E+02  0.77376684745E+01  0.18545308903E+02  0.51100000000E-03 0.  1.
         12    1    3    3    0    0 -0.31092832121E+01  0.14605915030E+02  0.77440150052E+01  0.16821717045E+02  0.00000000000E+00 0. -1.
</event>
<event>
 7    1  0.2706925E-010  0.4778727E+02  0.7816164E-02  0.1312668E+00
        -11   -1    0    0    0    0  0.00000000000E+00  0.00000000000E+00  0.45593999997E+02  0.45594000000E+02  0.51100000000E-03 0. -1.
         11   -1    0    0    0    0 -0.00000000000E+00 -0.00000000000E+00 -0.45593999997E+02  0.45594000000E+02  0.51100000000E-03 0.  1.
    9900012    2    1    2    0    0 -0.22669837982E+02  0.34212779516E+02 -0.14113371519E+02  0.47787273140E+02  0.20000009553E+02 0.  0.
         12    1    1    2    0    0  0.22669837982E+02 -0.34212779516E+02  0.14113371519E+02  0.43400726860E+02  0.00000000000E+00 0. -1.
         11    1    3    3    0    0  0.21431094888E+01  0.76407519876E+01  0.12877634546E+01  0.80394243695E+01  0.51100000000E-03 0. -1.
        -11    1    3    3    0    0 -0.12619320503E+02  0.16506362348E+02 -0.98093070799E+01  0.22976721994E+02  0.51100000000E-03 0.  1.
         12    1    3    3    0    0 -0.12193626968E+02  0.10065665181E+02 -0.55918278937E+01  0.16771126776E+02  0.00000000000E+00 0. -1.
</event>
<event>
 7    1  0.2706925E-010  0.4778727E+02  0.7816164E-02  0.1312668E+00
        -11   -1    0    0    0    0  0.00000000000E+00  0.00000000000E+00  0.45593999997E+02  0.45594000000E+02  0.51100000000E-03 0.  1.
         11   -1    0    0    0    0 -0.00000000000E+00 -0.00000000000E+00 -0.45593999997E+02  0.45594000000E+02  0.51100000000E-03 0. -1.
    9900012    2    1    2    0    0 -0.38172882942E+02  0.15451770856E+02  0.13700259403E+02  0.47787270485E+02  0.19999997451E+02 0.  0.
         12    1    1    2    0    0  0.38172882942E+02 -0.15451770856E+02 -0.13700259403E+02  0.43400729515E+02  0.00000000000E+00 0. -1.
         11    1    3    3    0    0 -0.99143913717E+01  0.30246975370E+01  0.88933818951E-01  0.10365898945E+02  0.51100000000E-03 0. -1.
        -11    1    3    3    0    0 -0.29505478733E+02  0.11271449829E+02  0.15237703943E+02  0.35068596753E+02  0.51100000000E-03 0.  1.
        -12    1    3    3    0    0  0.12469871628E+01  0.11556234899E+01 -0.16263783582E+01  0.23527747870E+01  0.00000000000E+00 0.  1.
</event>
<event>
 7    1  0.2706925E-010  0.4778727E+02  0.7816164E-02  0.1312668E+00
        -11   -1    0    0    0    0  0.00000000000E+00  0.00000000000E+00  0.45593999997E+02  0.45594000000E+02  0.51100000000E-03 0.  1.
         11   -1    0    0    0    0 -0.00000000000E+00 -0.00000000000E+00 -0.45593999997E+02  0.45594000000E+02  0.51100000000E-03 0. -1.
    9900012    2    1    2    0    0  0.22174096782E+02 -0.37129884198E+02 -0.36475464023E+01  0.47787268861E+02  0.19999990043E+02 0.  0.
         12    1    1    2    0    0 -0.22174096782E+02  0.37129884198E+02  0.36475464023E+01  0.43400731139E+02  0.00000000000E+00 0. -1.
         11    1    3    3    0    0  0.10300695126E+02 -0.34066893090E+01 -0.14086465524E+01  0.10940481594E+02  0.51100000000E-03 0. -1.
        -11    1    3    3    0    0  0.97554150205E+01 -0.19939691869E+02 -0.46887151203E+01  0.22687959004E+02  0.51100000000E-03 0.  1.
         12    1    3    3    0    0  0.21179866351E+01 -0.13783503021E+02  0.24498152704E+01  0.14158828263E+02  0.00000000000E+00 0. -1.
</event>
<event>
 7    1  0.2706925E-010  0.4778727E+02  0.7816164E-02  0.1312668E+00
        -11   -1    0    0    0    0  0.00000000000E+00  0.00000000000E+00  0.45593999997E+02  0.45594000000E+02  0.51100000000E-03 0.  1.
         11   -1    0    0    0    0 -0.00000000000E+00 -0.00000000000E+00 -0.45593999997E+02  0.45594000000E+02  0.51100000000E-03 0. -1.
    9900012    2    1    2    0    0  0.10799887164E+02 -0.31178469409E+02  0.28193771624E+02  0.47787271022E+02  0.19999999899E+02 0.  0.
         12    1    1    2    0    0 -0.10799887164E+02  0.31178469409E+02 -0.28193771624E+02  0.43400728978E+02  0.00000000000E+00 0. -1.
         11    1    3    3    0    0  0.35535824183E+01 -0.22343303929E+01  0.10580287572E+02  0.11382559715E+02  0.51100000000E-03 0. -1.
        -11    1    3    3    0    0  0.18058744723E+01 -0.16979716353E+02  0.41146832519E+01  0.17564241189E+02  0.51100000000E-03 0.  1.
        -12    1    3    3    0    0  0.54404302732E+01 -0.11964422663E+02  0.13498800800E+02  0.18840470118E+02  0.00000000000E+00 0.  1.
</event>
<event>
 7    1  0.2706925E-010  0.4778727E+02  0.7816164E-02  0.1312668E+00
        -11   -1    0    0    0    0  0.00000000000E+00  0.00000000000E+00  0.45593999997E+02  0.45594000000E+02  0.51100000000E-03 0.  1.
         11   -1    0    0    0    0 -0.00000000000E+00 -0.00000000000E+00 -0.45593999997E+02  0.45594000000E+02  0.51100000000E-03 0. -1.
    9900012    2    1    2    0    0  0.42416763556E+01 -0.47318010097E+01  0.42932987637E+02  0.47787272051E+02  0.20000004589E+02 0.  0.
         12    1    1    2    0    0 -0.42416763556E+01  0.47318010097E+01 -0.42932987637E+02  0.43400727949E+02  0.00000000000E+00 0. -1.
         11    1    3    3    0    0 -0.32851376130E+01  0.45728699986E+01  0.98276268843E+01  0.11326319773E+02  0.51100000000E-03 0. -1.
        -11    1    3    3    0    0  0.65039084068E+01 -0.64289423582E+01  0.11754189699E+02  0.14892719703E+02  0.51100000000E-03 0.  1.
        -12    1    3    3    0    0  0.10229055617E+01 -0.28757286501E+01  0.21351171054E+02  0.21568232575E+02  0.00000000000E+00 0.  1.
</event>
<event>
 7    1  0.2706925E-010  0.4778727E+02  0.7816164E-02  0.1312668E+00
        -11   -1    0    0    0    0  0.00000000000E+00  0.00000000000E+00  0.45593999997E+02  0.45594000000E+02  0.51100000000E-03 0.  1.
         11   -1    0    0    0    0 -0.00000000000E+00 -0.00000000000E+00 -0.45593999997E+02  0.45594000000E+02  0.51100000000E-03 0. -1.
    9900012    2    1    2    0    0 -0.43187782403E+02  0.29946552231E+01 -0.30774141779E+01  0.47787274352E+02  0.20000015079E+02 0.  0.
         12    1    1    2    0    0  0.43187782403E+02 -0.29946552231E+01  0.30774141779E+01  0.43400725648E+02  0.00000000000E+00 0. -1.
         11    1    3    3    0    0 -0.12786582489E+01  0.22571351858E+01 -0.22562202267E+01  0.34380453948E+01  0.51100000000E-03 0. -1.
        -11    1    3    3    0    0 -0.20293943637E+02 -0.50680298538E+01  0.43816534359E+01  0.21371194680E+02  0.51100000000E-03 0.  1.
        -12    1    3    3    0    0 -0.21615180517E+02  0.58055498911E+01 -0.52028473872E+01  0.22978034277E+02  0.00000000000E+00 0.  1.
</event>
<event>
 7    1  0.2706925E-010  0.4778727E+02  0.7816164E-02  0.1312668E+00
        -11   -1    0    0    0    0  0.00000000000E+00  0.00000000000E+00  0.45593999997E+02  0.45594000000E+02  0.51100000000E-03 0.  1.
         11   -1    0    0    0    0 -0.00000000000E+00 -0.00000000000E+00 -0.45593999997E+02  0.45594000000E+02  0.51100000000E-03 0. -1.
    9900012    2    1    2    0    0 -0.22442537098E+02  0.31551367082E+01  0.37013519788E+02  0.47787274129E+02  0.20000014065E+02 0.  0.
         12    1    1    2    0    0  0.22442537098E+02 -0.31551367082E+01 -0.37013519788E+02  0.43400725871E+02  0.00000000000E+00 0. -1.
         11    1    3    3    0    0 -0.15927166270E+02 -0.31668425921E+01  0.13169429869E+02  0.20907831086E+02  0.51100000000E-03 0. -1.
        -11    1    3    3    0    0 -0.18295884526E+00  0.60412944956E+01  0.12500926359E+02  0.13885383438E+02  0.51100000000E-03 0.  1.
         12    1    3    3    0    0 -0.63324119825E+01  0.28068480473E+00  0.11343163560E+02  0.12994059606E+02  0.00000000000E+00 0. -1.
</event>
<event>
 7    1  0.2706925E-010  0.4778727E+02  0.7816164E-02  0.1312668E+00
        -11   -1    0    0    0    0  0.00000000000E+00  0.00000000000E+00  0.45593999997E+02  0.45594000000E+02  0.51100000000E-03 0.  1.
         11   -1    0    0    0    0 -0.00000000000E+00 -0.00000000000E+00 -0.45593999997E+02  0.45594000000E+02  0.51100000000E-03 0. -1.
    9900012    2    1    2    0    0  0.49025109889E+01  0.29190612380E+02  0.31741088054E+02  0.47787272633E+02  0.20000007243E+02 0.  0.
         12    1    1    2    0    0 -0.49025109889E+01 -0.29190612380E+02 -0.31741088054E+02  0.43400727367E+02  0.00000000000E+00 0. -1.
         11    1    3    3    0    0 -0.31102232483E+01  0.67701688767E+01  0.16229694764E+02  0.17858098098E+02  0.51100000000E-03 0.  1.
        -11    1    3    3    0    0  0.34566259755E+01  0.65392684761E+01  0.19372601669E+00  0.73991773440E+01  0.51100000000E-03 0. -1.
        -12    1    3    3    0    0  0.45561082618E+01  0.15881175027E+02  0.15317667274E+02  0.22529997191E+02  0.00000000000E+00 0.  1.
</event>
<event>
 7    1  0.2706925E-010  0.4778727E+02  0.7816164E-02  0.1312668E+00
        -11   -1    0    0    0    0  0.00000000000E+00  0.00000000000E+00  0.45593999997E+02  0.45594000000E+02  0.51100000000E-03 0.  1.
         11   -1    0    0    0    0 -0.00000000000E+00 -0.00000000000E+00 -0.45593999997E+02  0.45594000000E+02  0.51100000000E-03 0. -1.
    9900012    2    1    2    0    0  0.26097024297E+02 -0.16992894719E+02  0.30229291105E+02  0.47787272025E+02  0.20000004469E+02 0.  0.
         12    1    1    2    0    0 -0.26097024297E+02  0.16992894719E+02 -0.30229291105E+02  0.43400727975E+02  0.00000000000E+00 0. -1.
         11    1    3    3    0    0  0.80506990859E+01 -0.13445822218E+02  0.52635974495E+01  0.16532070326E+02  0.51100000000E-03 0. -1.
        -11    1    3    3    0    0  0.98596383139E+01 -0.38864017390E+01  0.13509719382E+02  0.17170588347E+02  0.51100000000E-03 0.  1.
         12    1    3    3    0    0  0.81866868971E+01  0.33932923856E+00  0.11455974274E+02  0.14084613351E+02  0.00000000000E+00 0. -1.
</event>
<event>
 7    1  0.2706925E-010  0.4778727E+02  0.7816164E-02  0.1312668E+00
        -11   -1    0    0    0    0  0.00000000000E+00  0.00000000000E+00  0.45593999997E+02  0.45594000000E+02  0.51100000000E-03 0.  1.
         11   -1    0    0    0    0 -0.00000000000E+00 -0.00000000000E+00 -0.45593999997E+02  0.45594000000E+02  0.51100000000E-03 0. -1.
    9900012    2    1    2    0    0 -0.37139507917E+01 -0.42497633040E+02  0.79863063980E+01  0.47787270348E+02  0.19999996823E+02 0.  0.
         12    1    1    2    0    0  0.37139507917E+01  0.42497633040E+02 -0.79863063980E+01  0.43400729652E+02  0.00000000000E+00 0. -1.
         11    1    3    3    0    0  0.64205503795E+00 -0.10415255976E+02  0.58376311698E+01  0.11956911376E+02  0.51100000000E-03 0. -1.
        -11    1    3    3    0    0 -0.92805945407E+01 -0.23605905086E+02 -0.14034043068E+01  0.25403498457E+02  0.51100000000E-03 0.  1.
        -12    1    3    3    0    0  0.49245887111E+01 -0.84764719780E+01  0.35520795350E+01  0.10426860515E+02  0.00000000000E+00 0.  1.
</event>
<event>
 7    1  0.2706925E-010  0.4778727E+02  0.7816164E-02  0.1312668E+00
        -11   -1    0    0    0    0  0.00000000000E+00  0.00000000000E+00  0.45593999997E+02  0.45594000000E+02  0.51100000000E-03 0.  1.
         11   -1    0    0    0    0 -0.00000000000E+00 -0.00000000000E+00 -0.45593999997E+02  0.45594000000E+02  0.51100000000E-03 0. -1.
    9900012    2    1    2    0    0  0.57255114323E+01 -0.41870912907E+02  0.98827531976E+01  0.47787266831E+02  0.19999980788E+02 0.  0.
         12    1    1    2    0    0 -0.57255114323E+01  0.41870912907E+02 -0.98827531976E+01  0.43400733169E+02  0.00000000000E+00 0. -1.
         11    1    3    3    0    0 -0.26808119055E+01 -0.81479853775E+01 -0.22242571434E+01  0.88613621011E+01  0.51100000000E-03 0. -1.
        -11    1    3    3    0    0  0.86534360398E+01 -0.18081320099E+02  0.11838244029E+02  0.23280036807E+02  0.51100000000E-03 0.  1.
        -12    1    3    3    0    0 -0.24711270202E+00 -0.15641607431E+02  0.26876631255E+00  0.15645867922E+02  0.00000000000E+00 0.  1.
</event>
<event>
 7    1  0.2706925E-010  0.4778727E+02  0.7816164E-02  0.1312668E+00
        -11   -1    0    0    0    0  0.00000000000E+00  0.00000000000E+00  0.45593999997E+02  0.45594000000E+02  0.51100000000E-03 0.  1.
         11   -1    0    0    0    0 -0.00000000000E+00 -0.00000000000E+00 -0.45593999997E+02  0.45594000000E+02  0.51100000000E-03 0. -1.
    9900012    2    1    2    0    0  0.31630632201E+02  0.22172915176E+02  0.19786061115E+02  0.47787271028E+02  0.19999999927E+02 0.  0.
         12    1    1    2    0    0 -0.31630632201E+02 -0.22172915176E+02 -0.19786061115E+02  0.43400728972E+02  0.00000000000E+00 0. -1.
         11    1    3    3    0    0  0.14253295840E+02  0.64565202255E+01  0.94253540526E+01  0.18266920786E+02  0.51100000000E-03 0. -1.
        -11    1    3    3    0    0  0.25458354377E+01 -0.24710028257E+01  0.36981023996E+01  0.51247531316E+01  0.51100000000E-03 0.  1.
        -12    1    3    3    0    0  0.14831500923E+02  0.18187397776E+02  0.66626046632E+01  0.24395597111E+02  0.00000000000E+00 0.  1.
</event>
<event>
 7    1  0.2706925E-010  0.4778727E+02  0.7816164E-02  0.1312668E+00
        -11   -1    0    0    0    0  0.00000000000E+00  0.00000000000E+00  0.45593999997E+02  0.45594000000E+02  0.51100000000E-03 0.  1.
         11   -1    0    0    0    0 -0.00000000000E+00 -0.00000000000E+00 -0.45593999997E+02  0.45594000000E+02  0.51100000000E-03 0. -1.
    9900012    2    1    2    0    0 -0.14828629459E+02  0.20714938256E+01  0.40736270795E+02  0.47787273087E+02  0.20000009313E+02 0.  0.
         12    1    1    2    0    0  0.14828629459E+02 -0.20714938256E+01 -0.40736270795E+02  0.43400726913E+02  0.00000000000E+00 0. -1.
         11    1    3    3    0    0 -0.15256831221E+01  0.20517783565E+01  0.57175520813E+00  0.26200014680E+01  0.51100000000E-03 0. -1.
        -11    1    3    3    0    0  0.34665364799E+01 -0.25081189078E+00  0.39742294687E+01  0.52796100141E+01  0.51100000000E-03 0.  1.
        -12    1    3    3    0    0 -0.16769482816E+02  0.27052735985E+00  0.36190286118E+02  0.39887661605E+02  0.00000000000E+00 0.  1.
</event>
<event>
 7    1  0.2706925E-010  0.4778727E+02  0.7816164E-02  0.1312668E+00
        -11   -1    0    0    0    0  0.00000000000E+00  0.00000000000E+00  0.45593999997E+02  0.45594000000E+02  0.51100000000E-03 0.  1.
         11   -1    0    0    0    0 -0.00000000000E+00 -0.00000000000E+00 -0.45593999997E+02  0.45594000000E+02  0.51100000000E-03 0. -1.
    9900012    2    1    2    0    0  0.23638689010E+02 -0.65791492223E+01  0.35798750956E+02  0.47787269677E+02  0.19999993766E+02 0.  0.
         12    1    1    2    0    0 -0.23638689010E+02  0.65791492223E+01 -0.35798750956E+02  0.43400730323E+02  0.00000000000E+00 0. -1.
         11    1    3    3    0    0  0.12322843314E+02 -0.15622253402E+01  0.58916426385E+01  0.13747889605E+02  0.51100000000E-03 0. -1.
        -11    1    3    3    0    0 -0.12004603731E+01 -0.33045571623E+01  0.82347921651E+01  0.89539379833E+01  0.51100000000E-03 0.  1.
         12    1    3    3    0    0  0.12516306069E+02 -0.17123667197E+01  0.21672316152E+02  0.25085442089E+02  0.00000000000E+00 0. -1.
</event>
<event>
 7    1  0.2706925E-010  0.4778727E+02  0.7816164E-02  0.1312668E+00
        -11   -1    0    0    0    0  0.00000000000E+00  0.00000000000E+00  0.45593999997E+02  0.45594000000E+02  0.51100000000E-03 0.  1.
         11   -1    0    0    0    0 -0.00000000000E+00 -0.00000000000E+00 -0.45593999997E+02  0.45594000000E+02  0.51100000000E-03 0. -1.
    9900012    2    1    2    0    0 -0.40014866983E+02  0.16188755377E+02 -0.45119585554E+01  0.47787272468E+02  0.20000006491E+02 0.  0.
         12    1    1    2    0    0  0.40014866983E+02 -0.16188755377E+02  0.45119585554E+01  0.43400727532E+02  0.00000000000E+00 0. -1.
         11    1    3    3    0    0 -0.14136745872E+02 -0.15125737900E+01  0.31417666776E+01  0.14560431361E+02  0.51100000000E-03 0. -1.
        -11    1    3    3    0    0 -0.13330419802E+02  0.10047497393E+02 -0.81453682192E-01  0.16693080331E+02  0.51100000000E-03 0.  1.
         12    1    3    3    0    0 -0.12547701309E+02  0.76538317735E+01 -0.75722715508E+01  0.16533760776E+02  0.00000000000E+00 0. -1.
</event>
<event>
 7    1  0.2706925E-010  0.4778728E+02  0.7816164E-02  0.1312668E+00
        -11   -1    0    0    0    0  0.00000000000E+00  0.00000000000E+00  0.45593999997E+02  0.45594000000E+02  0.51100000000E-03 0.  1.
         11   -1    0    0    0    0 -0.00000000000E+00 -0.00000000000E+00 -0.45593999997E+02  0.45594000000E+02  0.51100000000E-03 0. -1.
    9900012    2    1    2    0    0 -0.29197447361E+02 -0.32056091908E+02  0.18810831560E+01  0.47787280713E+02  0.20000044081E+02 0.  0.
         12    1    1    2    0    0  0.29197447361E+02  0.32056091908E+02 -0.18810831560E+01  0.43400719287E+02  0.00000000000E+00 0. -1.
         11    1    3    3    0    0  0.24066772133E+01 -0.28717694131E+01  0.70567346158E+00  0.38127588524E+01  0.51100000000E-03 0. -1.
        -11    1    3    3    0    0 -0.17675574568E+02 -0.10870411122E+02  0.26463691888E+01  0.20918772537E+02  0.51100000000E-03 0.  1.
         12    1    3    3    0    0 -0.13928550006E+02 -0.18313911373E+02 -0.14709594944E+01  0.23055749324E+02  0.00000000000E+00 0. -1.
</event>
<event>
 7    1  0.2706925E-010  0.4778727E+02  0.7816164E-02  0.1312668E+00
        -11   -1    0    0    0    0  0.00000000000E+00  0.00000000000E+00  0.45593999997E+02  0.45594000000E+02  0.51100000000E-03 0. -1.
         11   -1    0    0    0    0 -0.00000000000E+00 -0.00000000000E+00 -0.45593999997E+02  0.45594000000E+02  0.51100000000E-03 0.  1.
    9900012    2    1    2    0    0 -0.38261863903E+02  0.20160832562E+02  0.36323581841E+01  0.47787269305E+02  0.19999992069E+02 0.  0.
         12    1    1    2    0    0  0.38261863903E+02 -0.20160832562E+02 -0.36323581841E+01  0.43400730695E+02  0.00000000000E+00 0. -1.
         11    1    3    3    0    0 -0.27838028030E+01  0.59593295044E+00  0.24597640840E+01  0.37623308915E+01  0.51100000000E-03 0. -1.
        -11    1    3    3    0    0 -0.28810112370E+02  0.10499716799E+02  0.68513882449E+01  0.31419868694E+02  0.51100000000E-03 0.  1.
        -12    1    3    3    0    0 -0.66679487299E+01  0.90651828128E+01 -0.56787941448E+01  0.12605069720E+02  0.00000000000E+00 0.  1.
</event>
<event>
 7    1  0.2706925E-010  0.4778727E+02  0.7816164E-02  0.1312668E+00
        -11   -1    0    0    0    0  0.00000000000E+00  0.00000000000E+00  0.45593999997E+02  0.45594000000E+02  0.51100000000E-03 0.  1.
         11   -1    0    0    0    0 -0.00000000000E+00 -0.00000000000E+00 -0.45593999997E+02  0.45594000000E+02  0.51100000000E-03 0. -1.
    9900012    2    1    2    0    0 -0.13362539589E+02  0.67395524918E-01  0.41292388281E+02  0.47787270324E+02  0.19999996716E+02 0.  0.
         12    1    1    2    0    0  0.13362539589E+02 -0.67395524918E-01 -0.41292388281E+02  0.43400729676E+02  0.00000000000E+00 0. -1.
         11    1    3    3    0    0 -0.81895379209E-01 -0.21019403730E+01  0.41250147818E+01  0.46304003494E+01  0.51100000000E-03 0. -1.
        -11    1    3    3    0    0 -0.78511791103E+00  0.59091716912E+00 -0.18839079377E+01  0.21247829569E+01  0.51100000000E-03 0.  1.
        -12    1    3    3    0    0 -0.12495526299E+02  0.15784187288E+01  0.39051281437E+02  0.41032087018E+02  0.00000000000E+00 0.  1.
</event>
<event>
 7    1  0.2706925E-010  0.4778727E+02  0.7816164E-02  0.1312668E+00
        -11   -1    0    0    0    0  0.00000000000E+00  0.00000000000E+00  0.45593999997E+02  0.45594000000E+02  0.51100000000E-03 0.  1.
         11   -1    0    0    0    0 -0.00000000000E+00 -0.00000000000E+00 -0.45593999997E+02  0.45594000000E+02  0.51100000000E-03 0. -1.
    9900012    2    1    2    0    0  0.27159627259E+02 -0.31085743755E+02  0.13403542547E+02  0.47787265323E+02  0.19999973916E+02 0.  0.
         12    1    1    2    0    0 -0.27159627259E+02  0.31085743755E+02 -0.13403542547E+02  0.43400734677E+02  0.00000000000E+00 0. -1.
         11    1    3    3    0    0  0.96088561837E+00 -0.46994893727E+01 -0.32702658067E+01  0.58054405727E+01  0.51100000000E-03 0. -1.
        -11    1    3    3    0    0  0.16514384565E+02 -0.95741438220E+01  0.91985659289E+01  0.21189684823E+02  0.51100000000E-03 0.  1.
         12    1    3    3    0    0  0.96843570753E+01 -0.16812110560E+02  0.74752424254E+01  0.20792139928E+02  0.00000000000E+00 0. -1.
</event>
<event>
 7    1  0.2706925E-010  0.4778727E+02  0.7816164E-02  0.1312668E+00
        -11   -1    0    0    0    0  0.00000000000E+00  0.00000000000E+00  0.45593999997E+02  0.45594000000E+02  0.51100000000E-03 0. -1.
         11   -1    0    0    0    0 -0.00000000000E+00 -0.00000000000E+00 -0.45593999997E+02  0.45594000000E+02  0.51100000000E-03 0.  1.
    9900012    2    1    2    0    0 -0.29319044510E+02 -0.26205176132E+02 -0.18365895014E+02  0.47787265827E+02  0.19999976213E+02 0.  0.
         12    1    1    2    0    0  0.29319044510E+02  0.26205176132E+02  0.18365895014E+02  0.43400734173E+02  0.00000000000E+00 0. -1.
         11    1    3    3    0    0 -0.21838709416E+00 -0.15037709181E+01 -0.25771344728E+00  0.15412450743E+01  0.51100000000E-03 0. -1.
        -11    1    3    3    0    0 -0.29029740384E+02 -0.24956580909E+02 -0.11981692189E+02  0.40113809411E+02  0.51100000000E-03 0.  1.
        -12    1    3    3    0    0 -0.70917031563E-01  0.25517569577E+00 -0.61264893769E+01  0.61322113423E+01  0.00000000000E+00 0.  1.
</event>
<event>
 7    1  0.2706925E-010  0.4778729E+02  0.7816164E-02  0.1312668E+00
        -11   -1    0    0    0    0  0.00000000000E+00  0.00000000000E+00  0.45593999997E+02  0.45594000000E+02  0.51100000000E-03 0.  1.
         11   -1    0    0    0    0 -0.00000000000E+00 -0.00000000000E+00 -0.45593999997E+02  0.45594000000E+02  0.51100000000E-03 0. -1.
    9900012    2    1    2    0    0 -0.76931265958E+01 -0.28854797396E+02  0.31493460547E+02  0.47787290480E+02  0.20000088613E+02 0.  0.
         12    1    1    2    0    0  0.76931265958E+01  0.28854797396E+02 -0.31493460547E+02  0.43400709520E+02  0.00000000000E+00 0. -1.
         11    1    3    3    0    0 -0.26754740703E+01 -0.39324399520E+01  0.12722676884E+02  0.13582663687E+02  0.51100000000E-03 0. -1.
        -11    1    3    3    0    0 -0.54873788646E+01 -0.26058750579E+02  0.15740445092E+02  0.30934308147E+02  0.51100000000E-03 0.  1.
        -12    1    3    3    0    0  0.46972633902E+00  0.11363931347E+01  0.30303385710E+01  0.32703186458E+01  0.00000000000E+00 0.  1.
</event>
<event>
 7    1  0.2706925E-010  0.4778727E+02  0.7816164E-02  0.1312668E+00
        -11   -1    0    0    0    0  0.00000000000E+00  0.00000000000E+00  0.45593999997E+02  0.45594000000E+02  0.51100000000E-03 0. -1.
         11   -1    0    0    0    0 -0.00000000000E+00 -0.00000000000E+00 -0.45593999997E+02  0.45594000000E+02  0.51100000000E-03 0.  1.
    9900012    2    1    2    0    0 -0.59098637776E+01 -0.29760305965E+02 -0.31032579809E+02  0.47787270621E+02  0.19999998071E+02 0.  0.
         12    1    1    2    0    0  0.59098637776E+01  0.29760305965E+02  0.31032579809E+02  0.43400729379E+02  0.00000000000E+00 0. -1.
         11    1    3    3    0    0  0.37437215775E+01 -0.38024480939E+01 -0.58570008112E+01  0.79232898168E+01  0.51100000000E-03 0. -1.
        -11    1    3    3    0    0 -0.10841276041E+02 -0.26679475437E+02 -0.25467711616E+02  0.38443881321E+02  0.51100000000E-03 0.  1.
         12    1    3    3    0    0  0.11876906858E+01  0.72161756648E+00  0.29213261804E+00  0.14200994838E+01  0.00000000000E+00 0. -1.
</event>
<event>
 7    1  0.2706925E-010  0.4778727E+02  0.7816164E-02  0.1312668E+00
        -11   -1    0    0    0    0  0.00000000000E+00  0.00000000000E+00  0.45593999997E+02  0.45594000000E+02  0.51100000000E-03 0.  1.
         11   -1    0    0    0    0 -0.00000000000E+00 -0.00000000000E+00 -0.45593999997E+02  0.45594000000E+02  0.51100000000E-03 0. -1.
    9900012    2    1    2    0    0  0.18066566611E+02  0.31998210381E+02  0.23094091232E+02  0.47787270207E+02  0.19999996183E+02 0.  0.
         12    1    1    2    0    0 -0.18066566611E+02 -0.31998210381E+02 -0.23094091232E+02  0.43400729793E+02  0.00000000000E+00 0. -1.
         11    1    3    3    0    0  0.17798632692E+02  0.14616242542E+02  0.77826083516E+01  0.24310385945E+02  0.51100000000E-03 0. -1.
        -11    1    3    3    0    0 -0.39860477063E-01  0.14871547134E+02  0.11073246722E+02  0.18541340196E+02  0.51100000000E-03 0.  1.
         12    1    3    3    0    0  0.30779439563E+00  0.25104207053E+01  0.42382361578E+01  0.49355440670E+01  0.00000000000E+00 0. -1.
</event>
<event>
 7    1  0.2706925E-010  0.4778727E+02  0.7816164E-02  0.1312668E+00
        -11   -1    0    0    0    0  0.00000000000E+00  0.00000000000E+00  0.45593999997E+02  0.45594000000E+02  0.51100000000E-03 0. -1.
         11   -1    0    0    0    0 -0.00000000000E+00 -0.00000000000E+00 -0.45593999997E+02  0.45594000000E+02  0.51100000000E-03 0.  1.
    9900012    2    1    2    0    0 -0.57483598488E+01  0.42862224386E+02  0.36618529836E+01  0.47787273191E+02  0.20000009789E+02 0.  0.
         12    1    1    2    0    0  0.57483598488E+01 -0.42862224386E+02 -0.36618529836E+01  0.43400726809E+02  0.00000000000E+00 0. -1.
         11    1    3    3    0    0  0.21229231881E+01  0.34901554946E+01  0.44144359111E+01  0.60145850159E+01  0.51100000000E-03 0. -1.
        -11    1    3    3    0    0 -0.80228690574E+01  0.35749094693E+02  0.27367460486E+01  0.36740358987E+02  0.51100000000E-03 0.  1.
         12    1    3    3    0    0  0.15158602053E+00  0.36229741983E+01 -0.34893289761E+01  0.50323291890E+01  0.00000000000E+00 0. -1.
</event>
<event>
 7    1  0.2706925E-010  0.4778728E+02  0.7816164E-02  0.1312668E+00
        -11   -1    0    0    0    0  0.00000000000E+00  0.00000000000E+00  0.45593999997E+02  0.45594000000E+02  0.51100000000E-03 0.  1.
         11   -1    0    0    0    0 -0.00000000000E+00 -0.00000000000E+00 -0.45593999997E+02  0.45594000000E+02  0.51100000000E-03 0. -1.
    9900012    2    1    2    0    0  0.25408415872E+02  0.23414645561E+01  0.35107731858E+02  0.47787275471E+02  0.20000020184E+02 0.  0.
         12    1    1    2    0    0 -0.25408415872E+02 -0.23414645561E+01 -0.35107731858E+02  0.43400724529E+02  0.00000000000E+00 0. -1.
         11    1    3    3    0    0  0.35163096985E+01  0.25886942079E+00 -0.14599414527E+01  0.38161337213E+01  0.51100000000E-03 0. -1.
        -11    1    3    3    0    0  0.14167178071E+02  0.64017895953E+01  0.24184448967E+02  0.28750294201E+02  0.51100000000E-03 0.  1.
        -12    1    3    3    0    0  0.77249281024E+01 -0.43191944600E+01  0.12383224344E+02  0.15220847549E+02  0.00000000000E+00 0.  1.
</event>
<event>
 7    1  0.2706925E-010  0.4778726E+02  0.7816164E-02  0.1312668E+00
        -11   -1    0    0    0    0  0.00000000000E+00  0.00000000000E+00  0.45593999997E+02  0.45594000000E+02  0.51100000000E-03 0.  1.
         11   -1    0    0    0    0 -0.00000000000E+00 -0.00000000000E+00 -0.45593999997E+02  0.45594000000E+02  0.51100000000E-03 0. -1.
    9900012    2    1    2    0    0 -0.13827846656E+02  0.24144899925E+02  0.33308235123E+02  0.47787261959E+02  0.19999958574E+02 0.  0.
         12    1    1    2    0    0  0.13827846656E+02 -0.24144899925E+02 -0.33308235123E+02  0.43400738041E+02  0.00000000000E+00 0. -1.
         11    1    3    3    0    0 -0.81059117848E+01  0.19177626495E+02  0.28036405660E+02  0.34921729718E+02  0.51100000000E-03 0.  1.
        -11    1    3    3    0    0  0.10676830500E+01  0.35013837161E+01 -0.67413212110E+00  0.37221081930E+01  0.51100000000E-03 0. -1.
         12    1    3    3    0    0 -0.67896179212E+01  0.14658897138E+01  0.59459615836E+01  0.91434240480E+01  0.00000000000E+00 0. -1.
</event>
<event>
 7    1  0.2706925E-010  0.4778727E+02  0.7816164E-02  0.1312668E+00
        -11   -1    0    0    0    0  0.00000000000E+00  0.00000000000E+00  0.45593999997E+02  0.45594000000E+02  0.51100000000E-03 0.  1.
         11   -1    0    0    0    0 -0.00000000000E+00 -0.00000000000E+00 -0.45593999997E+02  0.45594000000E+02  0.51100000000E-03 0. -1.
    9900012    2    1    2    0    0  0.35698128321E+02 -0.13258644851E+02  0.20820067163E+02  0.47787271601E+02  0.20000002539E+02 0.  0.
         12    1    1    2    0    0 -0.35698128321E+02  0.13258644851E+02 -0.20820067163E+02  0.43400728399E+02  0.00000000000E+00 0. -1.
         11    1    3    3    0    0  0.22920064884E+02 -0.11065103012E+02  0.72468245568E+01  0.26462848399E+02  0.51100000000E-03 0.  1.
        -11    1    3    3    0    0  0.41528663518E+00  0.28148937453E+01  0.39873215152E+01  0.48984510729E+01  0.51100000000E-03 0. -1.
        -12    1    3    3    0    0  0.12362776801E+02 -0.50084355844E+01  0.95859210908E+01  0.16425972130E+02  0.00000000000E+00 0.  1.
</event>
<event>
 7    1  0.2962803E-010  0.4778727E+02  0.7816164E-02  0.1312668E+00
        -11   -1    0    0    0    0  0.00000000000E+00  0.00000000000E+00  0.45593999997E+02  0.45594000000E+02  0.51100000000E-03 0.  1.
         11   -1    0    0    0    0 -0.00000000000E+00 -0.00000000000E+00 -0.45593999997E+02  0.45594000000E+02  0.51100000000E-03 0. -1.
    9900012    2    1    2    0    0 -0.34970753596E+02  0.21925097363E+02 -0.13414912135E+02  0.47787269948E+02  0.19999995003E+02 0.  0.
         12    1    1    2    0    0  0.34970753596E+02 -0.21925097363E+02  0.13414912135E+02  0.43400730052E+02  0.00000000000E+00 0. -1.
         11    1    3    3    0    0 -0.85134282898E+00 -0.17257840533E+01 -0.35445345430E+01  0.40332171525E+01  0.51100000000E-03 0. -1.
        -11    1    3    3    0    0 -0.14804784129E+02  0.11668133681E+02  0.30044545200E+00  0.18852512948E+02  0.51100000000E-03 0.  1.
        -12    1    3    3    0    0 -0.19314626637E+02  0.11982747735E+02 -0.10170823044E+02  0.24901539848E+02  0.00000000000E+00 0.  1.
</event>
<event>
 7    1  0.2706925E-010  0.4778727E+02  0.7816164E-02  0.1312668E+00
        -11   -1    0    0    0    0  0.00000000000E+00  0.00000000000E+00  0.45593999997E+02  0.45594000000E+02  0.51100000000E-03 0.  1.
         11   -1    0    0    0    0 -0.00000000000E+00 -0.00000000000E+00 -0.45593999997E+02  0.45594000000E+02  0.51100000000E-03 0. -1.
    9900012    2    1    2    0    0  0.13571284302E+02 -0.40113318809E+02  0.95060497526E+01  0.47787273216E+02  0.20000009900E+02 0.  0.
         12    1    1    2    0    0 -0.13571284302E+02  0.40113318809E+02 -0.95060497526E+01  0.43400726784E+02  0.00000000000E+00 0. -1.
         11    1    3    3    0    0  0.34220597075E+01  0.57800967616E+00 -0.89679340434E+00  0.35845259797E+01  0.51100000000E-03 0. -1.
        -11    1    3    3    0    0  0.10658592603E+02 -0.24461395830E+02  0.55331833961E+01  0.27250350475E+02  0.51100000000E-03 0.  1.
         12    1    3    3    0    0 -0.50936800884E+00 -0.16229932655E+02  0.48696597609E+01  0.16952396761E+02  0.00000000000E+00 0. -1.
</event>
<event>
 7    1  0.2706925E-010  0.4778727E+02  0.7816164E-02  0.1312668E+00
        -11   -1    0    0    0    0  0.00000000000E+00  0.00000000000E+00  0.45593999997E+02  0.45594000000E+02  0.51100000000E-03 0. -1.
         11   -1    0    0    0    0 -0.00000000000E+00 -0.00000000000E+00 -0.45593999997E+02  0.45594000000E+02  0.51100000000E-03 0.  1.
    9900012    2    1    2    0    0 -0.11116332965E+01  0.43075089482E+02  0.51888624539E+01  0.47787270098E+02  0.19999995683E+02 0.  0.
         12    1    1    2    0    0  0.11116332965E+01 -0.43075089482E+02 -0.51888624539E+01  0.43400729902E+02  0.00000000000E+00 0. -1.
         11    1    3    3    0    0 -0.22162258633E+01  0.11803786131E+02  0.10534333389E+01  0.12056149724E+02  0.51100000000E-03 0. -1.
        -11    1    3    3    0    0  0.13386241352E+01  0.20997823736E+02 -0.53893182158E+01  0.21719697680E+02  0.51100000000E-03 0.  1.
        -12    1    3    3    0    0 -0.23403156831E+00  0.10273479615E+02  0.95247473309E+01  0.14011422694E+02  0.00000000000E+00 0.  1.
</event>
<event>
 7    1  0.2706925E-010  0.4778727E+02  0.7816164E-02  0.1312668E+00
        -11   -1    0    0    0    0  0.00000000000E+00  0.00000000000E+00  0.45593999997E+02  0.45594000000E+02  0.51100000000E-03 0.  1.
         11   -1    0    0    0    0 -0.00000000000E+00 -0.00000000000E+00 -0.45593999997E+02  0.45594000000E+02  0.51100000000E-03 0. -1.
    9900012    2    1    2    0    0 -0.15350683512E+01 -0.29012691896E+02  0.32241754320E+02  0.47787269043E+02  0.19999990877E+02 0.  0.
         12    1    1    2    0    0  0.15350683512E+01  0.29012691896E+02 -0.32241754320E+02  0.43400730957E+02  0.00000000000E+00 0. -1.
         11    1    3    3    0    0 -0.59280353100E+01 -0.23318929195E+02  0.27515629657E+02  0.36551661209E+02  0.51100000000E-03 0. -1.
        -11    1    3    3    0    0  0.54004732223E+01 -0.21782393082E+01  0.81311190008E+00  0.58797099190E+01  0.51100000000E-03 0.  1.
        -12    1    3    3    0    0 -0.10075062635E+01 -0.35155233930E+01  0.39130127631E+01  0.53558979156E+01  0.00000000000E+00 0.  1.
</event>
<event>
 7    1  0.2706925E-010  0.4778727E+02  0.7816164E-02  0.1312668E+00
        -11   -1    0    0    0    0  0.00000000000E+00  0.00000000000E+00  0.45593999997E+02  0.45594000000E+02  0.51100000000E-03 0.  1.
         11   -1    0    0    0    0 -0.00000000000E+00 -0.00000000000E+00 -0.45593999997E+02  0.45594000000E+02  0.51100000000E-03 0. -1.
    9900012    2    1    2    0    0  0.30181970495E+02 -0.28343586893E+02  0.13012031311E+02  0.47787271668E+02  0.20000002842E+02 0.  0.
         12    1    1    2    0    0 -0.30181970495E+02  0.28343586893E+02 -0.13012031311E+02  0.43400728332E+02  0.00000000000E+00 0. -1.
         11    1    3    3    0    0  0.79511392965E+01 -0.14587353682E+02  0.12626901710E+02  0.20867442359E+02  0.51100000000E-03 0. -1.
        -11    1    3    3    0    0  0.18249555388E+02 -0.13159682246E+02  0.19872929191E+01  0.22587006045E+02  0.51100000000E-03 0.  1.
         12    1    3    3    0    0  0.39812758107E+01 -0.59655096503E+00 -0.16021633180E+01  0.43328232634E+01  0.00000000000E+00 0. -1.
</event>
<event>
 7    1  0.2706925E-010  0.4778727E+02  0.7816164E-02  0.1312668E+00
        -11   -1    0    0    0    0  0.00000000000E+00  0.00000000000E+00  0.45593999997E+02  0.45594000000E+02  0.51100000000E-03 0.  1.
         11   -1    0    0    0    0 -0.00000000000E+00 -0.00000000000E+00 -0.45593999997E+02  0.45594000000E+02  0.51100000000E-03 0. -1.
    9900012    2    1    2    0    0 -0.12781332338E+02  0.26102385309E+00  0.41475204175E+02  0.47787272458E+02  0.20000006445E+02 0.  0.
         12    1    1    2    0    0  0.12781332338E+02 -0.26102385309E+00 -0.41475204175E+02  0.43400727542E+02  0.00000000000E+00 0. -1.
         11    1    3    3    0    0  0.30441960718E+01 -0.48195774083E+01  0.15679496263E+02  0.16683586528E+02  0.51100000000E-03 0. -1.
        -11    1    3    3    0    0 -0.11443760405E+02  0.19950433179E+01  0.20541236234E+02  0.23598352407E+02  0.51100000000E-03 0.  1.
         12    1    3    3    0    0 -0.43817680048E+01  0.30855579436E+01  0.52544716790E+01  0.75053335233E+01  0.00000000000E+00 0. -1.
</event>
<event>
 7    1  0.2706925E-010  0.4778727E+02  0.7816164E-02  0.1312668E+00
        -11   -1    0    0    0    0  0.00000000000E+00  0.00000000000E+00  0.45593999997E+02  0.45594000000E+02  0.51100000000E-03 0. -1.
         11   -1    0    0    0    0 -0.00000000000E+00 -0.00000000000E+00 -0.45593999997E+02  0.45594000000E+02  0.51100000000E-03 0.  1.
    9900012    2    1    2    0    0 -0.40311493722E+02  0.44500230539E+00 -0.16075098838E+02  0.47787270100E+02  0.19999995696E+02 0.  0.
         12    1    1    2    0    0  0.40311493722E+02 -0.44500230539E+00  0.16075098838E+02  0.43400729900E+02  0.00000000000E+00 0. -1.
         11    1    3    3    0    0 -0.12198004103E+02 -0.12353236250E+01  0.30024768253E+01  0.12622685764E+02  0.51100000000E-03 0. -1.
        -11    1    3    3    0    0 -0.81354913953E+01  0.24410477573E+01 -0.10244582979E+02  0.13307757703E+02  0.51100000000E-03 0.  1.
        -12    1    3    3    0    0 -0.19977998224E+02 -0.76072182686E+00 -0.88329926849E+01  0.21856826634E+02  0.00000000000E+00 0.  1.
</event>
<event>
 7    1  0.2706925E-010  0.4778727E+02  0.7816164E-02  0.1312668E+00
        -11   -1    0    0    0    0  0.00000000000E+00  0.00000000000E+00  0.45593999997E+02  0.45594000000E+02  0.51100000000E-03 0.  1.
         11   -1    0    0    0    0 -0.00000000000E+00 -0.00000000000E+00 -0.45593999997E+02  0.45594000000E+02  0.51100000000E-03 0. -1.
    9900012    2    1    2    0    0  0.12492591051E+02  0.34792054122E+01  0.41418037231E+02  0.47787268329E+02  0.19999987621E+02 0.  0.
         12    1    1    2    0    0 -0.12492591051E+02 -0.34792054122E+01 -0.41418037231E+02  0.43400731671E+02  0.00000000000E+00 0. -1.
         11    1    3    3    0    0 -0.12036373133E+01 -0.47292977305E+01  0.11113425410E+02  0.12137677884E+02  0.51100000000E-03 0. -1.
        -11    1    3    3    0    0  0.96755427793E+01  0.85826034796E+01  0.14927597181E+02  0.19751211822E+02  0.51100000000E-03 0.  1.
        -12    1    3    3    0    0  0.40206855847E+01 -0.37410033693E+00  0.15377014640E+02  0.15898378624E+02  0.00000000000E+00 0.  1.
</event>
<event>
 7    1  0.2706925E-010  0.4778726E+02  0.7816164E-02  0.1312668E+00
        -11   -1    0    0    0    0  0.00000000000E+00  0.00000000000E+00  0.45593999997E+02  0.45594000000E+02  0.51100000000E-03 0. -1.
         11   -1    0    0    0    0 -0.00000000000E+00 -0.00000000000E+00 -0.45593999997E+02  0.45594000000E+02  0.51100000000E-03 0.  1.
    9900012    2    1    2    0    0  0.10865746587E+02  0.41303524967E+02 -0.77186980187E+01  0.47787263570E+02  0.19999965920E+02 0.  0.
         12    1    1    2    0    0 -0.10865746587E+02 -0.41303524967E+02  0.77186980187E+01  0.43400736430E+02  0.00000000000E+00 0. -1.
         11    1    3    3    0    0  0.82843202777E+01  0.71361526123E+01  0.12731903786E+01  0.11007981221E+02  0.51100000000E-03 0. -1.
        -11    1    3    3    0    0  0.28916082953E+01  0.21889840730E+02 -0.10419743498E+02  0.24415109677E+02  0.51100000000E-03 0.  1.
         12    1    3    3    0    0 -0.31018198589E+00  0.12277531625E+02  0.14278551011E+01  0.12364172671E+02  0.00000000000E+00 0. -1.
</event>
<event>
 7    1  0.2706925E-010  0.4778727E+02  0.7816164E-02  0.1312668E+00
        -11   -1    0    0    0    0  0.00000000000E+00  0.00000000000E+00  0.45593999997E+02  0.45594000000E+02  0.51100000000E-03 0.  1.
         11   -1    0    0    0    0 -0.00000000000E+00 -0.00000000000E+00 -0.45593999997E+02  0.45594000000E+02  0.51100000000E-03 0. -1.
    9900012    2    1    2    0    0  0.32967551018E+02  0.24337145016E+02  0.14299200579E+02  0.47787272070E+02  0.20000004674E+02 0.  0.
         12    1    1    2    0    0 -0.32967551018E+02 -0.24337145016E+02 -0.14299200579E+02  0.43400727930E+02  0.00000000000E+00 0. -1.
         11    1    3    3    0    0  0.21711906854E+01  0.13091888626E+01  0.80143789213E+01  0.84058500002E+01  0.51100000000E-03 0. -1.
        -11    1    3    3    0    0  0.23831348918E+01  0.40119521408E+01  0.11768265900E+01  0.48124851144E+01  0.51100000000E-03 0.  1.
         12    1    3    3    0    0  0.28413225441E+02  0.19016004013E+02  0.51079950675E+01  0.34568936955E+02  0.00000000000E+00 0. -1.
</event>
<event>
 7    1  0.2706925E-010  0.4778727E+02  0.7816164E-02  0.1312668E+00
        -11   -1    0    0    0    0  0.00000000000E+00  0.00000000000E+00  0.45593999997E+02  0.45594000000E+02  0.51100000000E-03 0.  1.
         11   -1    0    0    0    0 -0.00000000000E+00 -0.00000000000E+00 -0.45593999997E+02  0.45594000000E+02  0.51100000000E-03 0. -1.
    9900012    2    1    2    0    0 -0.98039108343E+01  0.13407438297E+02  0.40096720209E+02  0.47787273729E+02  0.20000012239E+02 0.  0.
         12    1    1    2    0    0  0.98039108343E+01 -0.13407438297E+02 -0.40096720209E+02  0.43400726271E+02  0.00000000000E+00 0. -1.
         11    1    3    3    0    0  0.29155808031E+01 -0.14884457414E+01  0.87240804721E+01  0.93180288951E+01  0.51100000000E-03 0. -1.
        -11    1    3    3    0    0 -0.13185201304E+02  0.15221634007E+02  0.31879698801E+02  0.37707596995E+02  0.51100000000E-03 0.  1.
         12    1    3    3    0    0  0.46570966666E+00 -0.32574996836E+00 -0.50705906391E+00  0.76164783844E+00  0.00000000000E+00 0. -1.
</event>
<event>
 7    1  0.2706925E-010  0.4778727E+02  0.7816164E-02  0.1312668E+00
        -11   -1    0    0    0    0  0.00000000000E+00  0.00000000000E+00  0.45593999997E+02  0.45594000000E+02  0.51100000000E-03 0.  1.
         11   -1    0    0    0    0 -0.00000000000E+00 -0.00000000000E+00 -0.45593999997E+02  0.45594000000E+02  0.51100000000E-03 0. -1.
    9900012    2    1    2    0    0 -0.14417028149E+02  0.33148041336E+02  0.24020405822E+02  0.47787271424E+02  0.20000001731E+02 0.  0.
         12    1    1    2    0    0  0.14417028149E+02 -0.33148041336E+02 -0.24020405822E+02  0.43400728576E+02  0.00000000000E+00 0. -1.
         11    1    3    3    0    0 -0.61631521236E+01  0.35634689889E+01 -0.40768670822E+00  0.71308459559E+01  0.51100000000E-03 0. -1.
        -11    1    3    3    0    0 -0.10294758834E+02  0.24374441355E+02  0.22516936028E+02  0.34743457790E+02  0.51100000000E-03 0.  1.
        -12    1    3    3    0    0  0.20408828081E+01  0.52101309921E+01  0.19111565018E+01  0.59129676784E+01  0.00000000000E+00 0.  1.
</event>
<event>
 7    1  0.2706925E-010  0.4778727E+02  0.7816164E-02  0.1312668E+00
        -11   -1    0    0    0    0  0.00000000000E+00  0.00000000000E+00  0.45593999997E+02  0.45594000000E+02  0.51100000000E-03 0. -1.
         11   -1    0    0    0    0 -0.00000000000E+00 -0.00000000000E+00 -0.45593999997E+02  0.45594000000E+02  0.51100000000E-03 0.  1.
    9900012    2    1    2    0    0  0.57150699884E+01  0.36016300227E+02 -0.23532688968E+02  0.47787270086E+02  0.19999995629E+02 0.  0.
         12    1    1    2    0    0 -0.57150699884E+01 -0.36016300227E+02  0.23532688968E+02  0.43400729914E+02  0.00000000000E+00 0. -1.
         11    1    3    3    0    0 -0.57966564897E+01  0.16883105239E+02 -0.66719219540E+01  0.19056626454E+02  0.51100000000E-03 0. -1.
        -11    1    3    3    0    0  0.36780356685E+01  0.70447521508E+01 -0.10006248835E+02  0.12778164784E+02  0.51100000000E-03 0.  1.
         12    1    3    3    0    0  0.78336908096E+01  0.12088442837E+02 -0.68545181789E+01  0.15952478848E+02  0.00000000000E+00 0. -1.
</event>
<event>
 7    1  0.2706925E-010  0.4778727E+02  0.7816164E-02  0.1312668E+00
        -11   -1    0    0    0    0  0.00000000000E+00  0.00000000000E+00  0.45593999997E+02  0.45594000000E+02  0.51100000000E-03 0.  1.
         11   -1    0    0    0    0 -0.00000000000E+00 -0.00000000000E+00 -0.45593999997E+02  0.45594000000E+02  0.51100000000E-03 0. -1.
    9900012    2    1    2    0    0  0.19261796328E+02  0.30021547610E+02  0.24724742443E+02  0.47787274113E+02  0.20000013989E+02 0.  0.
         12    1    1    2    0    0 -0.19261796328E+02 -0.30021547610E+02 -0.24724742443E+02  0.43400725887E+02  0.00000000000E+00 0. -1.
         11    1    3    3    0    0  0.74260375515E+00 -0.79508808028E+00 -0.19662260400E+01  0.22471471901E+01  0.51100000000E-03 0. -1.
        -11    1    3    3    0    0  0.14337269541E+02  0.22203247319E+02  0.14863197771E+02  0.30322535146E+02  0.51100000000E-03 0.  1.
         12    1    3    3    0    0  0.41819230318E+01  0.86133883707E+01  0.11827770712E+02  0.15217591777E+02  0.00000000000E+00 0. -1.
</event>
<event>
 7    1  0.2706925E-010  0.4778727E+02  0.7816164E-02  0.1312668E+00
        -11   -1    0    0    0    0  0.00000000000E+00  0.00000000000E+00  0.45593999997E+02  0.45594000000E+02  0.51100000000E-03 0. -1.
         11   -1    0    0    0    0 -0.00000000000E+00 -0.00000000000E+00 -0.45593999997E+02  0.45594000000E+02  0.51100000000E-03 0.  1.
    9900012    2    1    2    0    0 -0.90307583637E+01  0.23321472683E+02 -0.35470796709E+02  0.47787273002E+02  0.20000008927E+02 0.  0.
         12    1    1    2    0    0  0.90307583637E+01 -0.23321472683E+02  0.35470796709E+02  0.43400726998E+02  0.00000000000E+00 0. -1.
         11    1    3    3    0    0  0.18491359528E+01  0.81757021576E+01 -0.21089080397E+01  0.86434312008E+01  0.51100000000E-03 0. -1.
        -11    1    3    3    0    0 -0.41249112757E+01  0.78414840792E+01 -0.81444614196E+01  0.12034783657E+02  0.51100000000E-03 0.  1.
         12    1    3    3    0    0 -0.67549830408E+01  0.73042864460E+01 -0.25217427250E+02  0.27109058144E+02  0.00000000000E+00 0. -1.
</event>
<event>
 7    1  0.2706925E-010  0.4778727E+02  0.7816164E-02  0.1312668E+00
        -11   -1    0    0    0    0  0.00000000000E+00  0.00000000000E+00  0.45593999997E+02  0.45594000000E+02  0.51100000000E-03 0. -1.
         11   -1    0    0    0    0 -0.00000000000E+00 -0.00000000000E+00 -0.45593999997E+02  0.45594000000E+02  0.51100000000E-03 0.  1.
    9900012    2    1    2    0    0 -0.40291398712E+02  0.92592265854E+01  0.13209583467E+02  0.47787272097E+02  0.20000004801E+02 0.  0.
         12    1    1    2    0    0  0.40291398712E+02 -0.92592265854E+01 -0.13209583467E+02  0.43400727903E+02  0.00000000000E+00 0. -1.
         11    1    3    3    0    0 -0.84577294949E+01  0.45103014244E+01 -0.27052156122E+01  0.99596284528E+01  0.51100000000E-03 0. -1.
        -11    1    3    3    0    0 -0.82806194228E+01 -0.37689405964E+01  0.59572520139E+01  0.10874852784E+02  0.51100000000E-03 0.  1.
        -12    1    3    3    0    0 -0.23553049794E+02  0.85178657574E+01  0.99575470650E+01  0.26952790861E+02  0.00000000000E+00 0.  1.
</event>
<event>
 7    1  0.2706925E-010  0.4778728E+02  0.7816164E-02  0.1312668E+00
        -11   -1    0    0    0    0  0.00000000000E+00  0.00000000000E+00  0.45593999997E+02  0.45594000000E+02  0.51100000000E-03 0.  1.
         11   -1    0    0    0    0 -0.00000000000E+00 -0.00000000000E+00 -0.45593999997E+02  0.45594000000E+02  0.51100000000E-03 0. -1.
    9900012    2    1    2    0    0  0.13286135614E+02  0.26636499187E+02  0.31584781520E+02  0.47787275212E+02  0.20000019001E+02 0.  0.
         12    1    1    2    0    0 -0.13286135614E+02 -0.26636499187E+02 -0.31584781520E+02  0.43400724788E+02  0.00000000000E+00 0. -1.
         11    1    3    3    0    0 -0.70384790196E+00  0.11816442488E+01  0.10987596096E+01  0.17603857363E+01  0.51100000000E-03 0. -1.
        -11    1    3    3    0    0  0.63043274603E+01  0.20631015162E+02  0.29985108315E+02  0.36939004484E+02  0.51100000000E-03 0.  1.
        -12    1    3    3    0    0  0.76856560558E+01  0.48238397759E+01  0.50091359529E+00  0.90878849916E+01  0.00000000000E+00 0.  1.
</event>
<event>
 7    1  0.2706925E-010  0.4778727E+02  0.7816164E-02  0.1312668E+00
        -11   -1    0    0    0    0  0.00000000000E+00  0.00000000000E+00  0.45593999997E+02  0.45594000000E+02  0.51100000000E-03 0. -1.
         11   -1    0    0    0    0 -0.00000000000E+00 -0.00000000000E+00 -0.45593999997E+02  0.45594000000E+02  0.51100000000E-03 0.  1.
    9900012    2    1    2    0    0 -0.18029595364E+01 -0.35666682886E+02 -0.24662936780E+02  0.47787269801E+02  0.19999994332E+02 0.  0.
         12    1    1    2    0    0  0.18029595364E+01  0.35666682886E+02  0.24662936780E+02  0.43400730199E+02  0.00000000000E+00 0. -1.
         11    1    3    3    0    0 -0.32624734955E+01  0.58093163541E+00 -0.89731826218E+00  0.34331319810E+01  0.51100000000E-03 0. -1.
        -11    1    3    3    0    0  0.10302542884E+01 -0.32730794462E+02 -0.24290597893E+02  0.40772533356E+02  0.51100000000E-03 0.  1.
        -12    1    3    3    0    0  0.42925967071E+00 -0.35168200593E+01  0.52497937523E+00  0.35816044643E+01  0.00000000000E+00 0.  1.
</event>
<event>
 7    1  0.2706925E-010  0.4778726E+02  0.7816164E-02  0.1312668E+00
        -11   -1    0    0    0    0  0.00000000000E+00  0.00000000000E+00  0.45593999997E+02  0.45594000000E+02  0.51100000000E-03 0.  1.
         11   -1    0    0    0    0 -0.00000000000E+00 -0.00000000000E+00 -0.45593999997E+02  0.45594000000E+02  0.51100000000E-03 0. -1.
    9900012    2    1    2    0    0 -0.26686237966E+02  0.34046959312E+02  0.35033120238E+01  0.47787263482E+02  0.19999965518E+02 0.  0.
         12    1    1    2    0    0  0.26686237966E+02 -0.34046959312E+02 -0.35033120238E+01  0.43400736518E+02  0.00000000000E+00 0. -1.
         11    1    3    3    0    0 -0.11064454801E+02  0.16076880234E+02 -0.48281652908E+01  0.20104711349E+02  0.51100000000E-03 0. -1.
        -11    1    3    3    0    0 -0.98980950514E+01  0.77621086281E+01  0.97210502413E+01  0.15897214663E+02  0.51100000000E-03 0.  1.
        -12    1    3    3    0    0 -0.57236881137E+01  0.10207970450E+02 -0.13895729266E+01  0.11785337469E+02  0.00000000000E+00 0.  1.
</event>
<event>
 7    1  0.2706925E-010  0.4778727E+02  0.7816164E-02  0.1312668E+00
        -11   -1    0    0    0    0  0.00000000000E+00  0.00000000000E+00  0.45593999997E+02  0.45594000000E+02  0.51100000000E-03 0.  1.
         11   -1    0    0    0    0 -0.00000000000E+00 -0.00000000000E+00 -0.45593999997E+02  0.45594000000E+02  0.51100000000E-03 0. -1.
    9900012    2    1    2    0    0 -0.22102421269E+02  0.37061559483E+02  0.46418556252E+01  0.47787273729E+02  0.20000012239E+02 0.  0.
         12    1    1    2    0    0  0.22102421269E+02 -0.37061559483E+02 -0.46418556252E+01  0.43400726271E+02  0.00000000000E+00 0. -1.
         11    1    3    3    0    0 -0.10731507087E+02  0.16764621485E+02 -0.60351913523E+01  0.20800031558E+02  0.51100000000E-03 0. -1.
        -11    1    3    3    0    0 -0.63584678405E+01  0.14031332130E+02  0.26380288224E+01  0.15629062382E+02  0.51100000000E-03 0.  1.
         12    1    3    3    0    0 -0.50124463412E+01  0.62656058677E+01  0.80390181551E+01  0.11358179789E+02  0.00000000000E+00 0. -1.
</event>
<event>
 7    1  0.2706925E-010  0.4778727E+02  0.7816164E-02  0.1312668E+00
        -11   -1    0    0    0    0  0.00000000000E+00  0.00000000000E+00  0.45593999997E+02  0.45594000000E+02  0.51100000000E-03 0.  1.
         11   -1    0    0    0    0 -0.00000000000E+00 -0.00000000000E+00 -0.45593999997E+02  0.45594000000E+02  0.51100000000E-03 0. -1.
    9900012    2    1    2    0    0 -0.12413248000E+01 -0.14561620241E+02  0.40866141598E+02  0.47787271890E+02  0.20000003857E+02 0.  0.
         12    1    1    2    0    0  0.12413248000E+01  0.14561620241E+02 -0.40866141598E+02  0.43400728110E+02  0.00000000000E+00 0. -1.
         11    1    3    3    0    0 -0.59922892326E+00 -0.81099846579E+01  0.74379851359E+01  0.11020641978E+02  0.51100000000E-03 0. -1.
        -11    1    3    3    0    0 -0.30639006918E+00 -0.10782974604E+02  0.21141744712E+02  0.23734780089E+02  0.51100000000E-03 0.  1.
        -12    1    3    3    0    0 -0.33570580754E+00  0.43313390207E+01  0.12286411751E+02  0.13031849823E+02  0.00000000000E+00 0.  1.
</event>
<event>
 7    1  0.2706925E-010  0.4778727E+02  0.7816164E-02  0.1312668E+00
        -11   -1    0    0    0    0  0.00000000000E+00  0.00000000000E+00  0.45593999997E+02  0.45594000000E+02  0.51100000000E-03 0.  1.
         11   -1    0    0    0    0 -0.00000000000E+00 -0.00000000000E+00 -0.45593999997E+02  0.45594000000E+02  0.51100000000E-03 0. -1.
    9900012    2    1    2    0    0 -0.14544196025E+02  0.13569770227E+02  0.38573973328E+02  0.47787265901E+02  0.19999976550E+02 0.  0.
         12    1    1    2    0    0  0.14544196025E+02 -0.13569770227E+02 -0.38573973328E+02  0.43400734099E+02  0.00000000000E+00 0. -1.
         11    1    3    3    0    0 -0.22357126495E+00  0.77707738797E+01  0.10989648320E+02  0.13461325390E+02  0.51100000000E-03 0. -1.
        -11    1    3    3    0    0 -0.16319023147E+02  0.43668169133E+01  0.19129613324E+02  0.25521005321E+02  0.51100000000E-03 0.  1.
        -12    1    3    3    0    0  0.19983983868E+01  0.14321794344E+01  0.84547116839E+01  0.88049351902E+01  0.00000000000E+00 0.  1.
</event>
<event>
 7    1  0.2706925E-010  0.4778727E+02  0.7816164E-02  0.1312668E+00
        -11   -1    0    0    0    0  0.00000000000E+00  0.00000000000E+00  0.45593999997E+02  0.45594000000E+02  0.51100000000E-03 0. -1.
         11   -1    0    0    0    0 -0.00000000000E+00 -0.00000000000E+00 -0.45593999997E+02  0.45594000000E+02  0.51100000000E-03 0.  1.
    9900012    2    1    2    0    0 -0.71582456392E+00 -0.43392024242E+02  0.49326026288E+00  0.47787268689E+02  0.19999989261E+02 0.  0.
         12    1    1    2    0    0  0.71582456392E+00  0.43392024242E+02 -0.49326026288E+00  0.43400731311E+02  0.00000000000E+00 0. -1.
         11    1    3    3    0    0 -0.67995326934E-01 -0.65037530260E+01  0.31564892218E+01  0.72295816792E+01  0.51100000000E-03 0. -1.
        -11    1    3    3    0    0  0.65351200698E+01 -0.18306803333E+02  0.34011769237E+01  0.19733596918E+02  0.51100000000E-03 0.  1.
        -12    1    3    3    0    0 -0.71829493068E+01 -0.18581467883E+02 -0.60644058826E+01  0.20824090092E+02  0.00000000000E+00 0.  1.
</event>
<event>
 7    1  0.2706925E-010  0.4778727E+02  0.7816164E-02  0.1312668E+00
        -11   -1    0    0    0    0  0.00000000000E+00  0.00000000000E+00  0.45593999997E+02  0.45594000000E+02  0.51100000000E-03 0. -1.
         11   -1    0    0    0    0 -0.00000000000E+00 -0.00000000000E+00 -0.45593999997E+02  0.45594000000E+02  0.51100000000E-03 0.  1.
    9900012    2    1    2    0    0 -0.12824510829E+02  0.40193800164E+02  0.10179076009E+02  0.47787271457E+02  0.20000001882E+02 0.  0.
         12    1    1    2    0    0  0.12824510829E+02 -0.40193800164E+02 -0.10179076009E+02  0.43400728543E+02  0.00000000000E+00 0. -1.
         11    1    3    3    0    0  0.12444329505E+01  0.28922951336E+01 -0.17331171302E+01  0.35941173821E+01  0.51100000000E-03 0. -1.
        -11    1    3    3    0    0 -0.17256930338E+02  0.30619581869E+02  0.95510163524E+01  0.36422278240E+02  0.51100000000E-03 0.  1.
        -12    1    3    3    0    0  0.31879865587E+01  0.66819231613E+01  0.23611767866E+01  0.77708758354E+01  0.00000000000E+00 0.  1.
</event>
<event>
 7    1  0.2706925E-010  0.4778727E+02  0.7816164E-02  0.1312668E+00
        -11   -1    0    0    0    0  0.00000000000E+00  0.00000000000E+00  0.45593999997E+02  0.45594000000E+02  0.51100000000E-03 0. -1.
         11   -1    0    0    0    0 -0.00000000000E+00 -0.00000000000E+00 -0.45593999997E+02  0.45594000000E+02  0.51100000000E-03 0.  1.
    9900012    2    1    2    0    0 -0.13141640097E+01  0.33158189670E+02 -0.27971956986E+02  0.47787274812E+02  0.20000017178E+02 0.  0.
         12    1    1    2    0    0  0.13141640097E+01 -0.33158189670E+02  0.27971956986E+02  0.43400725188E+02  0.00000000000E+00 0. -1.
         11    1    3    3    0    0  0.79362191404E+01  0.65407210672E+01 -0.76090522590E+01  0.12793056041E+02  0.51100000000E-03 0. -1.
        -11    1    3    3    0    0 -0.44457378933E+01  0.11126749550E+02 -0.63514181450E+01  0.13561329348E+02  0.51100000000E-03 0.  1.
         12    1    3    3    0    0 -0.48046452568E+01  0.15490719052E+02 -0.14011486582E+02  0.21432889423E+02  0.00000000000E+00 0. -1.
</event>
<event>
 7    1  0.2845425E-010  0.4778728E+02  0.7816164E-02  0.1312668E+00
        -11   -1    0    0    0    0  0.00000000000E+00  0.00000000000E+00  0.45593999997E+02  0.45594000000E+02  0.51100000000E-03 0.  1.
         11   -1    0    0    0    0 -0.00000000000E+00 -0.00000000000E+00 -0.45593999997E+02  0.45594000000E+02  0.51100000000E-03 0. -1.
    9900012    2    1    2    0    0  0.14117116355E+02  0.30708943718E+02  0.27226648064E+02  0.47787279231E+02  0.20000037327E+02 0.  0.
         12    1    1    2    0    0 -0.14117116355E+02 -0.30708943718E+02 -0.27226648064E+02  0.43400720769E+02  0.00000000000E+00 0. -1.
         11    1    3    3    0    0  0.30379116546E+00  0.52782307081E+01 -0.20199496286E+01  0.56597001019E+01  0.51100000000E-03 0. -1.
        -11    1    3    3    0    0  0.55379945860E+01  0.66063098738E+01  0.14333218806E+02  0.16725844546E+02  0.51100000000E-03 0.  1.
        -12    1    3    3    0    0  0.82753306036E+01  0.18824403136E+02  0.14913378886E+02  0.25401734583E+02  0.00000000000E+00 0.  1.
</event>
<event>
 7    1  0.2706925E-010  0.4778727E+02  0.7816164E-02  0.1312668E+00
        -11   -1    0    0    0    0  0.00000000000E+00  0.00000000000E+00  0.45593999997E+02  0.45594000000E+02  0.51100000000E-03 0.  1.
         11   -1    0    0    0    0 -0.00000000000E+00 -0.00000000000E+00 -0.45593999997E+02  0.45594000000E+02  0.51100000000E-03 0. -1.
    9900012    2    1    2    0    0  0.37480469184E+02  0.19054383818E+02  0.10759583402E+02  0.47787265583E+02  0.19999975100E+02 0.  0.
         12    1    1    2    0    0 -0.37480469184E+02 -0.19054383818E+02 -0.10759583402E+02  0.43400734417E+02  0.00000000000E+00 0. -1.
         11    1    3    3    0    0  0.15673002430E+02  0.80756933802E+01 -0.25795343953E+00  0.17633104349E+02  0.51100000000E-03 0. -1.
        -11    1    3    3    0    0  0.14828555761E+01  0.70563433072E+01  0.42828223696E+01  0.83865016091E+01  0.51100000000E-03 0.  1.
        -12    1    3    3    0    0  0.20324611178E+02  0.39223471305E+01  0.67347144721E+01  0.21767659625E+02  0.00000000000E+00 0.  1.
</event>
<event>
 7    1  0.2706925E-010  0.4778728E+02  0.7816164E-02  0.1312668E+00
        -11   -1    0    0    0    0  0.00000000000E+00  0.00000000000E+00  0.45593999997E+02  0.45594000000E+02  0.51100000000E-03 0. -1.
         11   -1    0    0    0    0 -0.00000000000E+00 -0.00000000000E+00 -0.45593999997E+02  0.45594000000E+02  0.51100000000E-03 0.  1.
    9900012    2    1    2    0    0 -0.37601626869E+02 -0.21410874206E+02 -0.33637662880E+01  0.47787276491E+02  0.20000024832E+02 0.  0.
         12    1    1    2    0    0  0.37601626869E+02  0.21410874206E+02  0.33637662880E+01  0.43400723509E+02  0.00000000000E+00 0. -1.
         11    1    3    3    0    0 -0.16114544154E+02 -0.15489340374E+02  0.63517384665E+01  0.23236668873E+02  0.51100000000E-03 0. -1.
        -11    1    3    3    0    0 -0.66411868151E+01 -0.19488990487E+01 -0.13451582735E+01  0.70507461206E+01  0.51100000000E-03 0.  1.
         12    1    3    3    0    0 -0.14845895901E+02 -0.39726347837E+01 -0.83703464811E+01  0.17499861497E+02  0.00000000000E+00 0. -1.
</event>
<event>
 7    1  0.2706925E-010  0.4778727E+02  0.7816164E-02  0.1312668E+00
        -11   -1    0    0    0    0  0.00000000000E+00  0.00000000000E+00  0.45593999997E+02  0.45594000000E+02  0.51100000000E-03 0.  1.
         11   -1    0    0    0    0 -0.00000000000E+00 -0.00000000000E+00 -0.45593999997E+02  0.45594000000E+02  0.51100000000E-03 0. -1.
    9900012    2    1    2    0    0  0.37285136292E+02 -0.17880210887E+02  0.13181036886E+02  0.47787273473E+02  0.20000011074E+02 0.  0.
         12    1    1    2    0    0 -0.37285136292E+02  0.17880210887E+02 -0.13181036886E+02  0.43400726527E+02  0.00000000000E+00 0. -1.
         11    1    3    3    0    0  0.43360008487E+00 -0.96205747536E+00  0.28197501654E+00  0.10922791724E+01  0.51100000000E-03 0. -1.
        -11    1    3    3    0    0  0.26233434958E+02 -0.59069758789E+01  0.32285086533E+00  0.26892186722E+02  0.51100000000E-03 0.  1.
        -12    1    3    3    0    0  0.10618101249E+02 -0.11011177533E+02  0.12576211005E+02  0.19802807579E+02  0.00000000000E+00 0.  1.
</event>
<event>
 7    1  0.2706925E-010  0.4778727E+02  0.7816164E-02  0.1312668E+00
        -11   -1    0    0    0    0  0.00000000000E+00  0.00000000000E+00  0.45593999997E+02  0.45594000000E+02  0.51100000000E-03 0.  1.
         11   -1    0    0    0    0 -0.00000000000E+00 -0.00000000000E+00 -0.45593999997E+02  0.45594000000E+02  0.51100000000E-03 0. -1.
    9900012    2    1    2    0    0  0.21886330148E+00  0.22049002380E+02  0.37382040144E+02  0.47787270370E+02  0.19999996925E+02 0.  0.
         12    1    1    2    0    0 -0.21886330148E+00 -0.22049002380E+02 -0.37382040144E+02  0.43400729630E+02  0.00000000000E+00 0. -1.
         11    1    3    3    0    0 -0.27592794909E+01 -0.21347233204E+01  0.16265691396E+01  0.38492069820E+01  0.51100000000E-03 0. -1.
        -11    1    3    3    0    0 -0.23946755684E+01  0.42126954161E+01  0.63288941336E+01  0.79709582211E+01  0.51100000000E-03 0.  1.
         12    1    3    3    0    0  0.53728183607E+01  0.19971030284E+02  0.29426576871E+02  0.35967105167E+02  0.00000000000E+00 0. -1.
</event>
<event>
 7    1  0.2706925E-010  0.4778727E+02  0.7816164E-02  0.1312668E+00
        -11   -1    0    0    0    0  0.00000000000E+00  0.00000000000E+00  0.45593999997E+02  0.45594000000E+02  0.51100000000E-03 0. -1.
         11   -1    0    0    0    0 -0.00000000000E+00 -0.00000000000E+00 -0.45593999997E+02  0.45594000000E+02  0.51100000000E-03 0.  1.
    9900012    2    1    2    0    0  0.92600821510E+01 -0.71093742257E+01 -0.41801090606E+02  0.47787268449E+02  0.19999988165E+02 0.  0.
         12    1    1    2    0    0 -0.92600821510E+01  0.71093742257E+01  0.41801090606E+02  0.43400731551E+02  0.00000000000E+00 0. -1.
         11    1    3    3    0    0  0.79174326944E+01  0.13918474629E+01 -0.63064492712E+01  0.10217352030E+02  0.51100000000E-03 0. -1.
        -11    1    3    3    0    0 -0.24875729617E+01 -0.16739191057E+01 -0.33948761112E+01  0.45293717537E+01  0.51100000000E-03 0.  1.
         12    1    3    3    0    0  0.38302224182E+01 -0.68273025829E+01 -0.32099765224E+02  0.33040544665E+02  0.00000000000E+00 0. -1.
</event>
<event>
 7    1  0.2706925E-010  0.4778728E+02  0.7816164E-02  0.1312668E+00
        -11   -1    0    0    0    0  0.00000000000E+00  0.00000000000E+00  0.45593999997E+02  0.45594000000E+02  0.51100000000E-03 0.  1.
         11   -1    0    0    0    0 -0.00000000000E+00 -0.00000000000E+00 -0.45593999997E+02  0.45594000000E+02  0.51100000000E-03 0. -1.
    9900012    2    1    2    0    0  0.18504846676E+02  0.38819218881E+02 -0.58533571709E+01  0.47787275407E+02  0.20000019892E+02 0.  0.
         12    1    1    2    0    0 -0.18504846676E+02 -0.38819218881E+02  0.58533571709E+01  0.43400724593E+02  0.00000000000E+00 0. -1.
         11    1    3    3    0    0 -0.16333917309E+00 -0.57051858422E+00 -0.49966404923E+00  0.77578061565E+00  0.51100000000E-03 0. -1.
        -11    1    3    3    0    0  0.21008027878E+02  0.35857383077E+02 -0.19974411371E+01  0.41606236645E+02  0.51100000000E-03 0.  1.
        -12    1    3    3    0    0 -0.23398420290E+01  0.35323543881E+01 -0.33562519846E+01  0.54052581462E+01  0.00000000000E+00 0.  1.
</event>
<event>
 7    1  0.2706925E-010  0.4778727E+02  0.7816164E-02  0.1312668E+00
        -11   -1    0    0    0    0  0.00000000000E+00  0.00000000000E+00  0.45593999997E+02  0.45594000000E+02  0.51100000000E-03 0. -1.
         11   -1    0    0    0    0 -0.00000000000E+00 -0.00000000000E+00 -0.45593999997E+02  0.45594000000E+02  0.51100000000E-03 0.  1.
    9900012    2    1    2    0    0 -0.80133451611E+00 -0.39748857471E+02  0.17407167694E+02  0.47787270809E+02  0.19999998925E+02 0.  0.
         12    1    1    2    0    0  0.80133451611E+00  0.39748857471E+02 -0.17407167694E+02  0.43400729191E+02  0.00000000000E+00 0. -1.
         11    1    3    3    0    0  0.59562308894E+01 -0.32930309360E+01  0.42394111414E+01  0.80183131792E+01  0.51100000000E-03 0. -1.
        -11    1    3    3    0    0 -0.44094428735E+01 -0.16598289448E+02  0.33693500797E+01  0.17501397638E+02  0.51100000000E-03 0.  1.
         12    1    3    3    0    0 -0.23481225320E+01 -0.19857537087E+02  0.97984064724E+01  0.22267559991E+02  0.00000000000E+00 0. -1.
</event>
<event>
 7    1  0.2706925E-010  0.4778727E+02  0.7816164E-02  0.1312668E+00
        -11   -1    0    0    0    0  0.00000000000E+00  0.00000000000E+00  0.45593999997E+02  0.45594000000E+02  0.51100000000E-03 0. -1.
         11   -1    0    0    0    0 -0.00000000000E+00 -0.00000000000E+00 -0.45593999997E+02  0.45594000000E+02  0.51100000000E-03 0.  1.
    9900012    2    1    2    0    0  0.31574354611E+02  0.29165300134E+02 -0.60057256229E+01  0.47787270268E+02  0.19999996460E+02 0.  0.
         12    1    1    2    0    0 -0.31574354611E+02 -0.29165300134E+02  0.60057256229E+01  0.43400729732E+02  0.00000000000E+00 0. -1.
         11    1    3    3    0    0  0.13260482261E+02  0.48782848748E+01 -0.24791635826E+01  0.14345184051E+02  0.51100000000E-03 0. -1.
        -11    1    3    3    0    0  0.16692378587E+02  0.25946898713E+02 -0.26670276861E+01  0.30967565171E+02  0.51100000000E-03 0.  1.
        -12    1    3    3    0    0  0.16214937630E+01 -0.16598834533E+01 -0.85953435418E+00  0.24745210462E+01  0.00000000000E+00 0.  1.
</event>
<event>
 7    1  0.2706925E-010  0.4778727E+02  0.7816164E-02  0.1312668E+00
        -11   -1    0    0    0    0  0.00000000000E+00  0.00000000000E+00  0.45593999997E+02  0.45594000000E+02  0.51100000000E-03 0.  1.
         11   -1    0    0    0    0 -0.00000000000E+00 -0.00000000000E+00 -0.45593999997E+02  0.45594000000E+02  0.51100000000E-03 0. -1.
    9900012    2    1    2    0    0 -0.37571714490E+02  0.98497448120E+01  0.19364191060E+02  0.47787273071E+02  0.20000009240E+02 0.  0.
         12    1    1    2    0    0  0.37571714490E+02 -0.98497448120E+01 -0.19364191060E+02  0.43400726929E+02  0.00000000000E+00 0. -1.
         11    1    3    3    0    0 -0.22641988915E+02  0.14348143792E+02  0.14859835591E+02  0.30648712964E+02  0.51100000000E-03 0. -1.
        -11    1    3    3    0    0 -0.12558988918E+02 -0.21668896954E+01  0.18379588019E+01  0.12876401143E+02  0.51100000000E-03 0.  1.
         12    1    3    3    0    0 -0.23707366570E+01 -0.23315092848E+01  0.26663966672E+01  0.42621589633E+01  0.00000000000E+00 0. -1.
</event>
<event>
 7    1  0.2706925E-010  0.4778727E+02  0.7816164E-02  0.1312668E+00
        -11   -1    0    0    0    0  0.00000000000E+00  0.00000000000E+00  0.45593999997E+02  0.45594000000E+02  0.51100000000E-03 0.  1.
         11   -1    0    0    0    0 -0.00000000000E+00 -0.00000000000E+00 -0.45593999997E+02  0.45594000000E+02  0.51100000000E-03 0. -1.
    9900012    2    1    2    0    0  0.27311078350E+02 -0.63497431443E+01  0.33127167405E+02  0.47787268913E+02  0.19999990280E+02 0.  0.
         12    1    1    2    0    0 -0.27311078350E+02  0.63497431443E+01 -0.33127167405E+02  0.43400731087E+02  0.00000000000E+00 0. -1.
         11    1    3    3    0    0  0.60703487084E+01 -0.18747666411E+00  0.40125566081E+01  0.72790721755E+01  0.51100000000E-03 0. -1.
        -11    1    3    3    0    0  0.18257119983E+02 -0.32650988199E+00  0.28602180258E+02  0.33933961669E+02  0.51100000000E-03 0.  1.
        -12    1    3    3    0    0  0.29836096591E+01 -0.58357565982E+01  0.51243053826E+00  0.65742350679E+01  0.00000000000E+00 0.  1.
</event>
<event>
 7    1  0.2706925E-010  0.4778728E+02  0.7816164E-02  0.1312668E+00
        -11   -1    0    0    0    0  0.00000000000E+00  0.00000000000E+00  0.45593999997E+02  0.45594000000E+02  0.51100000000E-03 0. -1.
         11   -1    0    0    0    0 -0.00000000000E+00 -0.00000000000E+00 -0.45593999997E+02  0.45594000000E+02  0.51100000000E-03 0.  1.
    9900012    2    1    2    0    0 -0.92280688988E+01  0.27813214296E+02 -0.32013911569E+02  0.47787277898E+02  0.20000031247E+02 0.  0.
         12    1    1    2    0    0  0.92280688988E+01 -0.27813214296E+02  0.32013911569E+02  0.43400722102E+02  0.00000000000E+00 0. -1.
         11    1    3    3    0    0 -0.47963122148E+01  0.36756675800E+01 -0.34330316849E+01  0.69498812818E+01  0.51100000000E-03 0. -1.
        -11    1    3    3    0    0 -0.76811455348E+01  0.23420087392E+02 -0.28253808048E+02  0.37493708267E+02  0.51100000000E-03 0.  1.
        -12    1    3    3    0    0  0.32493888509E+01  0.71745932410E+00 -0.32707183581E+00  0.33436883485E+01  0.00000000000E+00 0.  1.
</event>
<event>
 7    1  0.2706925E-010  0.4778727E+02  0.7816164E-02  0.1312668E+00
        -11   -1    0    0    0    0  0.00000000000E+00  0.00000000000E+00  0.45593999997E+02  0.45594000000E+02  0.51100000000E-03 0.  1.
         11   -1    0    0    0    0 -0.00000000000E+00 -0.00000000000E+00 -0.45593999997E+02  0.45594000000E+02  0.51100000000E-03 0. -1.
    9900012    2    1    2    0    0  0.92107123099E+01  0.15667360114E+02  0.39412183110E+02  0.47787267614E+02  0.19999984357E+02 0.  0.
         12    1    1    2    0    0 -0.92107123099E+01 -0.15667360114E+02 -0.39412183110E+02  0.43400732386E+02  0.00000000000E+00 0. -1.
         11    1    3    3    0    0  0.23541814441E+00 -0.35103932123E+01  0.80369116302E+00  0.36089059221E+01  0.51100000000E-03 0. -1.
        -11    1    3    3    0    0  0.52109721509E+01  0.11691617695E+02  0.19660080356E+02  0.23459900147E+02  0.51100000000E-03 0.  1.
         12    1    3    3    0    0  0.37643220145E+01  0.74861356318E+01  0.18948411591E+02  0.20718461544E+02  0.00000000000E+00 0. -1.
</event>
<event>
 7    1  0.2706925E-010  0.4778727E+02  0.7816164E-02  0.1312668E+00
        -11   -1    0    0    0    0  0.00000000000E+00  0.00000000000E+00  0.45593999997E+02  0.45594000000E+02  0.51100000000E-03 0. -1.
         11   -1    0    0    0    0 -0.00000000000E+00 -0.00000000000E+00 -0.45593999997E+02  0.45594000000E+02  0.51100000000E-03 0.  1.
    9900012    2    1    2    0    0  0.25378390834E+02  0.31023938938E+02  0.16645604256E+02  0.47787266716E+02  0.19999980265E+02 0.  0.
         12    1    1    2    0    0 -0.25378390834E+02 -0.31023938938E+02 -0.16645604256E+02  0.43400733284E+02  0.00000000000E+00 0. -1.
         11    1    3    3    0    0  0.50918798699E+01  0.10975323241E+02 -0.44014618818E+00  0.12106968645E+02  0.51100000000E-03 0.  1.
        -11    1    3    3    0    0  0.10501198619E+02  0.10746703192E+02  0.15614024354E+01  0.15106448284E+02  0.51100000000E-03 0. -1.
         12    1    3    3    0    0  0.97853123452E+01  0.93019125046E+01  0.15524348009E+02  0.20573849787E+02  0.00000000000E+00 0. -1.
</event>
<event>
 7    1  0.2706925E-010  0.4778727E+02  0.7816164E-02  0.1312668E+00
        -11   -1    0    0    0    0  0.00000000000E+00  0.00000000000E+00  0.45593999997E+02  0.45594000000E+02  0.51100000000E-03 0. -1.
         11   -1    0    0    0    0 -0.00000000000E+00 -0.00000000000E+00 -0.45593999997E+02  0.45594000000E+02  0.51100000000E-03 0.  1.
    9900012    2    1    2    0    0 -0.13518090929E+02  0.25040752376E+01 -0.41165691825E+02  0.47787270068E+02  0.19999995550E+02 0.  0.
         12    1    1    2    0    0  0.13518090929E+02 -0.25040752376E+01  0.41165691825E+02  0.43400729932E+02  0.00000000000E+00 0. -1.
         11    1    3    3    0    0 -0.14246134822E+02 -0.21861839405E+01 -0.13985996037E+02  0.20083322509E+02  0.51100000000E-03 0. -1.
        -11    1    3    3    0    0  0.27031676866E+00  0.43702431361E+01 -0.26299565887E+02  0.26661569015E+02  0.51100000000E-03 0.  1.
         12    1    3    3    0    0  0.45772712453E+00  0.32001604188E+00 -0.88012990135E+00  0.10423785449E+01  0.00000000000E+00 0. -1.
</event>
<event>
 7    1  0.2706925E-010  0.4778727E+02  0.7816164E-02  0.1312668E+00
        -11   -1    0    0    0    0  0.00000000000E+00  0.00000000000E+00  0.45593999997E+02  0.45594000000E+02  0.51100000000E-03 0. -1.
         11   -1    0    0    0    0 -0.00000000000E+00 -0.00000000000E+00 -0.45593999997E+02  0.45594000000E+02  0.51100000000E-03 0.  1.
    9900012    2    1    2    0    0 -0.15614116910E+02  0.15239313295E+02 -0.37517806808E+02  0.47787272537E+02  0.20000006806E+02 0.  0.
         12    1    1    2    0    0  0.15614116910E+02 -0.15239313295E+02  0.37517806808E+02  0.43400727463E+02  0.00000000000E+00 0. -1.
         11    1    3    3    0    0 -0.11002224303E+01  0.11089800831E+02 -0.16975635916E+02  0.20306806417E+02  0.51100000000E-03 0. -1.
        -11    1    3    3    0    0 -0.10666867197E+02  0.17911717649E+01 -0.20251254633E+02  0.22958738348E+02  0.51100000000E-03 0.  1.
         12    1    3    3    0    0 -0.38470272829E+01  0.23583406994E+01 -0.29091625978E+00  0.45217277715E+01  0.00000000000E+00 0. -1.
</event>
<event>
 7    1  0.2706925E-010  0.4778727E+02  0.7816164E-02  0.1312668E+00
        -11   -1    0    0    0    0  0.00000000000E+00  0.00000000000E+00  0.45593999997E+02  0.45594000000E+02  0.51100000000E-03 0. -1.
         11   -1    0    0    0    0 -0.00000000000E+00 -0.00000000000E+00 -0.45593999997E+02  0.45594000000E+02  0.51100000000E-03 0.  1.
    9900012    2    1    2    0    0  0.37148010910E+02  0.17531211228E+02 -0.14010887291E+02  0.47787273689E+02  0.20000012056E+02 0.  0.
         12    1    1    2    0    0 -0.37148010910E+02 -0.17531211228E+02  0.14010887291E+02  0.43400726311E+02  0.00000000000E+00 0. -1.
         11    1    3    3    0    0  0.19412825930E+02  0.48403242057E+01 -0.12361126913E+02  0.23517738153E+02  0.51100000000E-03 0. -1.
        -11    1    3    3    0    0  0.10853932107E+02  0.39258527748E+01  0.34040182655E+01  0.12033598913E+02  0.51100000000E-03 0.  1.
         12    1    3    3    0    0  0.68812528729E+01  0.87650342476E+01 -0.50537786437E+01  0.12235936623E+02  0.00000000000E+00 0. -1.
</event>
<event>
 7    1  0.2706925E-010  0.4778727E+02  0.7816164E-02  0.1312668E+00
        -11   -1    0    0    0    0  0.00000000000E+00  0.00000000000E+00  0.45593999997E+02  0.45594000000E+02  0.51100000000E-03 0. -1.
         11   -1    0    0    0    0 -0.00000000000E+00 -0.00000000000E+00 -0.45593999997E+02  0.45594000000E+02  0.51100000000E-03 0.  1.
    9900012    2    1    2    0    0 -0.41780126293E+02  0.52333963355E+01 -0.10519326119E+02  0.47787267146E+02  0.19999982227E+02 0.  0.
         12    1    1    2    0    0  0.41780126293E+02 -0.52333963355E+01  0.10519326119E+02  0.43400732854E+02  0.00000000000E+00 0. -1.
         11    1    3    3    0    0 -0.50935756420E+01  0.65039915767E+01 -0.14688676945E+01  0.83907086599E+01  0.51100000000E-03 0. -1.
        -11    1    3    3    0    0 -0.36504812915E+02 -0.29620982126E+01 -0.88862816417E+01  0.37687416912E+02  0.51100000000E-03 0.  1.
        -12    1    3    3    0    0 -0.18173773538E+00  0.16915029714E+01 -0.16417678271E+00  0.17091415748E+01  0.00000000000E+00 0.  1.
</event>
<event>
 7    1  0.2706925E-010  0.4778727E+02  0.7816164E-02  0.1312668E+00
        -11   -1    0    0    0    0  0.00000000000E+00  0.00000000000E+00  0.45593999997E+02  0.45594000000E+02  0.51100000000E-03 0.  1.
         11   -1    0    0    0    0 -0.00000000000E+00 -0.00000000000E+00 -0.45593999997E+02  0.45594000000E+02  0.51100000000E-03 0. -1.
    9900012    2    1    2    0    0 -0.19689268199E+02  0.27612653600E+02  0.27083155063E+02  0.47787271789E+02  0.20000003394E+02 0.  0.
         12    1    1    2    0    0  0.19689268199E+02 -0.27612653600E+02 -0.27083155063E+02  0.43400728211E+02  0.00000000000E+00 0. -1.
         11    1    3    3    0    0 -0.10935639110E+02  0.28199633823E+01  0.12795630002E+02  0.17066591447E+02  0.51100000000E-03 0. -1.
        -11    1    3    3    0    0 -0.15697162672E+01  0.14813739646E+02  0.80739546091E+01  0.16944014718E+02  0.51100000000E-03 0.  1.
         12    1    3    3    0    0 -0.71839128225E+01  0.99789505716E+01  0.62135704525E+01  0.13776665624E+02  0.00000000000E+00 0. -1.
</event>
<event>
 7    1  0.2706925E-010  0.4778727E+02  0.7816164E-02  0.1312668E+00
        -11   -1    0    0    0    0  0.00000000000E+00  0.00000000000E+00  0.45593999997E+02  0.45594000000E+02  0.51100000000E-03 0.  1.
         11   -1    0    0    0    0 -0.00000000000E+00 -0.00000000000E+00 -0.45593999997E+02  0.45594000000E+02  0.51100000000E-03 0. -1.
    9900012    2    1    2    0    0  0.27671081358E+02  0.22313097199E+02  0.24901006392E+02  0.47787272247E+02  0.20000005483E+02 0.  0.
         12    1    1    2    0    0 -0.27671081358E+02 -0.22313097199E+02 -0.24901006392E+02  0.43400727753E+02  0.00000000000E+00 0. -1.
         11    1    3    3    0    0  0.30125398462E+01 -0.10357673778E+01 -0.55113643057E+00  0.32329494292E+01  0.51100000000E-03 0. -1.
        -11    1    3    3    0    0  0.12012486567E+02  0.80057315210E+01  0.18554730443E+02  0.23508925811E+02  0.51100000000E-03 0.  1.
        -12    1    3    3    0    0  0.12646054945E+02  0.15343133056E+02  0.68974123801E+01  0.21045397007E+02  0.00000000000E+00 0.  1.
</event>
<event>
 7    1  0.2706925E-010  0.4778728E+02  0.7816164E-02  0.1312668E+00
        -11   -1    0    0    0    0  0.00000000000E+00  0.00000000000E+00  0.45593999997E+02  0.45594000000E+02  0.51100000000E-03 0.  1.
         11   -1    0    0    0    0 -0.00000000000E+00 -0.00000000000E+00 -0.45593999997E+02  0.45594000000E+02  0.51100000000E-03 0. -1.
    9900012    2    1    2    0    0  0.37421146577E+02 -0.45835576236E+01  0.21500500595E+02  0.47787277225E+02  0.20000028177E+02 0.  0.
         12    1    1    2    0    0 -0.37421146577E+02  0.45835576236E+01 -0.21500500595E+02  0.43400722775E+02  0.00000000000E+00 0. -1.
         11    1    3    3    0    0  0.10449246286E+02  0.43928816714E+01  0.85768040012E+01  0.14214278893E+02  0.51100000000E-03 0. -1.
        -11    1    3    3    0    0  0.67691377552E+01 -0.83685189883E+01  0.40770285128E+01  0.11509800075E+02  0.51100000000E-03 0.  1.
        -12    1    3    3    0    0  0.20202762535E+02 -0.60792030671E+00  0.88466680812E+01  0.22063198256E+02  0.00000000000E+00 0.  1.
</event>
<event>
 7    1  0.2706925E-010  0.4778727E+02  0.7816164E-02  0.1312668E+00
        -11   -1    0    0    0    0  0.00000000000E+00  0.00000000000E+00  0.45593999997E+02  0.45594000000E+02  0.51100000000E-03 0. -1.
         11   -1    0    0    0    0 -0.00000000000E+00 -0.00000000000E+00 -0.45593999997E+02  0.45594000000E+02  0.51100000000E-03 0.  1.
    9900012    2    1    2    0    0  0.89256848755E+01 -0.36174595586E+02 -0.22256553523E+02  0.47787269695E+02  0.19999993847E+02 0.  0.
         12    1    1    2    0    0 -0.89256848755E+01  0.36174595586E+02  0.22256553523E+02  0.43400730305E+02  0.00000000000E+00 0. -1.
         11    1    3    3    0    0  0.36319845575E+01 -0.93900511594E+01 -0.49468514020E+01  0.11217651789E+02  0.51100000000E-03 0.  1.
        -11    1    3    3    0    0  0.42650725350E+01 -0.55626757869E+01 -0.13175904969E+02  0.14924432239E+02  0.51100000000E-03 0. -1.
        -12    1    3    3    0    0  0.10286277830E+01 -0.21221868639E+02 -0.41337971522E+01  0.21645185667E+02  0.00000000000E+00 0.  1.
</event>
<event>
 7    1  0.2706925E-010  0.4778727E+02  0.7816164E-02  0.1312668E+00
        -11   -1    0    0    0    0  0.00000000000E+00  0.00000000000E+00  0.45593999997E+02  0.45594000000E+02  0.51100000000E-03 0.  1.
         11   -1    0    0    0    0 -0.00000000000E+00 -0.00000000000E+00 -0.45593999997E+02  0.45594000000E+02  0.51100000000E-03 0. -1.
    9900012    2    1    2    0    0 -0.22329782264E+02 -0.14619730411E+02  0.34223787837E+02  0.47787270200E+02  0.19999996151E+02 0.  0.
         12    1    1    2    0    0  0.22329782264E+02  0.14619730411E+02 -0.34223787837E+02  0.43400729800E+02  0.00000000000E+00 0. -1.
         11    1    3    3    0    0 -0.32153530002E+01 -0.61347329976E+00  0.95108100187E+01  0.10058347373E+02  0.51100000000E-03 0. -1.
        -11    1    3    3    0    0 -0.89496223246E+01  0.20736605514E+01  0.55819111827E+01  0.10749583273E+02  0.51100000000E-03 0.  1.
        -12    1    3    3    0    0 -0.10164806939E+02 -0.16079917662E+02  0.19131066636E+02  0.26979339554E+02  0.00000000000E+00 0.  1.
</event>
<event>
 7    1  0.2706925E-010  0.4778727E+02  0.7816164E-02  0.1312668E+00
        -11   -1    0    0    0    0  0.00000000000E+00  0.00000000000E+00  0.45593999997E+02  0.45594000000E+02  0.51100000000E-03 0. -1.
         11   -1    0    0    0    0 -0.00000000000E+00 -0.00000000000E+00 -0.45593999997E+02  0.45594000000E+02  0.51100000000E-03 0.  1.
    9900012    2    1    2    0    0 -0.40419112187E+02  0.20407250017E+01 -0.15676543294E+02  0.47787271917E+02  0.20000003978E+02 0.  0.
         12    1    1    2    0    0  0.40419112187E+02 -0.20407250017E+01  0.15676543294E+02  0.43400728083E+02  0.00000000000E+00 0. -1.
         11    1    3    3    0    0  0.17252365035E+01  0.81861031614E+00 -0.15176021762E+01  0.24391966852E+01  0.51100000000E-03 0. -1.
        -11    1    3    3    0    0 -0.83693151769E+01 -0.24949670412E+01 -0.53651378869E+01  0.10249634231E+02  0.51100000000E-03 0.  1.
         12    1    3    3    0    0 -0.33775033513E+02  0.37170817268E+01 -0.87938032311E+01  0.35098441000E+02  0.00000000000E+00 0. -1.
</event>
<event>
 7    1  0.2706925E-010  0.4778727E+02  0.7816164E-02  0.1312668E+00
        -11   -1    0    0    0    0  0.00000000000E+00  0.00000000000E+00  0.45593999997E+02  0.45594000000E+02  0.51100000000E-03 0.  1.
         11   -1    0    0    0    0 -0.00000000000E+00 -0.00000000000E+00 -0.45593999997E+02  0.45594000000E+02  0.51100000000E-03 0. -1.
    9900012    2    1    2    0    0 -0.25609084310E+02 -0.25519572078E+02  0.24011449737E+02  0.47787268707E+02  0.19999989345E+02 0.  0.
         12    1    1    2    0    0  0.25609084310E+02  0.25519572078E+02 -0.24011449737E+02  0.43400731293E+02  0.00000000000E+00 0. -1.
         11    1    3    3    0    0 -0.40551434458E+01  0.12921119129E+01  0.12077251137E+00  0.42577374064E+01  0.51100000000E-03 0. -1.
        -11    1    3    3    0    0 -0.70996970643E+01 -0.92128492900E+01  0.17407659862E+01  0.11760635906E+02  0.51100000000E-03 0.  1.
        -12    1    3    3    0    0 -0.14454243800E+02 -0.17598834701E+02  0.22149911240E+02  0.31768895395E+02  0.00000000000E+00 0.  1.
</event>
<event>
 7    1  0.2706925E-010  0.4778727E+02  0.7816164E-02  0.1312668E+00
        -11   -1    0    0    0    0  0.00000000000E+00  0.00000000000E+00  0.45593999997E+02  0.45594000000E+02  0.51100000000E-03 0.  1.
         11   -1    0    0    0    0 -0.00000000000E+00 -0.00000000000E+00 -0.45593999997E+02  0.45594000000E+02  0.51100000000E-03 0. -1.
    9900012    2    1    2    0    0 -0.15061538213E+02 -0.79197416679E+01  0.39925570801E+02  0.47787269071E+02  0.19999991000E+02 0.  0.
         12    1    1    2    0    0  0.15061538213E+02  0.79197416679E+01 -0.39925570801E+02  0.43400730929E+02  0.00000000000E+00 0. -1.
         11    1    3    3    0    0 -0.13705944483E+02 -0.11914471674E+02  0.32779393644E+02  0.37473940244E+02  0.51100000000E-03 0. -1.
        -11    1    3    3    0    0  0.17882937185E+01  0.27691863763E+01  0.58181282524E+01  0.66870774060E+01  0.51100000000E-03 0.  1.
        -12    1    3    3    0    0 -0.31438874478E+01  0.12255436300E+01  0.13280489044E+01  0.36262514207E+01  0.00000000000E+00 0.  1.
</event>
<event>
 7    1  0.2706925E-010  0.4778727E+02  0.7816164E-02  0.1312668E+00
        -11   -1    0    0    0    0  0.00000000000E+00  0.00000000000E+00  0.45593999997E+02  0.45594000000E+02  0.51100000000E-03 0.  1.
         11   -1    0    0    0    0 -0.00000000000E+00 -0.00000000000E+00 -0.45593999997E+02  0.45594000000E+02  0.51100000000E-03 0. -1.
    9900012    2    1    2    0    0 -0.82885483622E+00  0.66776251460E+01  0.42875932153E+02  0.47787271482E+02  0.20000001993E+02 0.  0.
         12    1    1    2    0    0  0.82885483622E+00 -0.66776251460E+01 -0.42875932153E+02  0.43400728518E+02  0.00000000000E+00 0. -1.
         11    1    3    3    0    0  0.49634899418E+01 -0.45417381191E+01  0.18668463089E+02  0.19843768088E+02  0.51100000000E-03 0. -1.
        -11    1    3    3    0    0 -0.10483695285E+01  0.77339010322E+01  0.11040819561E+02  0.13520798818E+02  0.51100000000E-03 0.  1.
         12    1    3    3    0    0 -0.47439752494E+01  0.34854622328E+01  0.13166649503E+02  0.14422704576E+02  0.00000000000E+00 0. -1.
</event>
<event>
 7    1  0.2706925E-010  0.4778726E+02  0.7816164E-02  0.1312668E+00
        -11   -1    0    0    0    0  0.00000000000E+00  0.00000000000E+00  0.45593999997E+02  0.45594000000E+02  0.51100000000E-03 0. -1.
         11   -1    0    0    0    0 -0.00000000000E+00 -0.00000000000E+00 -0.45593999997E+02  0.45594000000E+02  0.51100000000E-03 0.  1.
    9900012    2    1    2    0    0 -0.23254021827E+02 -0.16333705399E+02 -0.32803725530E+02  0.47787264156E+02  0.19999968593E+02 0.  0.
         12    1    1    2    0    0  0.23254021827E+02  0.16333705399E+02  0.32803725530E+02  0.43400735844E+02  0.00000000000E+00 0. -1.
         11    1    3    3    0    0 -0.19303784956E+01 -0.45142893140E+01 -0.15134751730E+02  0.15911187238E+02  0.51100000000E-03 0. -1.
        -11    1    3    3    0    0 -0.17998726082E+02 -0.13101246218E+02 -0.17485443237E+02  0.28307905583E+02  0.51100000000E-03 0.  1.
         12    1    3    3    0    0 -0.33249172491E+01  0.12818301337E+01 -0.18353056264E+00  0.35681713345E+01  0.00000000000E+00 0. -1.
</event>
<event>
 7    1  0.2706925E-010  0.4778727E+02  0.7816164E-02  0.1312668E+00
        -11   -1    0    0    0    0  0.00000000000E+00  0.00000000000E+00  0.45593999997E+02  0.45594000000E+02  0.51100000000E-03 0.  1.
         11   -1    0    0    0    0 -0.00000000000E+00 -0.00000000000E+00 -0.45593999997E+02  0.45594000000E+02  0.51100000000E-03 0. -1.
    9900012    2    1    2    0    0 -0.23559426013E+02 -0.34861989645E+02  0.10640403460E+02  0.47787273487E+02  0.20000011135E+02 0.  0.
         12    1    1    2    0    0  0.23559426013E+02  0.34861989645E+02 -0.10640403460E+02  0.43400726513E+02  0.00000000000E+00 0. -1.
         11    1    3    3    0    0 -0.14503403455E+01 -0.60178968850E+01  0.19970592855E+01  0.65043689999E+01  0.51100000000E-03 0. -1.
        -11    1    3    3    0    0 -0.12917618746E+01 -0.97493672414E+01  0.85543578307E+01  0.13034410171E+02  0.51100000000E-03 0.  1.
        -12    1    3    3    0    0 -0.20817323793E+02 -0.19094725519E+02  0.88986343693E-01  0.28248494316E+02  0.00000000000E+00 0.  1.
</event>
<event>
 7    1  0.2706925E-010  0.4778727E+02  0.7816164E-02  0.1312668E+00
        -11   -1    0    0    0    0  0.00000000000E+00  0.00000000000E+00  0.45593999997E+02  0.45594000000E+02  0.51100000000E-03 0. -1.
         11   -1    0    0    0    0 -0.00000000000E+00 -0.00000000000E+00 -0.45593999997E+02  0.45594000000E+02  0.51100000000E-03 0.  1.
    9900012    2    1    2    0    0 -0.19351352695E+02 -0.26307759279E+02 -0.28584097924E+02  0.47787266095E+02  0.19999977432E+02 0.  0.
         12    1    1    2    0    0  0.19351352695E+02  0.26307759279E+02  0.28584097924E+02  0.43400733905E+02  0.00000000000E+00 0. -1.
         11    1    3    3    0    0 -0.18848052010E+01  0.15200853280E+01  0.35635023313E+00  0.24474753931E+01  0.51100000000E-03 0. -1.
        -11    1    3    3    0    0 -0.17971127145E+02 -0.24146695080E+02 -0.28742151396E+02  0.41618932726E+02  0.51100000000E-03 0.  1.
        -12    1    3    3    0    0  0.50457965142E+00 -0.36811495274E+01 -0.19829676100E+00  0.37208579754E+01  0.00000000000E+00 0.  1.
</event>
<event>
 7    1  0.2706925E-010  0.4778727E+02  0.7816164E-02  0.1312668E+00
        -11   -1    0    0    0    0  0.00000000000E+00  0.00000000000E+00  0.45593999997E+02  0.45594000000E+02  0.51100000000E-03 0. -1.
         11   -1    0    0    0    0 -0.00000000000E+00 -0.00000000000E+00 -0.45593999997E+02  0.45594000000E+02  0.51100000000E-03 0.  1.
    9900012    2    1    2    0    0  0.20180262065E+02  0.23547349083E+02 -0.30362846425E+02  0.47787273406E+02  0.20000010767E+02 0.  0.
         12    1    1    2    0    0 -0.20180262065E+02 -0.23547349083E+02  0.30362846425E+02  0.43400726594E+02  0.00000000000E+00 0. -1.
         11    1    3    3    0    0  0.49049345184E+01  0.78640037724E+01 -0.16804219914E+01  0.94193819485E+01  0.51100000000E-03 0. -1.
        -11    1    3    3    0    0  0.11167659486E+02  0.38899325491E+01 -0.19728552396E+02  0.23001390687E+02  0.51100000000E-03 0.  1.
        -12    1    3    3    0    0  0.41076680606E+01  0.11793412761E+02 -0.89538720377E+01  0.15366500770E+02  0.00000000000E+00 0.  1.
</event>
<event>
 7    1  0.2706925E-010  0.4778727E+02  0.7816164E-02  0.1312668E+00
        -11   -1    0    0    0    0  0.00000000000E+00  0.00000000000E+00  0.45593999997E+02  0.45594000000E+02  0.51100000000E-03 0.  1.
         11   -1    0    0    0    0 -0.00000000000E+00 -0.00000000000E+00 -0.45593999997E+02  0.45594000000E+02  0.51100000000E-03 0. -1.
    9900012    2    1    2    0    0  0.84597214183E+00 -0.30301813104E+01  0.43286552010E+02  0.47787271290E+02  0.20000001121E+02 0.  0.
         12    1    1    2    0    0 -0.84597214183E+00  0.30301813104E+01 -0.43286552010E+02  0.43400728710E+02  0.00000000000E+00 0. -1.
         11    1    3    3    0    0 -0.13380944310E+01 -0.92981484919E+01  0.28834118166E+02  0.30325771758E+02  0.51100000000E-03 0. -1.
        -11    1    3    3    0    0  0.25132644015E+00  0.47421700400E+01  0.27183283746E+01  0.54718051026E+01  0.51100000000E-03 0.  1.
         12    1    3    3    0    0  0.19327401327E+01  0.15257971415E+01  0.11734105469E+02  0.11989694429E+02  0.00000000000E+00 0. -1.
</event>
<event>
 7    1  0.2706925E-010  0.4778727E+02  0.7816164E-02  0.1312668E+00
        -11   -1    0    0    0    0  0.00000000000E+00  0.00000000000E+00  0.45593999997E+02  0.45594000000E+02  0.51100000000E-03 0.  1.
         11   -1    0    0    0    0 -0.00000000000E+00 -0.00000000000E+00 -0.45593999997E+02  0.45594000000E+02  0.51100000000E-03 0. -1.
    9900012    2    1    2    0    0  0.29328377630E+02 -0.19533802145E+00  0.31991114228E+02  0.47787270963E+02  0.19999999631E+02 0.  0.
         12    1    1    2    0    0 -0.29328377630E+02  0.19533802145E+00 -0.31991114228E+02  0.43400729037E+02  0.00000000000E+00 0. -1.
         11    1    3    3    0    0  0.49601260287E+01  0.76630903653E+01  0.89903839383E+01  0.12812213227E+02  0.51100000000E-03 0. -1.
        -11    1    3    3    0    0  0.21214667739E+02 -0.60726314028E+01  0.22121553440E+02  0.31245833423E+02  0.51100000000E-03 0.  1.
         12    1    3    3    0    0  0.31535838622E+01 -0.17857969840E+01  0.87917684987E+00  0.37292243130E+01  0.00000000000E+00 0. -1.
</event>
<event>
 7    1  0.2706925E-010  0.4778728E+02  0.7816164E-02  0.1312668E+00
        -11   -1    0    0    0    0  0.00000000000E+00  0.00000000000E+00  0.45593999997E+02  0.45594000000E+02  0.51100000000E-03 0.  1.
         11   -1    0    0    0    0 -0.00000000000E+00 -0.00000000000E+00 -0.45593999997E+02  0.45594000000E+02  0.51100000000E-03 0. -1.
    9900012    2    1    2    0    0 -0.24649997609E+02 -0.18289230296E+02  0.30683945505E+02  0.47787276058E+02  0.20000022859E+02 0.  0.
         12    1    1    2    0    0  0.24649997609E+02  0.18289230296E+02 -0.30683945505E+02  0.43400723942E+02  0.00000000000E+00 0. -1.
         11    1    3    3    0    0  0.17390371223E+01  0.67080336384E+00  0.81272530999E+00  0.20334084578E+01  0.51100000000E-03 0. -1.
        -11    1    3    3    0    0 -0.26887211462E+02 -0.17260376232E+02  0.24994879816E+02  0.40565832238E+02  0.51100000000E-03 0.  1.
        -12    1    3    3    0    0  0.49817673134E+00 -0.16996574277E+01  0.48763403792E+01  0.51880353623E+01  0.00000000000E+00 0.  1.
</event>
<event>
 7    1  0.2706925E-010  0.4778727E+02  0.7816164E-02  0.1312668E+00
        -11   -1    0    0    0    0  0.00000000000E+00  0.00000000000E+00  0.45593999997E+02  0.45594000000E+02  0.51100000000E-03 0. -1.
         11   -1    0    0    0    0 -0.00000000000E+00 -0.00000000000E+00 -0.45593999997E+02  0.45594000000E+02  0.51100000000E-03 0.  1.
    9900012    2    1    2    0    0 -0.67245659605E+01 -0.25570133232E+02 -0.34417606603E+02  0.47787272527E+02  0.20000006760E+02 0.  0.
         12    1    1    2    0    0  0.67245659605E+01  0.25570133232E+02  0.34417606603E+02  0.43400727473E+02  0.00000000000E+00 0. -1.
         11    1    3    3    0    0  0.32991813290E+01 -0.15629007909E+02 -0.14391434197E+02  0.21500322420E+02  0.51100000000E-03 0. -1.
        -11    1    3    3    0    0 -0.44967316656E+00 -0.69915024917E+01 -0.79615482032E+01  0.10605166812E+02  0.51100000000E-03 0.  1.
         12    1    3    3    0    0 -0.95740741229E+01 -0.29496228313E+01 -0.12064624203E+02  0.15681783295E+02  0.00000000000E+00 0. -1.
</event>
<event>
 7    1  0.2706925E-010  0.4778727E+02  0.7816164E-02  0.1312668E+00
        -11   -1    0    0    0    0  0.00000000000E+00  0.00000000000E+00  0.45593999997E+02  0.45594000000E+02  0.51100000000E-03 0. -1.
         11   -1    0    0    0    0 -0.00000000000E+00 -0.00000000000E+00 -0.45593999997E+02  0.45594000000E+02  0.51100000000E-03 0.  1.
    9900012    2    1    2    0    0 -0.53174045363E+01 -0.33235499489E+02 -0.27399814727E+02  0.47787273458E+02  0.20000011006E+02 0.  0.
         12    1    1    2    0    0  0.53174045363E+01  0.33235499489E+02  0.27399814727E+02  0.43400726542E+02  0.00000000000E+00 0. -1.
         11    1    3    3    0    0  0.85149188678E+00 -0.44043519650E+01 -0.11931740107E+02  0.12747147795E+02  0.51100000000E-03 0. -1.
        -11    1    3    3    0    0 -0.58516039686E+01 -0.20246962044E+02 -0.53048336498E+01  0.21732970375E+02  0.51100000000E-03 0.  1.
        -12    1    3    3    0    0 -0.31729245452E+00 -0.85841854803E+01 -0.10163240970E+02  0.13307155289E+02  0.00000000000E+00 0.  1.
</event>
<event>
 7    1  0.2706925E-010  0.4778727E+02  0.7816164E-02  0.1312668E+00
        -11   -1    0    0    0    0  0.00000000000E+00  0.00000000000E+00  0.45593999997E+02  0.45594000000E+02  0.51100000000E-03 0. -1.
         11   -1    0    0    0    0 -0.00000000000E+00 -0.00000000000E+00 -0.45593999997E+02  0.45594000000E+02  0.51100000000E-03 0.  1.
    9900012    2    1    2    0    0 -0.26356650667E+02 -0.34417700894E+02 -0.20909103331E+01  0.47787273333E+02  0.20000010436E+02 0.  0.
         12    1    1    2    0    0  0.26356650667E+02  0.34417700894E+02  0.20909103331E+01  0.43400726667E+02  0.00000000000E+00 0. -1.
         11    1    3    3    0    0 -0.17791357684E+02 -0.23612655274E+02 -0.50209342807E+01  0.29988325706E+02  0.51100000000E-03 0.  1.
        -11    1    3    3    0    0 -0.31796950107E+00 -0.88872654835E+01  0.28252050445E+01  0.93309365115E+01  0.51100000000E-03 0. -1.
        -12    1    3    3    0    0 -0.82473234814E+01 -0.19177801365E+01  0.10481890316E+00  0.84680111160E+01  0.00000000000E+00 0.  1.
</event>
<event>
 7    1  0.2706925E-010  0.4778728E+02  0.7816164E-02  0.1312668E+00
        -11   -1    0    0    0    0  0.00000000000E+00  0.00000000000E+00  0.45593999997E+02  0.45594000000E+02  0.51100000000E-03 0.  1.
         11   -1    0    0    0    0 -0.00000000000E+00 -0.00000000000E+00 -0.45593999997E+02  0.45594000000E+02  0.51100000000E-03 0. -1.
    9900012    2    1    2    0    0  0.86980785073E+01 -0.13723693518E+02  0.40244583678E+02  0.47787275940E+02  0.20000022322E+02 0.  0.
         12    1    1    2    0    0 -0.86980785073E+01  0.13723693518E+02 -0.40244583678E+02  0.43400724060E+02  0.00000000000E+00 0. -1.
         11    1    3    3    0    0  0.68334496402E+00  0.26690565515E+01 -0.64767225884E+00  0.28302478391E+01  0.51100000000E-03 0. -1.
        -11    1    3    3    0    0  0.30834577595E+01 -0.10297765480E+02  0.25802534724E+02  0.27952146323E+02  0.51100000000E-03 0.  1.
        -12    1    3    3    0    0  0.49312757839E+01 -0.60949845899E+01  0.15089721212E+02  0.17004881778E+02  0.00000000000E+00 0.  1.
</event>
<event>
 7    1  0.2706925E-010  0.4778727E+02  0.7816164E-02  0.1312668E+00
        -11   -1    0    0    0    0  0.00000000000E+00  0.00000000000E+00  0.45593999997E+02  0.45594000000E+02  0.51100000000E-03 0. -1.
         11   -1    0    0    0    0 -0.00000000000E+00 -0.00000000000E+00 -0.45593999997E+02  0.45594000000E+02  0.51100000000E-03 0.  1.
    9900012    2    1    2    0    0 -0.35392656831E+02  0.10571319782E+01 -0.25097121204E+02  0.47787272146E+02  0.20000005022E+02 0.  0.
         12    1    1    2    0    0  0.35392656831E+02 -0.10571319782E+01  0.25097121204E+02  0.43400727854E+02  0.00000000000E+00 0. -1.
         11    1    3    3    0    0 -0.14891751175E+02 -0.19571317991E+01 -0.25406067922E+01  0.15233164513E+02  0.51100000000E-03 0. -1.
        -11    1    3    3    0    0 -0.39132325209E+01  0.24204742295E+01 -0.12078470638E+02  0.12925228721E+02  0.51100000000E-03 0.  1.
        -12    1    3    3    0    0 -0.16587673134E+02  0.59378954776E+00 -0.10478043773E+02  0.19628878912E+02  0.00000000000E+00 0.  1.
</event>
<event>
 7    1  0.2706925E-010  0.4778727E+02  0.7816164E-02  0.1312668E+00
        -11   -1    0    0    0    0  0.00000000000E+00  0.00000000000E+00  0.45593999997E+02  0.45594000000E+02  0.51100000000E-03 0.  1.
         11   -1    0    0    0    0 -0.00000000000E+00 -0.00000000000E+00 -0.45593999997E+02  0.45594000000E+02  0.51100000000E-03 0. -1.
    9900012    2    1    2    0    0 -0.29287177175E+02  0.11212488317E+02  0.30002746869E+02  0.47787268891E+02  0.19999990180E+02 0.  0.
         12    1    1    2    0    0  0.29287177175E+02 -0.11212488317E+02 -0.30002746869E+02  0.43400731109E+02  0.00000000000E+00 0. -1.
         11    1    3    3    0    0 -0.17609136350E+02  0.25420330256E+01  0.22375614032E+02  0.28586915162E+02  0.51100000000E-03 0. -1.
        -11    1    3    3    0    0 -0.11628860735E+02  0.10302363230E+02  0.80723992619E+01  0.17508075858E+02  0.51100000000E-03 0.  1.
         12    1    3    3    0    0 -0.49180090349E-01 -0.16319079394E+01 -0.44526642534E+00  0.16922778713E+01  0.00000000000E+00 0. -1.
</event>
<event>
 7    1  0.2706925E-010  0.4778727E+02  0.7816164E-02  0.1312668E+00
        -11   -1    0    0    0    0  0.00000000000E+00  0.00000000000E+00  0.45593999997E+02  0.45594000000E+02  0.51100000000E-03 0.  1.
         11   -1    0    0    0    0 -0.00000000000E+00 -0.00000000000E+00 -0.45593999997E+02  0.45594000000E+02  0.51100000000E-03 0. -1.
    9900012    2    1    2    0    0 -0.26323617046E+02  0.32130921133E+02  0.12581524451E+02  0.47787266541E+02  0.19999979469E+02 0.  0.
         12    1    1    2    0    0  0.26323617046E+02 -0.32130921133E+02 -0.12581524451E+02  0.43400733459E+02  0.00000000000E+00 0. -1.
         11    1    3    3    0    0 -0.77391140418E+01  0.16496372410E+02  0.11982924888E+02  0.21808591839E+02  0.51100000000E-03 0. -1.
        -11    1    3    3    0    0 -0.12098742405E+02  0.59757306391E+01  0.35949364532E+01  0.13964687351E+02  0.51100000000E-03 0.  1.
         12    1    3    3    0    0 -0.64857605997E+01  0.96588180834E+01 -0.29963368905E+01  0.12013987352E+02  0.00000000000E+00 0. -1.
</event>
<event>
 7    1  0.2706925E-010  0.4778727E+02  0.7816164E-02  0.1312668E+00
        -11   -1    0    0    0    0  0.00000000000E+00  0.00000000000E+00  0.45593999997E+02  0.45594000000E+02  0.51100000000E-03 0.  1.
         11   -1    0    0    0    0 -0.00000000000E+00 -0.00000000000E+00 -0.45593999997E+02  0.45594000000E+02  0.51100000000E-03 0. -1.
    9900012    2    1    2    0    0  0.34690058948E+02 -0.20513081784E+01  0.26000288140E+02  0.47787273758E+02  0.20000012370E+02 0.  0.
         12    1    1    2    0    0 -0.34690058948E+02  0.20513081784E+01 -0.26000288140E+02  0.43400726242E+02  0.00000000000E+00 0. -1.
         11    1    3    3    0    0  0.50270507511E+01 -0.49189194183E+01  0.29287439599E+00  0.70393737769E+01  0.51100000000E-03 0. -1.
        -11    1    3    3    0    0  0.28451957248E+01 -0.21332226137E+01  0.64170380976E+01  0.73364947788E+01  0.51100000000E-03 0.  1.
         12    1    3    3    0    0  0.26817812472E+02  0.50008338537E+01  0.19290375646E+02  0.33411405202E+02  0.00000000000E+00 0. -1.
</event>
<event>
 7    1  0.2706925E-010  0.4778727E+02  0.7816164E-02  0.1312668E+00
        -11   -1    0    0    0    0  0.00000000000E+00  0.00000000000E+00  0.45593999997E+02  0.45594000000E+02  0.51100000000E-03 0. -1.
         11   -1    0    0    0    0 -0.00000000000E+00 -0.00000000000E+00 -0.45593999997E+02  0.45594000000E+02  0.51100000000E-03 0.  1.
    9900012    2    1    2    0    0  0.24625068425E+02  0.29877347928E+02 -0.19610541447E+02  0.47787271319E+02  0.20000001254E+02 0.  0.
         12    1    1    2    0    0 -0.24625068425E+02 -0.29877347928E+02  0.19610541447E+02  0.43400728681E+02  0.00000000000E+00 0. -1.
         11    1    3    3    0    0 -0.20251126219E+01  0.13495121420E+01 -0.44849199285E+01  0.51026239504E+01  0.51100000000E-03 0. -1.
        -11    1    3    3    0    0  0.23082827752E+02  0.22594315635E+02 -0.92357853100E+01  0.33594936621E+02  0.51100000000E-03 0.  1.
        -12    1    3    3    0    0  0.35673532952E+01  0.59335201509E+01 -0.58898362083E+01  0.90897107476E+01  0.00000000000E+00 0.  1.
</event>
<event>
 7    1  0.2706925E-010  0.4778727E+02  0.7816164E-02  0.1312668E+00
        -11   -1    0    0    0    0  0.00000000000E+00  0.00000000000E+00  0.45593999997E+02  0.45594000000E+02  0.51100000000E-03 0.  1.
         11   -1    0    0    0    0 -0.00000000000E+00 -0.00000000000E+00 -0.45593999997E+02  0.45594000000E+02  0.51100000000E-03 0. -1.
    9900012    2    1    2    0    0 -0.30862927158E+01 -0.25552427874E+02  0.34945266584E+02  0.47787269251E+02  0.19999991821E+02 0.  0.
         12    1    1    2    0    0  0.30862927158E+01  0.25552427874E+02 -0.34945266584E+02  0.43400730749E+02  0.00000000000E+00 0. -1.
         11    1    3    3    0    0 -0.84084073171E+01 -0.22571597143E+02  0.30712258332E+02  0.39031027700E+02  0.51100000000E-03 0.  1.
        -11    1    3    3    0    0  0.34728263873E+01 -0.85228928899E+00  0.46921583066E+01  0.58994296321E+01  0.51100000000E-03 0. -1.
        -12    1    3    3    0    0  0.18492882141E+01 -0.21285414417E+01 -0.45915005436E+00  0.28568119189E+01  0.00000000000E+00 0.  1.
</event>
<event>
 7    1  0.2706925E-010  0.4778727E+02  0.7816164E-02  0.1312668E+00
        -11   -1    0    0    0    0  0.00000000000E+00  0.00000000000E+00  0.45593999997E+02  0.45594000000E+02  0.51100000000E-03 0. -1.
         11   -1    0    0    0    0 -0.00000000000E+00 -0.00000000000E+00 -0.45593999997E+02  0.45594000000E+02  0.51100000000E-03 0.  1.
    9900012    2    1    2    0    0  0.21730602383E+02  0.14657444145E+02 -0.34591379976E+02  0.47787270543E+02  0.19999997712E+02 0.  0.
         12    1    1    2    0    0 -0.21730602383E+02 -0.14657444145E+02  0.34591379976E+02  0.43400729457E+02  0.00000000000E+00 0. -1.
         11    1    3    3    0    0 -0.81655469201E+00  0.10455390247E+01  0.11715491114E+01  0.17698703339E+01  0.51100000000E-03 0. -1.
        -11    1    3    3    0    0 -0.12976962977E+01  0.55715687836E+00 -0.38202798924E+01  0.40729569339E+01  0.51100000000E-03 0.  1.
         12    1    3    3    0    0  0.23844853373E+02  0.13054748242E+02 -0.31942649195E+02  0.41944443275E+02  0.00000000000E+00 0. -1.
</event>
<event>
 7    1  0.2706925E-010  0.4778727E+02  0.7816164E-02  0.1312668E+00
        -11   -1    0    0    0    0  0.00000000000E+00  0.00000000000E+00  0.45593999997E+02  0.45594000000E+02  0.51100000000E-03 0. -1.
         11   -1    0    0    0    0 -0.00000000000E+00 -0.00000000000E+00 -0.45593999997E+02  0.45594000000E+02  0.51100000000E-03 0.  1.
    9900012    2    1    2    0    0 -0.18322724233E+02  0.52415801117E+01 -0.38992651133E+02  0.47787271575E+02  0.20000002421E+02 0.  0.
         12    1    1    2    0    0  0.18322724233E+02 -0.52415801117E+01  0.38992651133E+02  0.43400728425E+02  0.00000000000E+00 0. -1.
         11    1    3    3    0    0 -0.58865039609E+01  0.71789215896E+01 -0.51095050847E+01  0.10596928165E+02  0.51100000000E-03 0. -1.
        -11    1    3    3    0    0 -0.35161435944E+01 -0.17440452521E+01 -0.21908234594E+02  0.22257037155E+02  0.51100000000E-03 0.  1.
        -12    1    3    3    0    0 -0.89200766777E+01 -0.19329622590E+00 -0.11974911454E+02  0.14933306255E+02  0.00000000000E+00 0.  1.
</event>
<event>
 7    1  0.2706925E-010  0.4778727E+02  0.7816164E-02  0.1312668E+00
        -11   -1    0    0    0    0  0.00000000000E+00  0.00000000000E+00  0.45593999997E+02  0.45594000000E+02  0.51100000000E-03 0.  1.
         11   -1    0    0    0    0 -0.00000000000E+00 -0.00000000000E+00 -0.45593999997E+02  0.45594000000E+02  0.51100000000E-03 0. -1.
    9900012    2    1    2    0    0  0.21760287974E+02 -0.29406966259E+02  0.23352586428E+02  0.47787273161E+02  0.20000009651E+02 0.  0.
         12    1    1    2    0    0 -0.21760287974E+02  0.29406966259E+02 -0.23352586428E+02  0.43400726839E+02  0.00000000000E+00 0. -1.
         11    1    3    3    0    0 -0.79290538843E+00 -0.83064900975E+01  0.11146371759E+02  0.13923651833E+02  0.51100000000E-03 0. -1.
        -11    1    3    3    0    0  0.15592634748E+02 -0.10544561156E+02  0.58485406201E+01  0.19710998351E+02  0.51100000000E-03 0.  1.
        -12    1    3    3    0    0  0.69605586141E+01 -0.10555915006E+02  0.63576740489E+01  0.14152622977E+02  0.00000000000E+00 0.  1.
</event>
<event>
 7    1  0.2706925E-010  0.4778727E+02  0.7816164E-02  0.1312668E+00
        -11   -1    0    0    0    0  0.00000000000E+00  0.00000000000E+00  0.45593999997E+02  0.45594000000E+02  0.51100000000E-03 0.  1.
         11   -1    0    0    0    0 -0.00000000000E+00 -0.00000000000E+00 -0.45593999997E+02  0.45594000000E+02  0.51100000000E-03 0. -1.
    9900012    2    1    2    0    0 -0.25987826148E+02 -0.11240175463E+00  0.34759800460E+02  0.47787268785E+02  0.19999989697E+02 0.  0.
         12    1    1    2    0    0  0.25987826148E+02  0.11240175463E+00 -0.34759800460E+02  0.43400731215E+02  0.00000000000E+00 0. -1.
         11    1    3    3    0    0  0.20842272907E+00 -0.92050120358E+00 -0.31312737487E+00  0.99439002097E+00  0.51100000000E-03 0. -1.
        -11    1    3    3    0    0 -0.13998498827E+02 -0.60224819680E+01  0.10449383939E+02  0.18477496676E+02  0.51100000000E-03 0.  1.
        -12    1    3    3    0    0 -0.12197750050E+02  0.68305814169E+01  0.24623543896E+02  0.28315382088E+02  0.00000000000E+00 0.  1.
</event>
<event>
 7    1  0.2706925E-010  0.4778727E+02  0.7816164E-02  0.1312668E+00
        -11   -1    0    0    0    0  0.00000000000E+00  0.00000000000E+00  0.45593999997E+02  0.45594000000E+02  0.51100000000E-03 0.  1.
         11   -1    0    0    0    0 -0.00000000000E+00 -0.00000000000E+00 -0.45593999997E+02  0.45594000000E+02  0.51100000000E-03 0. -1.
    9900012    2    1    2    0    0  0.41182217313E+02 -0.11742306119E+02  0.70545376601E+01  0.47787271003E+02  0.19999999813E+02 0.  0.
         12    1    1    2    0    0 -0.41182217313E+02  0.11742306119E+02 -0.70545376601E+01  0.43400728997E+02  0.00000000000E+00 0. -1.
         11    1    3    3    0    0  0.34381222978E+01  0.13837557629E+00  0.27331893512E+01  0.43943323754E+01  0.51100000000E-03 0. -1.
        -11    1    3    3    0    0  0.21968478284E+02 -0.93199805108E+01  0.10741223885E+02  0.26169638241E+02  0.51100000000E-03 0.  1.
        -12    1    3    3    0    0  0.15775616731E+02 -0.25607011848E+01 -0.64198755761E+01  0.17223300387E+02  0.00000000000E+00 0.  1.
</event>
<event>
 7    1  0.2706925E-010  0.4778727E+02  0.7816164E-02  0.1312668E+00
        -11   -1    0    0    0    0  0.00000000000E+00  0.00000000000E+00  0.45593999997E+02  0.45594000000E+02  0.51100000000E-03 0.  1.
         11   -1    0    0    0    0 -0.00000000000E+00 -0.00000000000E+00 -0.45593999997E+02  0.45594000000E+02  0.51100000000E-03 0. -1.
    9900012    2    1    2    0    0 -0.46272376506E+01 -0.51776397965E+00  0.43150247470E+02  0.47787271152E+02  0.20000000492E+02 0.  0.
         12    1    1    2    0    0  0.46272376506E+01  0.51776397965E+00 -0.43150247470E+02  0.43400728848E+02  0.00000000000E+00 0. -1.
         11    1    3    3    0    0  0.59589293823E+01  0.41372708254E+01  0.11146629250E+02  0.13299368149E+02  0.51100000000E-03 0. -1.
        -11    1    3    3    0    0 -0.50582616126E+01 -0.19092030274E+01  0.22613496147E+02  0.23250833855E+02  0.51100000000E-03 0.  1.
         12    1    3    3    0    0 -0.55279054202E+01 -0.27458317777E+01  0.93901220734E+01  0.11237069148E+02  0.00000000000E+00 0. -1.
</event>
<event>
 7    1  0.2706925E-010  0.4778727E+02  0.7816164E-02  0.1312668E+00
        -11   -1    0    0    0    0  0.00000000000E+00  0.00000000000E+00  0.45593999997E+02  0.45594000000E+02  0.51100000000E-03 0.  1.
         11   -1    0    0    0    0 -0.00000000000E+00 -0.00000000000E+00 -0.45593999997E+02  0.45594000000E+02  0.51100000000E-03 0. -1.
    9900012    2    1    2    0    0  0.79468195793E+00 -0.26474835028E+02  0.34381321747E+02  0.47787266202E+02  0.19999977920E+02 0.  0.
         12    1    1    2    0    0 -0.79468195793E+00  0.26474835028E+02 -0.34381321747E+02  0.43400733798E+02  0.00000000000E+00 0. -1.
         11    1    3    3    0    0  0.99095830341E+01 -0.15024109239E+02  0.16843890791E+02  0.24650362098E+02  0.51100000000E-03 0. -1.
        -11    1    3    3    0    0 -0.62303915907E+01 -0.79771265640E+01  0.93121181308E+01  0.13753831173E+02  0.51100000000E-03 0.  1.
         12    1    3    3    0    0 -0.28845094855E+01 -0.34735992252E+01  0.82253128254E+01  0.93830729308E+01  0.00000000000E+00 0. -1.
</event>
<event>
 7    1  0.2706925E-010  0.4778730E+02  0.7816164E-02  0.1312668E+00
        -11   -1    0    0    0    0  0.00000000000E+00  0.00000000000E+00  0.45593999997E+02  0.45594000000E+02  0.51100000000E-03 0.  1.
         11   -1    0    0    0    0 -0.00000000000E+00 -0.00000000000E+00 -0.45593999997E+02  0.45594000000E+02  0.51100000000E-03 0. -1.
    9900012    2    1    2    0    0  0.21060389303E+02  0.23484485043E+02 -0.29808720491E+02  0.47787298938E+02  0.20000127179E+02 0.  0.
         12    1    1    2    0    0 -0.21060389303E+02 -0.23484485043E+02  0.29808720491E+02  0.43400701062E+02  0.00000000000E+00 0. -1.
         11    1    3    3    0    0  0.46059220887E+01  0.14176740509E+02 -0.20879255235E+02  0.25654196327E+02  0.51100000000E-03 0. -1.
        -11    1    3    3    0    0  0.12766151993E+02  0.72434401641E+01 -0.32159655773E+01  0.15026127145E+02  0.51100000000E-03 0.  1.
        -12    1    3    3    0    0  0.36883152210E+01  0.20643043697E+01 -0.57134996786E+01  0.71069754662E+01  0.00000000000E+00 0.  1.
</event>
<event>
 7    1  0.2706925E-010  0.4778727E+02  0.7816164E-02  0.1312668E+00
        -11   -1    0    0    0    0  0.00000000000E+00  0.00000000000E+00  0.45593999997E+02  0.45594000000E+02  0.51100000000E-03 0. -1.
         11   -1    0    0    0    0 -0.00000000000E+00 -0.00000000000E+00 -0.45593999997E+02  0.45594000000E+02  0.51100000000E-03 0.  1.
    9900012    2    1    2    0    0 -0.34606180524E+02 -0.25549278094E+02 -0.57680099265E+01  0.47787270972E+02  0.19999999672E+02 0.  0.
         12    1    1    2    0    0  0.34606180524E+02  0.25549278094E+02  0.57680099265E+01  0.43400729028E+02  0.00000000000E+00 0. -1.
         11    1    3    3    0    0 -0.41680640365E+01 -0.10694213704E+02  0.87150214286E+00  0.11510798443E+02  0.51100000000E-03 0. -1.
        -11    1    3    3    0    0 -0.20302242100E+02 -0.38166390183E+01 -0.32517375567E+01  0.20912234818E+02  0.51100000000E-03 0.  1.
         12    1    3    3    0    0 -0.10135874388E+02 -0.11038425372E+02 -0.33877745127E+01  0.15364237711E+02  0.00000000000E+00 0. -1.
</event>
<event>
 7    1  0.2706925E-010  0.4778727E+02  0.7816164E-02  0.1312668E+00
        -11   -1    0    0    0    0  0.00000000000E+00  0.00000000000E+00  0.45593999997E+02  0.45594000000E+02  0.51100000000E-03 0.  1.
         11   -1    0    0    0    0 -0.00000000000E+00 -0.00000000000E+00 -0.45593999997E+02  0.45594000000E+02  0.51100000000E-03 0. -1.
    9900012    2    1    2    0    0  0.40071899507E+02  0.16381597748E+02  0.30838074196E+01  0.47787265639E+02  0.19999975356E+02 0.  0.
         12    1    1    2    0    0 -0.40071899507E+02 -0.16381597748E+02 -0.30838074196E+01  0.43400734361E+02  0.00000000000E+00 0. -1.
         11    1    3    3    0    0  0.17744651352E+02  0.65902689310E+01 -0.33004519922E+01  0.19214507014E+02  0.51100000000E-03 0. -1.
        -11    1    3    3    0    0  0.96809472059E+01  0.55577499214E+01  0.97468357177E+01  0.14819248623E+02  0.51100000000E-03 0.  1.
        -12    1    3    3    0    0  0.12646300949E+02  0.42335788957E+01 -0.33625763059E+01  0.13753510001E+02  0.00000000000E+00 0.  1.
</event>
<event>
 7    1  0.2706925E-010  0.4778727E+02  0.7816164E-02  0.1312668E+00
        -11   -1    0    0    0    0  0.00000000000E+00  0.00000000000E+00  0.45593999997E+02  0.45594000000E+02  0.51100000000E-03 0.  1.
         11   -1    0    0    0    0 -0.00000000000E+00 -0.00000000000E+00 -0.45593999997E+02  0.45594000000E+02  0.51100000000E-03 0. -1.
    9900012    2    1    2    0    0  0.14370289786E+02  0.40396900561E+02  0.67237169973E+01  0.47787272199E+02  0.20000005262E+02 0.  0.
         12    1    1    2    0    0 -0.14370289786E+02 -0.40396900561E+02 -0.67237169973E+01  0.43400727801E+02  0.00000000000E+00 0. -1.
         11    1    3    3    0    0  0.71023897917E+01  0.15335515810E+02 -0.35255610690E+01  0.17264170035E+02  0.51100000000E-03 0. -1.
        -11    1    3    3    0    0 -0.13885375672E+01  0.49609801184E+01  0.65408227770E+01  0.83259668010E+01  0.51100000000E-03 0.  1.
        -12    1    3    3    0    0  0.86564375615E+01  0.20100404633E+02  0.37084552893E+01  0.22197135362E+02  0.00000000000E+00 0.  1.
</event>
<event>
 7    1  0.2706925E-010  0.4778727E+02  0.7816164E-02  0.1312668E+00
        -11   -1    0    0    0    0  0.00000000000E+00  0.00000000000E+00  0.45593999997E+02  0.45594000000E+02  0.51100000000E-03 0.  1.
         11   -1    0    0    0    0 -0.00000000000E+00 -0.00000000000E+00 -0.45593999997E+02  0.45594000000E+02  0.51100000000E-03 0. -1.
    9900012    2    1    2    0    0 -0.23630607116E+02  0.25829253873E+02  0.25652819999E+02  0.47787272792E+02  0.20000007969E+02 0.  0.
         12    1    1    2    0    0  0.23630607116E+02 -0.25829253873E+02 -0.25652819999E+02  0.43400727208E+02  0.00000000000E+00 0. -1.
         11    1    3    3    0    0 -0.15826205088E+02  0.12931375794E+02  0.33326370595E+01  0.20707383162E+02  0.51100000000E-03 0. -1.
        -11    1    3    3    0    0 -0.66548796611E+01  0.90192137086E+01  0.17566743240E+02  0.20838044715E+02  0.51100000000E-03 0.  1.
         12    1    3    3    0    0 -0.11495223672E+01  0.38786643702E+01  0.47534396995E+01  0.62418449152E+01  0.00000000000E+00 0. -1.
</event>
<event>
 7    1  0.2706925E-010  0.4778727E+02  0.7816164E-02  0.1312668E+00
        -11   -1    0    0    0    0  0.00000000000E+00  0.00000000000E+00  0.45593999997E+02  0.45594000000E+02  0.51100000000E-03 0.  1.
         11   -1    0    0    0    0 -0.00000000000E+00 -0.00000000000E+00 -0.45593999997E+02  0.45594000000E+02  0.51100000000E-03 0. -1.
    9900012    2    1    2    0    0 -0.96126402260E+01  0.39853050772E+02  0.14246223983E+02  0.47787269526E+02  0.19999993076E+02 0.  0.
         12    1    1    2    0    0  0.96126402260E+01 -0.39853050772E+02 -0.14246223983E+02  0.43400730474E+02  0.00000000000E+00 0. -1.
         11    1    3    3    0    0 -0.16616894726E+01  0.38641567524E+00  0.32552179411E+01  0.36751834080E+01  0.51100000000E-03 0. -1.
        -11    1    3    3    0    0 -0.57696595962E+01  0.30789661760E+02  0.14478191331E+02  0.34509567769E+02  0.51100000000E-03 0.  1.
        -12    1    3    3    0    0 -0.21812911572E+01  0.86769733367E+01 -0.34871852889E+01  0.96025183487E+01  0.00000000000E+00 0.  1.
</event>
<event>
 7    1  0.2706925E-010  0.4778727E+02  0.7816164E-02  0.1312668E+00
        -11   -1    0    0    0    0  0.00000000000E+00  0.00000000000E+00  0.45593999997E+02  0.45594000000E+02  0.51100000000E-03 0.  1.
         11   -1    0    0    0    0 -0.00000000000E+00 -0.00000000000E+00 -0.45593999997E+02  0.45594000000E+02  0.51100000000E-03 0. -1.
    9900012    2    1    2    0    0  0.38539640206E+02  0.92414167123E+01  0.17689419704E+02  0.47787271671E+02  0.20000002855E+02 0.  0.
         12    1    1    2    0    0 -0.38539640206E+02 -0.92414167123E+01 -0.17689419704E+02  0.43400728329E+02  0.00000000000E+00 0. -1.
         11    1    3    3    0    0 -0.55675112616E+00  0.10686466146E+01 -0.22819209058E+01  0.25805310858E+01  0.51100000000E-03 0. -1.
        -11    1    3    3    0    0  0.17031563241E+02  0.71311122882E+01  0.88450081067E+01  0.20473423690E+02  0.51100000000E-03 0.  1.
         12    1    3    3    0    0  0.22064828091E+02  0.10416578094E+01  0.11126332503E+02  0.24733316895E+02  0.00000000000E+00 0. -1.
</event>
<event>
 7    1  0.2706925E-010  0.4778727E+02  0.7816164E-02  0.1312668E+00
        -11   -1    0    0    0    0  0.00000000000E+00  0.00000000000E+00  0.45593999997E+02  0.45594000000E+02  0.51100000000E-03 0.  1.
         11   -1    0    0    0    0 -0.00000000000E+00 -0.00000000000E+00 -0.45593999997E+02  0.45594000000E+02  0.51100000000E-03 0. -1.
    9900012    2    1    2    0    0  0.14153857536E+02 -0.41023408239E+02  0.60960578642E+00  0.47787270445E+02  0.19999997266E+02 0.  0.
         12    1    1    2    0    0 -0.14153857536E+02  0.41023408239E+02 -0.60960578642E+00  0.43400729555E+02  0.00000000000E+00 0. -1.
         11    1    3    3    0    0  0.69802139676E+01 -0.14314876772E+02  0.89538073898E+01  0.18270461161E+02  0.51100000000E-03 0. -1.
        -11    1    3    3    0    0  0.12243024090E+00 -0.11358550988E+01  0.86904142145E+00  0.14354055951E+01  0.51100000000E-03 0.  1.
         12    1    3    3    0    0  0.70512133279E+01 -0.25572676369E+02 -0.92132430248E+01  0.28081403688E+02  0.00000000000E+00 0. -1.
</event>
<event>
 7    1  0.2706925E-010  0.4778727E+02  0.7816164E-02  0.1312668E+00
        -11   -1    0    0    0    0  0.00000000000E+00  0.00000000000E+00  0.45593999997E+02  0.45594000000E+02  0.51100000000E-03 0. -1.
         11   -1    0    0    0    0 -0.00000000000E+00 -0.00000000000E+00 -0.45593999997E+02  0.45594000000E+02  0.51100000000E-03 0.  1.
    9900012    2    1    2    0    0 -0.22663118793E+02 -0.27601022634E+02 -0.24661503495E+02  0.47787272374E+02  0.20000006060E+02 0.  0.
         12    1    1    2    0    0  0.22663118793E+02  0.27601022634E+02  0.24661503495E+02  0.43400727626E+02  0.00000000000E+00 0. -1.
         11    1    3    3    0    0 -0.70475585904E+01 -0.21629916823E+01 -0.93110534170E+01  0.11876124414E+02  0.51100000000E-03 0. -1.
        -11    1    3    3    0    0 -0.17179387322E+02 -0.20552730556E+02 -0.10260652082E+02  0.28684962323E+02  0.51100000000E-03 0.  1.
        -12    1    3    3    0    0  0.15638271193E+01 -0.48853003961E+01 -0.50897979958E+01  0.72261856368E+01  0.00000000000E+00 0.  1.
</event>
<event>
 7    1  0.2706925E-010  0.4778727E+02  0.7816164E-02  0.1312668E+00
        -11   -1    0    0    0    0  0.00000000000E+00  0.00000000000E+00  0.45593999997E+02  0.45594000000E+02  0.51100000000E-03 0. -1.
         11   -1    0    0    0    0 -0.00000000000E+00 -0.00000000000E+00 -0.45593999997E+02  0.45594000000E+02  0.51100000000E-03 0.  1.
    9900012    2    1    2    0    0  0.33483172723E+02 -0.27477498857E+02  0.27364145766E+01  0.47787265400E+02  0.19999974265E+02 0.  0.
         12    1    1    2    0    0 -0.33483172723E+02  0.27477498857E+02 -0.27364145766E+01  0.43400734600E+02  0.00000000000E+00 0. -1.
         11    1    3    3    0    0  0.76140524592E+01 -0.16202798363E+02 -0.92126637701E+00  0.17926327054E+02  0.51100000000E-03 0.  1.
        -11    1    3    3    0    0  0.14528794159E+02 -0.10804953514E+02  0.64401093216E+00  0.18117605540E+02  0.51100000000E-03 0. -1.
         12    1    3    3    0    0  0.11340326105E+02 -0.46974698016E+00  0.30136700214E+01  0.11743332806E+02  0.00000000000E+00 0. -1.
</event>
<event>
 7    1  0.2706925E-010  0.4778726E+02  0.7816164E-02  0.1312668E+00
        -11   -1    0    0    0    0  0.00000000000E+00  0.00000000000E+00  0.45593999997E+02  0.45594000000E+02  0.51100000000E-03 0.  1.
         11   -1    0    0    0    0 -0.00000000000E+00 -0.00000000000E+00 -0.45593999997E+02  0.45594000000E+02  0.51100000000E-03 0. -1.
    9900012    2    1    2    0    0 -0.16295223921E+02 -0.13261121133E+02  0.37976733557E+02  0.47787263278E+02  0.19999964590E+02 0.  0.
         12    1    1    2    0    0  0.16295223921E+02  0.13261121133E+02 -0.37976733557E+02  0.43400736722E+02  0.00000000000E+00 0. -1.
         11    1    3    3    0    0 -0.91999630140E+01 -0.30716090373E+01  0.27930623253E+02  0.29566768797E+02  0.51100000000E-03 0. -1.
        -11    1    3    3    0    0 -0.47762194190E+01 -0.24727456043E+01  0.84342468657E+01  0.10003162661E+02  0.51100000000E-03 0.  1.
         12    1    3    3    0    0 -0.23190414884E+01 -0.77167664912E+01  0.16118634382E+01  0.82173318205E+01  0.00000000000E+00 0. -1.
</event>
<event>
 7    1  0.2706925E-010  0.4778727E+02  0.7816164E-02  0.1312668E+00
        -11   -1    0    0    0    0  0.00000000000E+00  0.00000000000E+00  0.45593999997E+02  0.45594000000E+02  0.51100000000E-03 0. -1.
         11   -1    0    0    0    0 -0.00000000000E+00 -0.00000000000E+00 -0.45593999997E+02  0.45594000000E+02  0.51100000000E-03 0.  1.
    9900012    2    1    2    0    0 -0.29562783870E+02  0.40737551315E+01 -0.31513005892E+02  0.47787271765E+02  0.20000003283E+02 0.  0.
         12    1    1    2    0    0  0.29562783870E+02 -0.40737551315E+01  0.31513005892E+02  0.43400728235E+02  0.00000000000E+00 0. -1.
         11    1    3    3    0    0  0.60819146779E-02  0.27417579752E+01 -0.37036877279E+01  0.46080990475E+01  0.51100000000E-03 0. -1.
        -11    1    3    3    0    0 -0.25101726285E+02 -0.46066633731E+01 -0.20249568419E+02  0.32578567055E+02  0.51100000000E-03 0.  1.
        -12    1    3    3    0    0 -0.44671394988E+01  0.59386605294E+01 -0.75597497456E+01  0.10600605662E+02  0.00000000000E+00 0.  1.
</event>
<event>
 7    1  0.2706925E-010  0.4778725E+02  0.7816164E-02  0.1312668E+00
        -11   -1    0    0    0    0  0.00000000000E+00  0.00000000000E+00  0.45593999997E+02  0.45594000000E+02  0.51100000000E-03 0.  1.
         11   -1    0    0    0    0 -0.00000000000E+00 -0.00000000000E+00 -0.45593999997E+02  0.45594000000E+02  0.51100000000E-03 0. -1.
    9900012    2    1    2    0    0  0.17313262528E+02 -0.55497317184E+01  0.39409095517E+02  0.47787246654E+02  0.19999888795E+02 0.  0.
         12    1    1    2    0    0 -0.17313262528E+02  0.55497317184E+01 -0.39409095517E+02  0.43400753346E+02  0.00000000000E+00 0. -1.
         11    1    3    3    0    0  0.95428839531E+01 -0.79732134249E+01  0.11253811519E+02  0.16771614127E+02  0.51100000000E-03 0. -1.
        -11    1    3    3    0    0  0.46862174351E+01 -0.28738585506E+01  0.20414759161E+02  0.21141950920E+02  0.51100000000E-03 0.  1.
         12    1    3    3    0    0  0.30841611398E+01  0.52973402571E+01  0.77405248371E+01  0.98736816077E+01  0.00000000000E+00 0. -1.
</event>
<event>
 7    1  0.2706925E-010  0.4778727E+02  0.7816164E-02  0.1312668E+00
        -11   -1    0    0    0    0  0.00000000000E+00  0.00000000000E+00  0.45593999997E+02  0.45594000000E+02  0.51100000000E-03 0.  1.
         11   -1    0    0    0    0 -0.00000000000E+00 -0.00000000000E+00 -0.45593999997E+02  0.45594000000E+02  0.51100000000E-03 0. -1.
    9900012    2    1    2    0    0  0.12165115313E+02  0.39863924335E+02  0.12103742573E+02  0.47787273298E+02  0.20000010275E+02 0.  0.
         12    1    1    2    0    0 -0.12165115313E+02 -0.39863924335E+02 -0.12103742573E+02  0.43400726702E+02  0.00000000000E+00 0. -1.
         11    1    3    3    0    0 -0.61296154094E+00  0.24522114342E+02  0.22403110649E+01  0.24631865694E+02  0.51100000000E-03 0. -1.
        -11    1    3    3    0    0  0.81892550046E+01  0.99232630860E+01  0.28557597472E+01  0.13179165823E+02  0.51100000000E-03 0.  1.
         12    1    3    3    0    0  0.45888218495E+01  0.54185469073E+01  0.70076717614E+01  0.99762417807E+01  0.00000000000E+00 0. -1.
</event>
<event>
 7    1  0.2706925E-010  0.4778728E+02  0.7816164E-02  0.1312668E+00
        -11   -1    0    0    0    0  0.00000000000E+00  0.00000000000E+00  0.45593999997E+02  0.45594000000E+02  0.51100000000E-03 0.  1.
         11   -1    0    0    0    0 -0.00000000000E+00 -0.00000000000E+00 -0.45593999997E+02  0.45594000000E+02  0.51100000000E-03 0. -1.
    9900012    2    1    2    0    0 -0.89211740936E+01  0.41860150110E+02 -0.71946747227E+01  0.47787275827E+02  0.20000021804E+02 0.  0.
         12    1    1    2    0    0  0.89211740936E+01 -0.41860150110E+02  0.71946747227E+01  0.43400724173E+02  0.00000000000E+00 0. -1.
         11    1    3    3    0    0  0.36940317020E+01  0.10779344942E+02 -0.75169500951E+01  0.13650812671E+02  0.51100000000E-03 0. -1.
        -11    1    3    3    0    0 -0.10041453357E+02  0.16545220275E+02  0.75163177861E+00  0.19368532470E+02  0.51100000000E-03 0.  1.
         12    1    3    3    0    0 -0.25737524380E+01  0.14535584893E+02 -0.42935640617E+00  0.14767930685E+02  0.00000000000E+00 0. -1.
</event>
<event>
 7    1  0.2706925E-010  0.4778728E+02  0.7816164E-02  0.1312668E+00
        -11   -1    0    0    0    0  0.00000000000E+00  0.00000000000E+00  0.45593999997E+02  0.45594000000E+02  0.51100000000E-03 0. -1.
         11   -1    0    0    0    0 -0.00000000000E+00 -0.00000000000E+00 -0.45593999997E+02  0.45594000000E+02  0.51100000000E-03 0.  1.
    9900012    2    1    2    0    0  0.12129961411E+02 -0.39472548511E+02 -0.13356817482E+02  0.47787278543E+02  0.20000034187E+02 0.  0.
         12    1    1    2    0    0 -0.12129961411E+02  0.39472548511E+02  0.13356817482E+02  0.43400721457E+02  0.00000000000E+00 0. -1.
         11    1    3    3    0    0  0.33180347638E+01 -0.31976011048E+02 -0.70004814279E+01  0.32901084750E+02  0.51100000000E-03 0. -1.
        -11    1    3    3    0    0  0.90472093127E+01 -0.74902068425E+01 -0.38375799637E+01  0.12356464508E+02  0.51100000000E-03 0.  1.
        -12    1    3    3    0    0 -0.23528266523E+00 -0.63306199084E-02 -0.25187560908E+01  0.25297292848E+01  0.00000000000E+00 0.  1.
</event>
<event>
 7    1  0.2706925E-010  0.4778727E+02  0.7816164E-02  0.1312668E+00
        -11   -1    0    0    0    0  0.00000000000E+00  0.00000000000E+00  0.45593999997E+02  0.45594000000E+02  0.51100000000E-03 0. -1.
         11   -1    0    0    0    0 -0.00000000000E+00 -0.00000000000E+00 -0.45593999997E+02  0.45594000000E+02  0.51100000000E-03 0.  1.
    9900012    2    1    2    0    0  0.27921979539E+02 -0.23285979116E+02 -0.23701255477E+02  0.47787271020E+02  0.19999999889E+02 0.  0.
         12    1    1    2    0    0 -0.27921979539E+02  0.23285979116E+02  0.23701255477E+02  0.43400728980E+02  0.00000000000E+00 0. -1.
         11    1    3    3    0    0  0.13296499538E+02 -0.95880303506E+01 -0.55898405698E+01  0.17319744335E+02  0.51100000000E-03 0. -1.
        -11    1    3    3    0    0  0.37184281080E+01 -0.22492663815E+01 -0.13219625066E+02  0.13915616911E+02  0.51100000000E-03 0.  1.
        -12    1    3    3    0    0  0.10907051893E+02 -0.11448682384E+02 -0.48917898409E+01  0.16551909774E+02  0.00000000000E+00 0.  1.
</event>
<event>
 7    1  0.2706925E-010  0.4778727E+02  0.7816164E-02  0.1312668E+00
        -11   -1    0    0    0    0  0.00000000000E+00  0.00000000000E+00  0.45593999997E+02  0.45594000000E+02  0.51100000000E-03 0.  1.
         11   -1    0    0    0    0 -0.00000000000E+00 -0.00000000000E+00 -0.45593999997E+02  0.45594000000E+02  0.51100000000E-03 0. -1.
    9900012    2    1    2    0    0  0.25604206010E+02 -0.26116100086E+02  0.23366585232E+02  0.47787270115E+02  0.19999995763E+02 0.  0.
         12    1    1    2    0    0 -0.25604206010E+02  0.26116100086E+02 -0.23366585232E+02  0.43400729885E+02  0.00000000000E+00 0. -1.
         11    1    3    3    0    0 -0.15854000110E+01 -0.96697693037E+01  0.60970741282E+01  0.11540894453E+02  0.51100000000E-03 0. -1.
        -11    1    3    3    0    0  0.14808770177E+02 -0.88411515931E+01  0.10729640806E+02  0.20312331913E+02  0.51100000000E-03 0.  1.
         12    1    3    3    0    0  0.12380835844E+02 -0.76051791896E+01  0.65398702972E+01  0.15934043750E+02  0.00000000000E+00 0. -1.
</event>
<event>
 7    1  0.2706925E-010  0.4778727E+02  0.7816164E-02  0.1312668E+00
        -11   -1    0    0    0    0  0.00000000000E+00  0.00000000000E+00  0.45593999997E+02  0.45594000000E+02  0.51100000000E-03 0.  1.
         11   -1    0    0    0    0 -0.00000000000E+00 -0.00000000000E+00 -0.45593999997E+02  0.45594000000E+02  0.51100000000E-03 0. -1.
    9900012    2    1    2    0    0  0.23769392363E+02 -0.15223026705E+02  0.32968146056E+02  0.47787271783E+02  0.20000003369E+02 0.  0.
         12    1    1    2    0    0 -0.23769392363E+02  0.15223026705E+02 -0.32968146056E+02  0.43400728217E+02  0.00000000000E+00 0. -1.
         11    1    3    3    0    0  0.18660836365E+02 -0.85633939897E+01  0.12642738933E+02  0.24112183195E+02  0.51100000000E-03 0. -1.
        -11    1    3    3    0    0  0.71315783032E+01 -0.58686013653E+01  0.19012265523E+02  0.21136842992E+02  0.51100000000E-03 0.  1.
         12    1    3    3    0    0 -0.20230223050E+01 -0.79103135022E+00  0.13131415995E+01  0.25382455957E+01  0.00000000000E+00 0. -1.
</event>
<event>
 7    1  0.2706925E-010  0.4778727E+02  0.7816164E-02  0.1312668E+00
        -11   -1    0    0    0    0  0.00000000000E+00  0.00000000000E+00  0.45593999997E+02  0.45594000000E+02  0.51100000000E-03 0. -1.
         11   -1    0    0    0    0 -0.00000000000E+00 -0.00000000000E+00 -0.45593999997E+02  0.45594000000E+02  0.51100000000E-03 0.  1.
    9900012    2    1    2    0    0  0.30570616448E+02 -0.12689465033E+02 -0.28072021062E+02  0.47787268677E+02  0.19999989207E+02 0.  0.
         12    1    1    2    0    0 -0.30570616448E+02  0.12689465033E+02  0.28072021062E+02  0.43400731323E+02  0.00000000000E+00 0. -1.
         11    1    3    3    0    0  0.22806017600E+02 -0.77401225789E+01 -0.10401001626E+02  0.26233657225E+02  0.51100000000E-03 0. -1.
        -11    1    3    3    0    0  0.76133340977E+01 -0.69512170559E+01 -0.15262820790E+02  0.18418359682E+02  0.51100000000E-03 0.  1.
         12    1    3    3    0    0  0.15126475010E+00  0.20018746017E+01 -0.24081986460E+01  0.31352517705E+01  0.00000000000E+00 0. -1.
</event>
<event>
 7    1  0.2706925E-010  0.4778728E+02  0.7816164E-02  0.1312668E+00
        -11   -1    0    0    0    0  0.00000000000E+00  0.00000000000E+00  0.45593999997E+02  0.45594000000E+02  0.51100000000E-03 0. -1.
         11   -1    0    0    0    0 -0.00000000000E+00 -0.00000000000E+00 -0.45593999997E+02  0.45594000000E+02  0.51100000000E-03 0.  1.
    9900012    2    1    2    0    0  0.34542749431E+02  0.25567582031E+02  0.60597043489E+01  0.47787276435E+02  0.20000024578E+02 0.  0.
         12    1    1    2    0    0 -0.34542749431E+02 -0.25567582031E+02 -0.60597043489E+01  0.43400723565E+02  0.00000000000E+00 0. -1.
         11    1    3    3    0    0  0.17940412349E+02  0.20918284345E+02  0.40017347465E+01  0.27846847155E+02  0.51100000000E-03 0. -1.
        -11    1    3    3    0    0  0.10444872842E+02  0.19770007386E+01 -0.35356795272E+01  0.11202898312E+02  0.51100000000E-03 0.  1.
        -12    1    3    3    0    0  0.61574642393E+01  0.26722969472E+01  0.55936491297E+01  0.87375309681E+01  0.00000000000E+00 0.  1.
</event>
<event>
 7    1  0.2706925E-010  0.4778728E+02  0.7816164E-02  0.1312668E+00
        -11   -1    0    0    0    0  0.00000000000E+00  0.00000000000E+00  0.45593999997E+02  0.45594000000E+02  0.51100000000E-03 0.  1.
         11   -1    0    0    0    0 -0.00000000000E+00 -0.00000000000E+00 -0.45593999997E+02  0.45594000000E+02  0.51100000000E-03 0. -1.
    9900012    2    1    2    0    0 -0.26412749095E+02  0.13823061481E+02  0.31542231480E+02  0.47787277538E+02  0.20000029608E+02 0.  0.
         12    1    1    2    0    0  0.26412749095E+02 -0.13823061481E+02 -0.31542231480E+02  0.43400722462E+02  0.00000000000E+00 0. -1.
         11    1    3    3    0    0 -0.97198596359E+01 -0.29435304960E+01  0.33043681547E+01  0.10679835780E+02  0.51100000000E-03 0. -1.
        -11    1    3    3    0    0 -0.53052390989E+01  0.51917939634E+01  0.12227289450E+02  0.14304086619E+02  0.51100000000E-03 0.  1.
         12    1    3    3    0    0 -0.11387650360E+02  0.11574798014E+02  0.16010573875E+02  0.22803355139E+02  0.00000000000E+00 0. -1.
</event>
<event>
 7    1  0.3352167E-010  0.4778727E+02  0.7816164E-02  0.1312668E+00
        -11   -1    0    0    0    0  0.00000000000E+00  0.00000000000E+00  0.45593999997E+02  0.45594000000E+02  0.51100000000E-03 0.  1.
         11   -1    0    0    0    0 -0.00000000000E+00 -0.00000000000E+00 -0.45593999997E+02  0.45594000000E+02  0.51100000000E-03 0. -1.
    9900012    2    1    2    0    0 -0.93228772838E+01 -0.40763424810E+02  0.11621120798E+02  0.47787270839E+02  0.19999999062E+02 0.  0.
         12    1    1    2    0    0  0.93228772838E+01  0.40763424810E+02 -0.11621120798E+02  0.43400729161E+02  0.00000000000E+00 0. -1.
         11    1    3    3    0    0 -0.48100346440E+01 -0.36867353499E+01 -0.31777096805E+01  0.68429737608E+01  0.51100000000E-03 0. -1.
        -11    1    3    3    0    0 -0.23030030134E+00 -0.19561333160E+02  0.11250859473E+02  0.22567246894E+02  0.51100000000E-03 0.  1.
        -12    1    3    3    0    0 -0.42825423384E+01 -0.17515356300E+02  0.35479710059E+01  0.18377050184E+02  0.00000000000E+00 0.  1.
</event>
<event>
 7    1  0.2706925E-010  0.4778726E+02  0.7816164E-02  0.1312668E+00
        -11   -1    0    0    0    0  0.00000000000E+00  0.00000000000E+00  0.45593999997E+02  0.45594000000E+02  0.51100000000E-03 0.  1.
         11   -1    0    0    0    0 -0.00000000000E+00 -0.00000000000E+00 -0.45593999997E+02  0.45594000000E+02  0.51100000000E-03 0. -1.
    9900012    2    1    2    0    0  0.85278721933E+01  0.42537982841E+02  0.11915000138E+01  0.47787259676E+02  0.19999948169E+02 0.  0.
         12    1    1    2    0    0 -0.85278721933E+01 -0.42537982841E+02 -0.11915000138E+01  0.43400740324E+02  0.00000000000E+00 0. -1.
         11    1    3    3    0    0 -0.42160032407E+01  0.60136841330E+01  0.28759985993E+01  0.78873600388E+01  0.51100000000E-03 0. -1.
        -11    1    3    3    0    0  0.89052250312E+01  0.11502597113E+02 -0.84927893695E+00  0.14571686525E+02  0.51100000000E-03 0.  1.
         12    1    3    3    0    0  0.38386504028E+01  0.25021701595E+02 -0.83521964855E+00  0.25328213113E+02  0.00000000000E+00 0. -1.
</event>
<event>
 7    1  0.2706925E-010  0.4778727E+02  0.7816164E-02  0.1312668E+00
        -11   -1    0    0    0    0  0.00000000000E+00  0.00000000000E+00  0.45593999997E+02  0.45594000000E+02  0.51100000000E-03 0.  1.
         11   -1    0    0    0    0 -0.00000000000E+00 -0.00000000000E+00 -0.45593999997E+02  0.45594000000E+02  0.51100000000E-03 0. -1.
    9900012    2    1    2    0    0  0.23543001543E+02  0.36264227679E+02 -0.37757654607E+01  0.47787268029E+02  0.19999986253E+02 0.  0.
         12    1    1    2    0    0 -0.23543001543E+02 -0.36264227679E+02  0.37757654607E+01  0.43400731971E+02  0.00000000000E+00 0. -1.
         11    1    3    3    0    0  0.21218547382E+02  0.33932622287E+02 -0.20512441667E+01  0.40073148256E+02  0.51100000000E-03 0.  1.
        -11    1    3    3    0    0  0.77592855762E-01 -0.10088940215E+01 -0.32538797644E+01  0.34075829528E+01  0.51100000000E-03 0. -1.
        -12    1    3    3    0    0  0.22468613052E+01  0.33404994132E+01  0.15293584704E+01  0.43065368204E+01  0.00000000000E+00 0.  1.
</event>
<event>
 7    1  0.2706925E-010  0.4778729E+02  0.7816164E-02  0.1312668E+00
        -11   -1    0    0    0    0  0.00000000000E+00  0.00000000000E+00  0.45593999997E+02  0.45594000000E+02  0.51100000000E-03 0.  1.
         11   -1    0    0    0    0 -0.00000000000E+00 -0.00000000000E+00 -0.45593999997E+02  0.45594000000E+02  0.51100000000E-03 0. -1.
    9900012    2    1    2    0    0 -0.22469866372E+02 -0.16596231436E+02  0.33215842733E+02  0.47787285708E+02  0.20000066856E+02 0.  0.
         12    1    1    2    0    0  0.22469866372E+02  0.16596231436E+02 -0.33215842733E+02  0.43400714292E+02  0.00000000000E+00 0. -1.
         11    1    3    3    0    0 -0.40771381028E+01 -0.12991157746E+02  0.12383293883E+02  0.18404868985E+02  0.51100000000E-03 0. -1.
        -11    1    3    3    0    0 -0.16417448022E+02 -0.80622153895E+00  0.19941554766E+02  0.25842759131E+02  0.51100000000E-03 0.  1.
        -12    1    3    3    0    0 -0.19752802470E+01 -0.27988521510E+01  0.89099408340E+00  0.35396575927E+01  0.00000000000E+00 0.  1.
</event>
<event>
 7    1  0.2706925E-010  0.4778727E+02  0.7816164E-02  0.1312668E+00
        -11   -1    0    0    0    0  0.00000000000E+00  0.00000000000E+00  0.45593999997E+02  0.45594000000E+02  0.51100000000E-03 0.  1.
         11   -1    0    0    0    0 -0.00000000000E+00 -0.00000000000E+00 -0.45593999997E+02  0.45594000000E+02  0.51100000000E-03 0. -1.
    9900012    2    1    2    0    0 -0.16575054288E+02 -0.82656935715E+01  0.39250081547E+02  0.47787274012E+02  0.20000013528E+02 0.  0.
         12    1    1    2    0    0  0.16575054288E+02  0.82656935715E+01 -0.39250081547E+02  0.43400725988E+02  0.00000000000E+00 0. -1.
         11    1    3    3    0    0 -0.64244058925E+01 -0.44654160939E+00  0.23285295949E+02  0.24159416346E+02  0.51100000000E-03 0. -1.
        -11    1    3    3    0    0 -0.70519482640E+01 -0.10838615846E+02  0.10495382953E+02  0.16654087527E+02  0.51100000000E-03 0.  1.
        -12    1    3    3    0    0 -0.30987001319E+01  0.30194638836E+01  0.54694026447E+01  0.69737701382E+01  0.00000000000E+00 0.  1.
</event>
<event>
 7    1  0.2706925E-010  0.4778727E+02  0.7816164E-02  0.1312668E+00
        -11   -1    0    0    0    0  0.00000000000E+00  0.00000000000E+00  0.45593999997E+02  0.45594000000E+02  0.51100000000E-03 0. -1.
         11   -1    0    0    0    0 -0.00000000000E+00 -0.00000000000E+00 -0.45593999997E+02  0.45594000000E+02  0.51100000000E-03 0.  1.
    9900012    2    1    2    0    0 -0.26250825379E+02  0.29019575356E+02 -0.18771829625E+02  0.47787272190E+02  0.20000005223E+02 0.  0.
         12    1    1    2    0    0  0.26250825379E+02 -0.29019575356E+02  0.18771829625E+02  0.43400727810E+02  0.00000000000E+00 0. -1.
         11    1    3    3    0    0 -0.17429514640E+02  0.86941112956E+01 -0.50299152563E+01  0.20116550389E+02  0.51100000000E-03 0. -1.
        -11    1    3    3    0    0  0.87206501374E+00  0.72288179088E+01 -0.67901270536E+01  0.99560098138E+01  0.51100000000E-03 0.  1.
        -12    1    3    3    0    0 -0.96933757533E+01  0.13096646152E+02 -0.69517873153E+01  0.17714711987E+02  0.00000000000E+00 0.  1.
</event>
<event>
 7    1  0.2706925E-010  0.4778728E+02  0.7816164E-02  0.1312668E+00
        -11   -1    0    0    0    0  0.00000000000E+00  0.00000000000E+00  0.45593999997E+02  0.45594000000E+02  0.51100000000E-03 0. -1.
         11   -1    0    0    0    0 -0.00000000000E+00 -0.00000000000E+00 -0.45593999997E+02  0.45594000000E+02  0.51100000000E-03 0.  1.
    9900012    2    1    2    0    0 -0.23462401642E+01 -0.72126135604E+01 -0.42732844225E+02  0.47787278660E+02  0.20000034724E+02 0.  0.
         12    1    1    2    0    0  0.23462401642E+01  0.72126135604E+01  0.42732844225E+02  0.43400721340E+02  0.00000000000E+00 0. -1.
         11    1    3    3    0    0  0.46486594901E+01  0.34893010714E+00 -0.40088637792E+01  0.61483962410E+01  0.51100000000E-03 0. -1.
        -11    1    3    3    0    0 -0.15324717812E+01 -0.89687333001E+01 -0.29037939694E+02  0.30430060609E+02  0.51100000000E-03 0.  1.
         12    1    3    3    0    0 -0.54624278731E+01  0.14071896325E+01 -0.96860407516E+01  0.11208821810E+02  0.00000000000E+00 0. -1.
</event>
<event>
 7    1  0.2706925E-010  0.4778727E+02  0.7816164E-02  0.1312668E+00
        -11   -1    0    0    0    0  0.00000000000E+00  0.00000000000E+00  0.45593999997E+02  0.45594000000E+02  0.51100000000E-03 0. -1.
         11   -1    0    0    0    0 -0.00000000000E+00 -0.00000000000E+00 -0.45593999997E+02  0.45594000000E+02  0.51100000000E-03 0.  1.
    9900012    2    1    2    0    0 -0.43393576751E+02  0.79402961812E-01 -0.78381346774E+00  0.47787272222E+02  0.20000005371E+02 0.  0.
         12    1    1    2    0    0  0.43393576751E+02 -0.79402961812E-01  0.78381346774E+00  0.43400727778E+02  0.00000000000E+00 0. -1.
         11    1    3    3    0    0 -0.70296100171E+01  0.28940630463E+01  0.56400548068E+01  0.94657929617E+01  0.51100000000E-03 0. -1.
        -11    1    3    3    0    0 -0.12001358477E+02 -0.52820118274E+01 -0.40294495839E+01  0.13717460350E+02  0.51100000000E-03 0.  1.
         12    1    3    3    0    0 -0.24362608257E+02  0.24673517429E+01 -0.23944186907E+01  0.24604018911E+02  0.00000000000E+00 0. -1.
</event>
<event>
 7    1  0.2706925E-010  0.4778727E+02  0.7816164E-02  0.1312668E+00
        -11   -1    0    0    0    0  0.00000000000E+00  0.00000000000E+00  0.45593999997E+02  0.45594000000E+02  0.51100000000E-03 0. -1.
         11   -1    0    0    0    0 -0.00000000000E+00 -0.00000000000E+00 -0.45593999997E+02  0.45594000000E+02  0.51100000000E-03 0.  1.
    9900012    2    1    2    0    0  0.65594253685E+01  0.42580331655E+02 -0.52452335581E+01  0.47787272125E+02  0.20000004926E+02 0.  0.
         12    1    1    2    0    0 -0.65594253685E+01 -0.42580331655E+02  0.52452335581E+01  0.43400727875E+02  0.00000000000E+00 0. -1.
         11    1    3    3    0    0 -0.30883033519E+01  0.17919018204E+02 -0.95165600973E+01  0.20523005319E+02  0.51100000000E-03 0. -1.
        -11    1    3    3    0    0  0.12996634249E+01  0.11489996717E+01 -0.61392013050E+00  0.18401694083E+01  0.51100000000E-03 0.  1.
         12    1    3    3    0    0  0.83480652956E+01  0.23512313779E+02  0.48852466697E+01  0.25424097397E+02  0.00000000000E+00 0. -1.
</event>
<event>
 7    1  0.2706925E-010  0.4778726E+02  0.7816164E-02  0.1312668E+00
        -11   -1    0    0    0    0  0.00000000000E+00  0.00000000000E+00  0.45593999997E+02  0.45594000000E+02  0.51100000000E-03 0.  1.
         11   -1    0    0    0    0 -0.00000000000E+00 -0.00000000000E+00 -0.45593999997E+02  0.45594000000E+02  0.51100000000E-03 0. -1.
    9900012    2    1    2    0    0  0.13892513568E+02  0.37794150152E+02  0.16193347306E+02  0.47787260191E+02  0.19999950515E+02 0.  0.
         12    1    1    2    0    0 -0.13892513568E+02 -0.37794150152E+02 -0.16193347306E+02  0.43400739809E+02  0.00000000000E+00 0. -1.
         11    1    3    3    0    0 -0.55382092155E+00  0.49280442682E+01  0.79589814717E+01  0.93775116236E+01  0.51100000000E-03 0. -1.
        -11    1    3    3    0    0 -0.11678566390E+01  0.46867478833E+01  0.32218091877E+01  0.58059925555E+01  0.51100000000E-03 0.  1.
         12    1    3    3    0    0  0.15614191129E+02  0.28179358001E+02  0.50125566469E+01  0.32603756012E+02  0.00000000000E+00 0. -1.
</event>
<event>
 7    1  0.2706925E-010  0.4778727E+02  0.7816164E-02  0.1312668E+00
        -11   -1    0    0    0    0  0.00000000000E+00  0.00000000000E+00  0.45593999997E+02  0.45594000000E+02  0.51100000000E-03 0. -1.
         11   -1    0    0    0    0 -0.00000000000E+00 -0.00000000000E+00 -0.45593999997E+02  0.45594000000E+02  0.51100000000E-03 0.  1.
    9900012    2    1    2    0    0 -0.37846899766E+02 -0.12212237490E+02  0.17380926450E+02  0.47787272234E+02  0.20000005422E+02 0.  0.
         12    1    1    2    0    0  0.37846899766E+02  0.12212237490E+02 -0.17380926450E+02  0.43400727766E+02  0.00000000000E+00 0. -1.
         11    1    3    3    0    0 -0.14324274641E+02 -0.31075134685E+01  0.16721682495E+02  0.22236369975E+02  0.51100000000E-03 0. -1.
        -11    1    3    3    0    0 -0.14496127194E+02 -0.55597599057E+01  0.23635867305E+01  0.15704622770E+02  0.51100000000E-03 0.  1.
         12    1    3    3    0    0 -0.90264979303E+01 -0.35449641159E+01 -0.17043427758E+01  0.98462794886E+01  0.00000000000E+00 0. -1.
</event>
<event>
 7    1  0.2706925E-010  0.4778727E+02  0.7816164E-02  0.1312668E+00
        -11   -1    0    0    0    0  0.00000000000E+00  0.00000000000E+00  0.45593999997E+02  0.45594000000E+02  0.51100000000E-03 0. -1.
         11   -1    0    0    0    0 -0.00000000000E+00 -0.00000000000E+00 -0.45593999997E+02  0.45594000000E+02  0.51100000000E-03 0.  1.
    9900012    2    1    2    0    0  0.41104839625E+02 -0.79067161343E+01  0.11467305646E+02  0.47787273054E+02  0.20000009163E+02 0.  0.
         12    1    1    2    0    0 -0.41104839625E+02  0.79067161343E+01 -0.11467305646E+02  0.43400726946E+02  0.00000000000E+00 0. -1.
         11    1    3    3    0    0  0.46375069645E+01  0.11122383975E+01  0.84434988376E+01  0.96972273347E+01  0.51100000000E-03 0. -1.
        -11    1    3    3    0    0  0.17495855296E+02 -0.52692704340E+01  0.40823842223E+01  0.18722607314E+02  0.51100000000E-03 0.  1.
         12    1    3    3    0    0  0.18971477365E+02 -0.37496840979E+01 -0.10585774141E+01  0.19367438405E+02  0.00000000000E+00 0. -1.
</event>
<event>
 7    1  0.2785347E-010  0.4778727E+02  0.7816164E-02  0.1312668E+00
        -11   -1    0    0    0    0  0.00000000000E+00  0.00000000000E+00  0.45593999997E+02  0.45594000000E+02  0.51100000000E-03 0.  1.
         11   -1    0    0    0    0 -0.00000000000E+00 -0.00000000000E+00 -0.45593999997E+02  0.45594000000E+02  0.51100000000E-03 0. -1.
    9900012    2    1    2    0    0 -0.21254016271E+01  0.17167235659E+02  0.39804426730E+02  0.47787266141E+02  0.19999977641E+02 0.  0.
         12    1    1    2    0    0  0.21254016271E+01 -0.17167235659E+02 -0.39804426730E+02  0.43400733859E+02  0.00000000000E+00 0. -1.
         11    1    3    3    0    0 -0.14286364778E+01  0.10550401840E+01  0.62650315467E-01  0.17770867449E+01  0.51100000000E-03 0. -1.
        -11    1    3    3    0    0  0.26014944637E+01  0.66111015516E+00 -0.54254586008E+00  0.27384660585E+01  0.51100000000E-03 0.  1.
        -12    1    3    3    0    0 -0.32982596130E+01  0.15451085319E+02  0.40284322275E+02  0.43271713337E+02  0.00000000000E+00 0.  1.
</event>
<event>
 7    1  0.2706925E-010  0.4778727E+02  0.7816164E-02  0.1312668E+00
        -11   -1    0    0    0    0  0.00000000000E+00  0.00000000000E+00  0.45593999997E+02  0.45594000000E+02  0.51100000000E-03 0.  1.
         11   -1    0    0    0    0 -0.00000000000E+00 -0.00000000000E+00 -0.45593999997E+02  0.45594000000E+02  0.51100000000E-03 0. -1.
    9900012    2    1    2    0    0 -0.20511723584E+02 -0.31741058308E+02  0.21340051616E+02  0.47787269708E+02  0.19999993907E+02 0.  0.
         12    1    1    2    0    0  0.20511723584E+02  0.31741058308E+02 -0.21340051616E+02  0.43400730292E+02  0.00000000000E+00 0. -1.
         11    1    3    3    0    0 -0.63503533890E+01 -0.73124758561E+00  0.80300013403E+01  0.10263655927E+02  0.51100000000E-03 0. -1.
        -11    1    3    3    0    0 -0.13530208761E+02 -0.25613757666E+02  0.13764735359E+02  0.32071779974E+02  0.51100000000E-03 0.  1.
         12    1    3    3    0    0 -0.63116143312E+00 -0.53960530563E+01 -0.45468508301E+00  0.54518338076E+01  0.00000000000E+00 0. -1.
</event>
<event>
 7    1  0.2706925E-010  0.4778726E+02  0.7816164E-02  0.1312668E+00
        -11   -1    0    0    0    0  0.00000000000E+00  0.00000000000E+00  0.45593999997E+02  0.45594000000E+02  0.51100000000E-03 0.  1.
         11   -1    0    0    0    0 -0.00000000000E+00 -0.00000000000E+00 -0.45593999997E+02  0.45594000000E+02  0.51100000000E-03 0. -1.
    9900012    2    1    2    0    0 -0.25407214112E+02 -0.32715995652E+02  0.12952284411E+02  0.47787256091E+02  0.19999931820E+02 0.  0.
         12    1    1    2    0    0  0.25407214112E+02  0.32715995652E+02 -0.12952284411E+02  0.43400743909E+02  0.00000000000E+00 0. -1.
         11    1    3    3    0    0 -0.14832112015E+02 -0.13792515307E+02  0.12889954083E+02  0.24007830844E+02  0.51100000000E-03 0. -1.
        -11    1    3    3    0    0 -0.80129321874E+01 -0.17930791743E+02  0.28729816983E+01  0.19848788347E+02  0.51100000000E-03 0.  1.
         12    1    3    3    0    0 -0.25621699095E+01 -0.99268860226E+00 -0.28106513708E+01  0.39306368993E+01  0.00000000000E+00 0. -1.
</event>
<event>
 7    1  0.2706925E-010  0.4778727E+02  0.7816164E-02  0.1312668E+00
        -11   -1    0    0    0    0  0.00000000000E+00  0.00000000000E+00  0.45593999997E+02  0.45594000000E+02  0.51100000000E-03 0.  1.
         11   -1    0    0    0    0 -0.00000000000E+00 -0.00000000000E+00 -0.45593999997E+02  0.45594000000E+02  0.51100000000E-03 0. -1.
    9900012    2    1    2    0    0 -0.32268163890E+02 -0.23988146058E+01  0.28924639338E+02  0.47787268748E+02  0.19999989532E+02 0.  0.
         12    1    1    2    0    0  0.32268163890E+02  0.23988146058E+01 -0.28924639338E+02  0.43400731252E+02  0.00000000000E+00 0. -1.
         11    1    3    3    0    0 -0.83892031342E+01  0.79768575723E+00  0.84309109394E+01  0.11920372952E+02  0.51100000000E-03 0. -1.
        -11    1    3    3    0    0 -0.11319006056E+02  0.67396531550E+01  0.11572753054E+02  0.17534863451E+02  0.51100000000E-03 0.  1.
        -12    1    3    3    0    0 -0.12559954700E+02 -0.99361535180E+01  0.89209753441E+01  0.18332032345E+02  0.00000000000E+00 0.  1.
</event>
<event>
 7    1  0.2706925E-010  0.4778727E+02  0.7816164E-02  0.1312668E+00
        -11   -1    0    0    0    0  0.00000000000E+00  0.00000000000E+00  0.45593999997E+02  0.45594000000E+02  0.51100000000E-03 0.  1.
         11   -1    0    0    0    0 -0.00000000000E+00 -0.00000000000E+00 -0.45593999997E+02  0.45594000000E+02  0.51100000000E-03 0. -1.
    9900012    2    1    2    0    0  0.41219809164E+02  0.12593973039E+02 -0.50933452709E+01  0.47787274310E+02  0.20000014887E+02 0.  0.
         12    1    1    2    0    0 -0.41219809164E+02 -0.12593973039E+02  0.50933452709E+01  0.43400725690E+02  0.00000000000E+00 0. -1.
         11    1    3    3    0    0  0.10541192847E+02 -0.30214896958E+01  0.30646467843E+01  0.11385877515E+02  0.51100000000E-03 0. -1.
        -11    1    3    3    0    0  0.15331271854E+02  0.12468711173E+02 -0.36153999621E+01  0.20089494074E+02  0.51100000000E-03 0.  1.
         12    1    3    3    0    0  0.15347344462E+02  0.31467515621E+01 -0.45425920931E+01  0.16311902720E+02  0.00000000000E+00 0. -1.
</event>
<event>
 7    1  0.2706925E-010  0.4778728E+02  0.7816164E-02  0.1312668E+00
        -11   -1    0    0    0    0  0.00000000000E+00  0.00000000000E+00  0.45593999997E+02  0.45594000000E+02  0.51100000000E-03 0.  1.
         11   -1    0    0    0    0 -0.00000000000E+00 -0.00000000000E+00 -0.45593999997E+02  0.45594000000E+02  0.51100000000E-03 0. -1.
    9900012    2    1    2    0    0 -0.26998458390E+02  0.28562474368E+02  0.18408990419E+02  0.47787278511E+02  0.20000034044E+02 0.  0.
         12    1    1    2    0    0  0.26998458390E+02 -0.28562474368E+02 -0.18408990419E+02  0.43400721489E+02  0.00000000000E+00 0. -1.
         11    1    3    3    0    0 -0.20270963960E+02  0.15878662528E+02  0.14892910580E+02  0.29746305474E+02  0.51100000000E-03 0. -1.
        -11    1    3    3    0    0 -0.18248222964E+01  0.12485193083E+02  0.13924785230E+01  0.12694448370E+02  0.51100000000E-03 0.  1.
         12    1    3    3    0    0 -0.49026721340E+01  0.19861875747E+00  0.21236013156E+01  0.53465246667E+01  0.00000000000E+00 0. -1.
</event>
<event>
 7    1  0.2706925E-010  0.4778727E+02  0.7816164E-02  0.1312668E+00
        -11   -1    0    0    0    0  0.00000000000E+00  0.00000000000E+00  0.45593999997E+02  0.45594000000E+02  0.51100000000E-03 0.  1.
         11   -1    0    0    0    0 -0.00000000000E+00 -0.00000000000E+00 -0.45593999997E+02  0.45594000000E+02  0.51100000000E-03 0. -1.
    9900012    2    1    2    0    0  0.22711248885E+02 -0.15403441821E+02  0.33623748216E+02  0.47787270859E+02  0.19999999155E+02 0.  0.
         12    1    1    2    0    0 -0.22711248885E+02  0.15403441821E+02 -0.33623748216E+02  0.43400729141E+02  0.00000000000E+00 0. -1.
         11    1    3    3    0    0  0.52719433938E+01 -0.53088270860E+01  0.21329384257E+01  0.77798752410E+01  0.51100000000E-03 0. -1.
        -11    1    3    3    0    0  0.78284711183E+01 -0.84887332766E+01  0.26822895821E+02  0.29202932955E+02  0.51100000000E-03 0.  1.
        -12    1    3    3    0    0  0.96108343734E+01 -0.16058814588E+01  0.46679139690E+01  0.10804462663E+02  0.00000000000E+00 0.  1.
</event>
<event>
 7    1  0.2706925E-010  0.4778727E+02  0.7816164E-02  0.1312668E+00
        -11   -1    0    0    0    0  0.00000000000E+00  0.00000000000E+00  0.45593999997E+02  0.45594000000E+02  0.51100000000E-03 0.  1.
         11   -1    0    0    0    0 -0.00000000000E+00 -0.00000000000E+00 -0.45593999997E+02  0.45594000000E+02  0.51100000000E-03 0. -1.
    9900012    2    1    2    0    0 -0.96265949723E+01  0.41741383749E+02  0.69720205464E+01  0.47787268226E+02  0.19999987148E+02 0.  0.
         12    1    1    2    0    0  0.96265949723E+01 -0.41741383749E+02 -0.69720205464E+01  0.43400731774E+02  0.00000000000E+00 0. -1.
         11    1    3    3    0    0  0.20806905124E+01  0.19563237282E+01  0.36262205218E+01  0.46158369849E+01  0.51100000000E-03 0. -1.
        -11    1    3    3    0    0 -0.35143796612E+01  0.27770248973E+02 -0.95007010775E+00  0.28007860073E+02  0.51100000000E-03 0.  1.
        -12    1    3    3    0    0 -0.81929058235E+01  0.12014811048E+02  0.42958701324E+01  0.15163571167E+02  0.00000000000E+00 0.  1.
</event>
<event>
 7    1  0.2706925E-010  0.4778728E+02  0.7816164E-02  0.1312668E+00
        -11   -1    0    0    0    0  0.00000000000E+00  0.00000000000E+00  0.45593999997E+02  0.45594000000E+02  0.51100000000E-03 0.  1.
         11   -1    0    0    0    0 -0.00000000000E+00 -0.00000000000E+00 -0.45593999997E+02  0.45594000000E+02  0.51100000000E-03 0. -1.
    9900012    2    1    2    0    0 -0.42019802932E+02 -0.68421571513E+01 -0.84346581250E+01  0.47787280990E+02  0.20000045344E+02 0.  0.
         12    1    1    2    0    0  0.42019802932E+02  0.68421571513E+01  0.84346581250E+01  0.43400719010E+02  0.00000000000E+00 0. -1.
         11    1    3    3    0    0 -0.96006396115E+01  0.77640086564E+00 -0.68690176686E+01  0.11830405033E+02  0.51100000000E-03 0. -1.
        -11    1    3    3    0    0 -0.29498695294E+02 -0.29686056955E+01  0.14671979140E+01  0.29683974023E+02  0.51100000000E-03 0.  1.
        -12    1    3    3    0    0 -0.29204680262E+01 -0.46499523214E+01 -0.30328383704E+01  0.62729019333E+01  0.00000000000E+00 0.  1.
</event>
<event>
 7    1  0.2706925E-010  0.4778727E+02  0.7816164E-02  0.1312668E+00
        -11   -1    0    0    0    0  0.00000000000E+00  0.00000000000E+00  0.45593999997E+02  0.45594000000E+02  0.51100000000E-03 0. -1.
         11   -1    0    0    0    0 -0.00000000000E+00 -0.00000000000E+00 -0.45593999997E+02  0.45594000000E+02  0.51100000000E-03 0.  1.
    9900012    2    1    2    0    0  0.38468323350E+02  0.14608060586E+02 -0.13799134457E+02  0.47787269047E+02  0.19999990893E+02 0.  0.
         12    1    1    2    0    0 -0.38468323350E+02 -0.14608060586E+02  0.13799134457E+02  0.43400730953E+02  0.00000000000E+00 0. -1.
         11    1    3    3    0    0  0.17939352305E+02  0.13911750486E+02 -0.13175696170E+02  0.26247973875E+02  0.51100000000E-03 0. -1.
        -11    1    3    3    0    0  0.10405698871E+02 -0.28439432328E+01 -0.75870697140E+00  0.10813982552E+02  0.51100000000E-03 0.  1.
         12    1    3    3    0    0  0.10123272174E+02  0.35402533331E+01  0.13526868456E+00  0.10725312620E+02  0.00000000000E+00 0. -1.
</event>
<event>
 7    1  0.2706925E-010  0.4778727E+02  0.7816164E-02  0.1312668E+00
        -11   -1    0    0    0    0  0.00000000000E+00  0.00000000000E+00  0.45593999997E+02  0.45594000000E+02  0.51100000000E-03 0.  1.
         11   -1    0    0    0    0 -0.00000000000E+00 -0.00000000000E+00 -0.45593999997E+02  0.45594000000E+02  0.51100000000E-03 0. -1.
    9900012    2    1    2    0    0  0.34006654938E+01 -0.22527186204E+02  0.36940282276E+02  0.47787273062E+02  0.20000009200E+02 0.  0.
         12    1    1    2    0    0 -0.34006654938E+01  0.22527186204E+02 -0.36940282276E+02  0.43400726938E+02  0.00000000000E+00 0. -1.
         11    1    3    3    0    0 -0.68364728010E+01 -0.40975648975E+01  0.75787860804E+01  0.10998427031E+02  0.51100000000E-03 0. -1.
        -11    1    3    3    0    0  0.73647749463E+01 -0.17266628502E+02  0.22807014629E+02  0.29538725199E+02  0.51100000000E-03 0.  1.
        -12    1    3    3    0    0  0.28723633486E+01 -0.11629928044E+01  0.65544815665E+01  0.72501208317E+01  0.00000000000E+00 0.  1.
</event>
<event>
 7    1  0.2706925E-010  0.4778727E+02  0.7816164E-02  0.1312668E+00
        -11   -1    0    0    0    0  0.00000000000E+00  0.00000000000E+00  0.45593999997E+02  0.45594000000E+02  0.51100000000E-03 0.  1.
         11   -1    0    0    0    0 -0.00000000000E+00 -0.00000000000E+00 -0.45593999997E+02  0.45594000000E+02  0.51100000000E-03 0. -1.
    9900012    2    1    2    0    0  0.38420348253E+02  0.50934098993E+01  0.19533493915E+02  0.47787269950E+02  0.19999995012E+02 0.  0.
         12    1    1    2    0    0 -0.38420348253E+02 -0.50934098993E+01 -0.19533493915E+02  0.43400730050E+02  0.00000000000E+00 0. -1.
         11    1    3    3    0    0  0.29384064302E+02  0.69468919038E+01  0.13946378320E+02  0.33259344710E+02  0.51100000000E-03 0.  1.
        -11    1    3    3    0    0  0.53004848805E+01 -0.52303336807E+01  0.58732215607E+01  0.94840003238E+01  0.51100000000E-03 0. -1.
         12    1    3    3    0    0  0.37357990710E+01  0.33768516762E+01 -0.28610596598E+00  0.50439249167E+01  0.00000000000E+00 0. -1.
</event>
<event>
 7    1  0.2706925E-010  0.4778727E+02  0.7816164E-02  0.1312668E+00
        -11   -1    0    0    0    0  0.00000000000E+00  0.00000000000E+00  0.45593999997E+02  0.45594000000E+02  0.51100000000E-03 0. -1.
         11   -1    0    0    0    0 -0.00000000000E+00 -0.00000000000E+00 -0.45593999997E+02  0.45594000000E+02  0.51100000000E-03 0.  1.
    9900012    2    1    2    0    0  0.35688763000E+02 -0.10079117583E+02 -0.22546550029E+02  0.47787270352E+02  0.19999996843E+02 0.  0.
         12    1    1    2    0    0 -0.35688763000E+02  0.10079117583E+02  0.22546550029E+02  0.43400729648E+02  0.00000000000E+00 0. -1.
         11    1    3    3    0    0  0.46223867194E+01 -0.67915712290E+01 -0.24089269085E+01  0.85612398550E+01  0.51100000000E-03 0. -1.
        -11    1    3    3    0    0  0.28589006837E+02 -0.51695737735E+01 -0.21170572983E+02  0.35947864548E+02  0.51100000000E-03 0.  1.
         12    1    3    3    0    0  0.24773694441E+01  0.18820274193E+01  0.10329498620E+01  0.32781659486E+01  0.00000000000E+00 0. -1.
</event>
<event>
 7    1  0.2706925E-010  0.4778727E+02  0.7816164E-02  0.1312668E+00
        -11   -1    0    0    0    0  0.00000000000E+00  0.00000000000E+00  0.45593999997E+02  0.45594000000E+02  0.51100000000E-03 0.  1.
         11   -1    0    0    0    0 -0.00000000000E+00 -0.00000000000E+00 -0.45593999997E+02  0.45594000000E+02  0.51100000000E-03 0. -1.
    9900012    2    1    2    0    0 -0.22680295096E+02 -0.22144125867E+02  0.29645663848E+02  0.47787268658E+02  0.19999989118E+02 0.  0.
         12    1    1    2    0    0  0.22680295096E+02  0.22144125867E+02 -0.29645663848E+02  0.43400731342E+02  0.00000000000E+00 0. -1.
         11    1    3    3    0    0 -0.41411309363E+01 -0.95885017183E+01  0.62484455388E+01  0.12170924474E+02  0.51100000000E-03 0. -1.
        -11    1    3    3    0    0 -0.17800421329E+02 -0.68630147703E+01  0.11166053109E+02  0.22105128670E+02  0.51100000000E-03 0.  1.
        -12    1    3    3    0    0 -0.73874283053E+00 -0.56926093786E+01  0.12231165200E+02  0.13511215514E+02  0.00000000000E+00 0.  1.
</event>
<event>
 7    1  0.2706925E-010  0.4778727E+02  0.7816164E-02  0.1312668E+00
        -11   -1    0    0    0    0  0.00000000000E+00  0.00000000000E+00  0.45593999997E+02  0.45594000000E+02  0.51100000000E-03 0.  1.
         11   -1    0    0    0    0 -0.00000000000E+00 -0.00000000000E+00 -0.45593999997E+02  0.45594000000E+02  0.51100000000E-03 0. -1.
    9900012    2    1    2    0    0  0.50631852751E+01 -0.31553916010E+02  0.29365591773E+02  0.47787269121E+02  0.19999991229E+02 0.  0.
         12    1    1    2    0    0 -0.50631852751E+01  0.31553916010E+02 -0.29365591773E+02  0.43400730879E+02  0.00000000000E+00 0. -1.
         11    1    3    3    0    0 -0.39576029275E+00  0.90880096389E-01  0.96029370782E+01  0.96115184123E+01  0.51100000000E-03 0. -1.
        -11    1    3    3    0    0  0.34969343858E+01 -0.27912155368E+02  0.15244584265E+02  0.31995535893E+02  0.51100000000E-03 0.  1.
        -12    1    3    3    0    0  0.19620111821E+01 -0.37326407379E+01  0.45180704299E+01  0.61802148156E+01  0.00000000000E+00 0.  1.
</event>
<event>
 7    1  0.2706925E-010  0.4778727E+02  0.7816164E-02  0.1312668E+00
        -11   -1    0    0    0    0  0.00000000000E+00  0.00000000000E+00  0.45593999997E+02  0.45594000000E+02  0.51100000000E-03 0. -1.
         11   -1    0    0    0    0 -0.00000000000E+00 -0.00000000000E+00 -0.45593999997E+02  0.45594000000E+02  0.51100000000E-03 0.  1.
    9900012    2    1    2    0    0  0.34739267799E+02 -0.75173002229E+01 -0.24905758286E+02  0.47787270448E+02  0.19999997279E+02 0.  0.
         12    1    1    2    0    0 -0.34739267799E+02  0.75173002229E+01  0.24905758286E+02  0.43400729552E+02  0.00000000000E+00 0. -1.
         11    1    3    3    0    0  0.16100648201E+02  0.79988495561E+00 -0.12939201806E+02  0.20671082025E+02  0.51100000000E-03 0. -1.
        -11    1    3    3    0    0  0.17681501143E+02 -0.11132579801E+02 -0.85211937304E+01  0.22565029549E+02  0.51100000000E-03 0.  1.
         12    1    3    3    0    0  0.95711845476E+00  0.28153946224E+01 -0.34453627499E+01  0.45511588738E+01  0.00000000000E+00 0. -1.
</event>
<event>
 7    1  0.2706925E-010  0.4778727E+02  0.7816164E-02  0.1312668E+00
        -11   -1    0    0    0    0  0.00000000000E+00  0.00000000000E+00  0.45593999997E+02  0.45594000000E+02  0.51100000000E-03 0.  1.
         11   -1    0    0    0    0 -0.00000000000E+00 -0.00000000000E+00 -0.45593999997E+02  0.45594000000E+02  0.51100000000E-03 0. -1.
    9900012    2    1    2    0    0 -0.32339370282E+02 -0.13792273347E+02  0.25447233374E+02  0.47787270044E+02  0.19999995440E+02 0.  0.
         12    1    1    2    0    0  0.32339370282E+02  0.13792273347E+02 -0.25447233374E+02  0.43400729956E+02  0.00000000000E+00 0. -1.
         11    1    3    3    0    0 -0.16859131080E+02  0.18640378217E+01  0.51909609256E+01  0.17738405040E+02  0.51100000000E-03 0. -1.
        -11    1    3    3    0    0 -0.52580593085E+01 -0.61877929407E+01  0.58587631066E+01  0.10013045220E+02  0.51100000000E-03 0.  1.
         12    1    3    3    0    0 -0.10222179893E+02 -0.94685182281E+01  0.14397509341E+02  0.20035819785E+02  0.00000000000E+00 0. -1.
</event>
<event>
 7    1  0.2706925E-010  0.4778727E+02  0.7816164E-02  0.1312668E+00
        -11   -1    0    0    0    0  0.00000000000E+00  0.00000000000E+00  0.45593999997E+02  0.45594000000E+02  0.51100000000E-03 0.  1.
         11   -1    0    0    0    0 -0.00000000000E+00 -0.00000000000E+00 -0.45593999997E+02  0.45594000000E+02  0.51100000000E-03 0. -1.
    9900012    2    1    2    0    0 -0.22383128609E+01 -0.69049463124E+01  0.42789426939E+02  0.47787269754E+02  0.19999994118E+02 0.  0.
         12    1    1    2    0    0  0.22383128609E+01  0.69049463124E+01 -0.42789426939E+02  0.43400730246E+02  0.00000000000E+00 0. -1.
         11    1    3    3    0    0 -0.78324072310E+01 -0.19966379692E+01  0.65991146234E+01  0.10434628900E+02  0.51100000000E-03 0. -1.
        -11    1    3    3    0    0  0.33310113263E+01 -0.55868678506E+01  0.21141290948E+02  0.22119288236E+02  0.51100000000E-03 0.  1.
         12    1    3    3    0    0  0.22630830439E+01  0.67855950736E+00  0.15049021368E+02  0.15233352619E+02  0.00000000000E+00 0. -1.
</event>
<event>
 7    1  0.2706925E-010  0.4778727E+02  0.7816164E-02  0.1312668E+00
        -11   -1    0    0    0    0  0.00000000000E+00  0.00000000000E+00  0.45593999997E+02  0.45594000000E+02  0.51100000000E-03 0.  1.
         11   -1    0    0    0    0 -0.00000000000E+00 -0.00000000000E+00 -0.45593999997E+02  0.45594000000E+02  0.51100000000E-03 0. -1.
    9900012    2    1    2    0    0  0.12214981042E+02 -0.22601420626E+02  0.34979899840E+02  0.47787269949E+02  0.19999995006E+02 0.  0.
         12    1    1    2    0    0 -0.12214981042E+02  0.22601420626E+02 -0.34979899840E+02  0.43400730051E+02  0.00000000000E+00 0. -1.
         11    1    3    3    0    0  0.89722965950E+01 -0.54413687623E+01  0.12479163265E+02  0.16304604143E+02  0.51100000000E-03 0. -1.
        -11    1    3    3    0    0  0.28825207275E+01 -0.16074746432E+02  0.10473181916E+02  0.19400874678E+02  0.51100000000E-03 0.  1.
        -12    1    3    3    0    0  0.36016371971E+00 -0.10853054317E+01  0.12027554659E+02  0.12081791128E+02  0.00000000000E+00 0.  1.
</event>
<event>
 7    1  0.2706925E-010  0.4778727E+02  0.7816164E-02  0.1312668E+00
        -11   -1    0    0    0    0  0.00000000000E+00  0.00000000000E+00  0.45593999997E+02  0.45594000000E+02  0.51100000000E-03 0. -1.
         11   -1    0    0    0    0 -0.00000000000E+00 -0.00000000000E+00 -0.45593999997E+02  0.45594000000E+02  0.51100000000E-03 0.  1.
    9900012    2    1    2    0    0 -0.40304396812E+02 -0.15333688046E+02 -0.49047792866E+01  0.47787271304E+02  0.20000001183E+02 0.  0.
         12    1    1    2    0    0  0.40304396812E+02  0.15333688046E+02  0.49047792866E+01  0.43400728696E+02  0.00000000000E+00 0. -1.
         11    1    3    3    0    0  0.99274745486E+00 -0.22908352408E+00 -0.32227206469E+01  0.33799342300E+01  0.51100000000E-03 0. -1.
        -11    1    3    3    0    0 -0.26098311681E+02 -0.80362062075E+01  0.14883349094E+01  0.27348082636E+02  0.51100000000E-03 0.  1.
         12    1    3    3    0    0 -0.15198832586E+02 -0.70683983147E+01 -0.31703935491E+01  0.17059254438E+02  0.00000000000E+00 0. -1.
</event>
<event>
 7    1  0.2706925E-010  0.4778729E+02  0.7816164E-02  0.1312668E+00
        -11   -1    0    0    0    0  0.00000000000E+00  0.00000000000E+00  0.45593999997E+02  0.45594000000E+02  0.51100000000E-03 0. -1.
         11   -1    0    0    0    0 -0.00000000000E+00 -0.00000000000E+00 -0.45593999997E+02  0.45594000000E+02  0.51100000000E-03 0.  1.
    9900012    2    1    2    0    0  0.29539411293E+02  0.27569307734E+02 -0.15842300973E+02  0.47787285160E+02  0.20000064360E+02 0.  0.
         12    1    1    2    0    0 -0.29539411293E+02 -0.27569307734E+02  0.15842300973E+02  0.43400714840E+02  0.00000000000E+00 0. -1.
         11    1    3    3    0    0 -0.82095716363E+00 -0.17475662029E+01 -0.78966013930E+00  0.20860301280E+01  0.51100000000E-03 0. -1.
        -11    1    3    3    0    0  0.94724684501E+01  0.44392316293E+01 -0.56222962805E+01  0.11876222115E+02  0.51100000000E-03 0.  1.
         12    1    3    3    0    0  0.20887900006E+02  0.24877642308E+02 -0.94303445530E+01  0.33825032917E+02  0.00000000000E+00 0. -1.
</event>
<event>
 7    1  0.2706925E-010  0.4778728E+02  0.7816164E-02  0.1312668E+00
        -11   -1    0    0    0    0  0.00000000000E+00  0.00000000000E+00  0.45593999997E+02  0.45594000000E+02  0.51100000000E-03 0.  1.
         11   -1    0    0    0    0 -0.00000000000E+00 -0.00000000000E+00 -0.45593999997E+02  0.45594000000E+02  0.51100000000E-03 0. -1.
    9900012    2    1    2    0    0  0.39662094173E+02  0.17383035234E+02  0.28932986958E+01  0.47787276441E+02  0.20000024605E+02 0.  0.
         12    1    1    2    0    0 -0.39662094173E+02 -0.17383035234E+02 -0.28932986958E+01  0.43400723559E+02  0.00000000000E+00 0. -1.
         11    1    3    3    0    0  0.16583941252E+01  0.36641292168E+00 -0.46361667109E+01  0.49374661048E+01  0.51100000000E-03 0. -1.
        -11    1    3    3    0    0  0.24992081977E+02  0.12576431692E+02  0.20611344561E+01  0.28053860183E+02  0.51100000000E-03 0.  1.
         12    1    3    3    0    0  0.13011618071E+02  0.44401906201E+01  0.54683309506E+01  0.14795950154E+02  0.00000000000E+00 0. -1.
</event>
<event>
 7    1  0.2706925E-010  0.4778728E+02  0.7816164E-02  0.1312668E+00
        -11   -1    0    0    0    0  0.00000000000E+00  0.00000000000E+00  0.45593999997E+02  0.45594000000E+02  0.51100000000E-03 0.  1.
         11   -1    0    0    0    0 -0.00000000000E+00 -0.00000000000E+00 -0.45593999997E+02  0.45594000000E+02  0.51100000000E-03 0. -1.
    9900012    2    1    2    0    0  0.49650535836E+01  0.75719882419E+01  0.42445684102E+02  0.47787275791E+02  0.20000021641E+02 0.  0.
         12    1    1    2    0    0 -0.49650535836E+01 -0.75719882419E+01 -0.42445684102E+02  0.43400724209E+02  0.00000000000E+00 0. -1.
         11    1    3    3    0    0  0.76542290042E+01 -0.14707769559E+01  0.21107366247E+02  0.22500473698E+02  0.51100000000E-03 0. -1.
        -11    1    3    3    0    0  0.34611680866E+01  0.13520436756E+01  0.55467281717E+01  0.66763687957E+01  0.51100000000E-03 0.  1.
         12    1    3    3    0    0 -0.61503435071E+01  0.76907215222E+01  0.15791589683E+02  0.18610433297E+02  0.00000000000E+00 0. -1.
</event>
<event>
 7    1  0.2706925E-010  0.4778728E+02  0.7816164E-02  0.1312668E+00
        -11   -1    0    0    0    0  0.00000000000E+00  0.00000000000E+00  0.45593999997E+02  0.45594000000E+02  0.51100000000E-03 0.  1.
         11   -1    0    0    0    0 -0.00000000000E+00 -0.00000000000E+00 -0.45593999997E+02  0.45594000000E+02  0.51100000000E-03 0. -1.
    9900012    2    1    2    0    0 -0.33172587711E+02  0.27688942565E+02 -0.40650552160E+01  0.47787276622E+02  0.20000025432E+02 0.  0.
         12    1    1    2    0    0  0.33172587711E+02 -0.27688942565E+02  0.40650552160E+01  0.43400723378E+02  0.00000000000E+00 0. -1.
         11    1    3    3    0    0 -0.21564903309E+02  0.18173728791E+02  0.44308117692E+01  0.28547531699E+02  0.51100000000E-03 0.  1.
        -11    1    3    3    0    0 -0.10824480240E+02  0.61594166169E+01 -0.94847794969E+01  0.15654674315E+02  0.51100000000E-03 0. -1.
         12    1    3    3    0    0 -0.78320416163E+00  0.33557971564E+01  0.98891251169E+00  0.35850706087E+01  0.00000000000E+00 0. -1.
</event>
<event>
 7    1  0.2706925E-010  0.4778727E+02  0.7816164E-02  0.1312668E+00
        -11   -1    0    0    0    0  0.00000000000E+00  0.00000000000E+00  0.45593999997E+02  0.45594000000E+02  0.51100000000E-03 0. -1.
         11   -1    0    0    0    0 -0.00000000000E+00 -0.00000000000E+00 -0.45593999997E+02  0.45594000000E+02  0.51100000000E-03 0.  1.
    9900012    2    1    2    0    0  0.31403526988E+02  0.29828453457E+02 -0.27758485360E+01  0.47787268693E+02  0.19999989279E+02 0.  0.
         12    1    1    2    0    0 -0.31403526988E+02 -0.29828453457E+02  0.27758485360E+01  0.43400731307E+02  0.00000000000E+00 0. -1.
         11    1    3    3    0    0  0.14082068319E+02  0.58255891480E+01 -0.51587656347E+00  0.15248221730E+02  0.51100000000E-03 0. -1.
        -11    1    3    3    0    0 -0.21442665950E+01  0.25856193826E+01 -0.12364846897E+01  0.35794135652E+01  0.51100000000E-03 0.  1.
        -12    1    3    3    0    0  0.19465725264E+02  0.21417244926E+02 -0.10234872828E+01  0.28959633397E+02  0.00000000000E+00 0.  1.
</event>
<event>
 7    1  0.2706925E-010  0.4778727E+02  0.7816164E-02  0.1312668E+00
        -11   -1    0    0    0    0  0.00000000000E+00  0.00000000000E+00  0.45593999997E+02  0.45594000000E+02  0.51100000000E-03 0.  1.
         11   -1    0    0    0    0 -0.00000000000E+00 -0.00000000000E+00 -0.45593999997E+02  0.45594000000E+02  0.51100000000E-03 0. -1.
    9900012    2    1    2    0    0  0.43246245606E+02 -0.19452684687E+01  0.30985755542E+01  0.47787274212E+02  0.20000014443E+02 0.  0.
         12    1    1    2    0    0 -0.43246245606E+02  0.19452684687E+01 -0.30985755542E+01  0.43400725788E+02  0.00000000000E+00 0. -1.
         11    1    3    3    0    0  0.83091723947E+01 -0.55373253948E+01  0.43124918714E+01  0.10876667910E+02  0.51100000000E-03 0. -1.
        -11    1    3    3    0    0  0.25579781260E+02  0.69521466067E+01  0.16648959938E+01  0.26559921511E+02  0.51100000000E-03 0.  1.
         12    1    3    3    0    0  0.93572919516E+01 -0.33600896806E+01 -0.28788123110E+01  0.10350684791E+02  0.00000000000E+00 0. -1.
</event>
<event>
 7    1  0.2706925E-010  0.4778727E+02  0.7816164E-02  0.1312668E+00
        -11   -1    0    0    0    0  0.00000000000E+00  0.00000000000E+00  0.45593999997E+02  0.45594000000E+02  0.51100000000E-03 0. -1.
         11   -1    0    0    0    0 -0.00000000000E+00 -0.00000000000E+00 -0.45593999997E+02  0.45594000000E+02  0.51100000000E-03 0.  1.
    9900012    2    1    2    0    0  0.15676380542E+02  0.40406787761E+02 -0.22728496174E+01  0.47787271326E+02  0.20000001285E+02 0.  0.
         12    1    1    2    0    0 -0.15676380542E+02 -0.40406787761E+02  0.22728496174E+01  0.43400728674E+02  0.00000000000E+00 0. -1.
         11    1    3    3    0    0  0.85048551449E+01  0.26695217338E+02 -0.10698897335E+01  0.28037686318E+02  0.51100000000E-03 0. -1.
        -11    1    3    3    0    0 -0.39133560812E+00 -0.14100919433E+01 -0.23879385216E+01  0.28006701860E+01  0.51100000000E-03 0.  1.
        -12    1    3    3    0    0  0.75628610050E+01  0.15121662366E+02  0.11849786377E+01  0.16948914823E+02  0.00000000000E+00 0.  1.
</event>
<event>
 7    1  0.2706925E-010  0.4778727E+02  0.7816164E-02  0.1312668E+00
        -11   -1    0    0    0    0  0.00000000000E+00  0.00000000000E+00  0.45593999997E+02  0.45594000000E+02  0.51100000000E-03 0.  1.
         11   -1    0    0    0    0 -0.00000000000E+00 -0.00000000000E+00 -0.45593999997E+02  0.45594000000E+02  0.51100000000E-03 0. -1.
    9900012    2    1    2    0    0 -0.21790924510E+01 -0.35442870708E+02 -0.24953517178E+02  0.47787267892E+02  0.19999985627E+02 0.  0.
         12    1    1    2    0    0  0.21790924510E+01  0.35442870708E+02  0.24953517178E+02  0.43400732108E+02  0.00000000000E+00 0. -1.
         11    1    3    3    0    0 -0.59307196670E+01 -0.25619155721E+02 -0.15233425592E+02  0.30390324630E+02  0.51100000000E-03 0. -1.
        -11    1    3    3    0    0  0.83002359073E+00 -0.10879464445E+02 -0.56811455371E+01  0.12301508064E+02  0.51100000000E-03 0.  1.
         12    1    3    3    0    0  0.29216036253E+01  0.10557494581E+01 -0.40389460493E+01  0.50954351974E+01  0.00000000000E+00 0. -1.
</event>
<event>
 7    1  0.2706925E-010  0.4778727E+02  0.7816164E-02  0.1312668E+00
        -11   -1    0    0    0    0  0.00000000000E+00  0.00000000000E+00  0.45593999997E+02  0.45594000000E+02  0.51100000000E-03 0.  1.
         11   -1    0    0    0    0 -0.00000000000E+00 -0.00000000000E+00 -0.45593999997E+02  0.45594000000E+02  0.51100000000E-03 0. -1.
    9900012    2    1    2    0    0  0.93373852117E+01  0.33117521330E+01  0.42254805489E+02  0.47787273604E+02  0.20000011669E+02 0.  0.
         12    1    1    2    0    0 -0.93373852117E+01 -0.33117521330E+01 -0.42254805489E+02  0.43400726396E+02  0.00000000000E+00 0. -1.
         11    1    3    3    0    0 -0.21997020029E+01 -0.29507609664E+01  0.24611932631E+00  0.36886656349E+01  0.51100000000E-03 0. -1.
        -11    1    3    3    0    0  0.83534365838E+01  0.33455665261E+01  0.30778015435E+02  0.32066477083E+02  0.51100000000E-03 0.  1.
         12    1    3    3    0    0  0.31836506307E+01  0.29169465733E+01  0.11230670728E+02  0.12032130886E+02  0.00000000000E+00 0. -1.
</event>
<event>
 7    1  0.2706925E-010  0.4778727E+02  0.7816164E-02  0.1312668E+00
        -11   -1    0    0    0    0  0.00000000000E+00  0.00000000000E+00  0.45593999997E+02  0.45594000000E+02  0.51100000000E-03 0.  1.
         11   -1    0    0    0    0 -0.00000000000E+00 -0.00000000000E+00 -0.45593999997E+02  0.45594000000E+02  0.51100000000E-03 0. -1.
    9900012    2    1    2    0    0  0.35002042754E+02 -0.16057678748E+01  0.25610579463E+02  0.47787271114E+02  0.20000000315E+02 0.  0.
         12    1    1    2    0    0 -0.35002042754E+02  0.16057678748E+01 -0.25610579463E+02  0.43400728886E+02  0.00000000000E+00 0. -1.
         11    1    3    3    0    0  0.18937014230E+02 -0.69495193198E+01  0.18346682580E+02  0.27267326394E+02  0.51100000000E-03 0. -1.
        -11    1    3    3    0    0  0.15916216163E+02  0.57106644633E+01  0.41905574879E+01  0.17421205409E+02  0.51100000000E-03 0.  1.
        -12    1    3    3    0    0  0.14881236132E+00 -0.36691301826E+00  0.30733393949E+01  0.30987393111E+01  0.00000000000E+00 0.  1.
</event>
<event>
 7    1  0.2706925E-010  0.4778729E+02  0.7816164E-02  0.1312668E+00
        -11   -1    0    0    0    0  0.00000000000E+00  0.00000000000E+00  0.45593999997E+02  0.45594000000E+02  0.51100000000E-03 0. -1.
         11   -1    0    0    0    0 -0.00000000000E+00 -0.00000000000E+00 -0.45593999997E+02  0.45594000000E+02  0.51100000000E-03 0.  1.
    9900012    2    1    2    0    0 -0.28212306763E+02  0.29682672231E+02 -0.14374507885E+02  0.47787288478E+02  0.20000079487E+02 0.  0.
         12    1    1    2    0    0  0.28212306763E+02 -0.29682672231E+02  0.14374507885E+02  0.43400711522E+02  0.00000000000E+00 0. -1.
         11    1    3    3    0    0 -0.59640732738E+01  0.71005558920E+01  0.38532197622E+01  0.10041681472E+02  0.51100000000E-03 0. -1.
        -11    1    3    3    0    0 -0.88720848740E+01  0.12504253243E+02 -0.13276404282E+02  0.20281349809E+02  0.51100000000E-03 0.  1.
         12    1    3    3    0    0 -0.13376148616E+02  0.10077863096E+02 -0.49513233660E+01  0.17464257197E+02  0.00000000000E+00 0. -1.
</event>
<event>
 7    1  0.2706925E-010  0.4778728E+02  0.7816164E-02  0.1312668E+00
        -11   -1    0    0    0    0  0.00000000000E+00  0.00000000000E+00  0.45593999997E+02  0.45594000000E+02  0.51100000000E-03 0.  1.
         11   -1    0    0    0    0 -0.00000000000E+00 -0.00000000000E+00 -0.45593999997E+02  0.45594000000E+02  0.51100000000E-03 0. -1.
    9900012    2    1    2    0    0 -0.30332802880E+02 -0.14113696061E+02  0.27646828192E+02  0.47787280465E+02  0.20000042954E+02 0.  0.
         12    1    1    2    0    0  0.30332802880E+02  0.14113696061E+02 -0.27646828192E+02  0.43400719535E+02  0.00000000000E+00 0. -1.
         11    1    3    3    0    0 -0.16777567600E+02 -0.14937983895E+02  0.22610359039E+02  0.31872534784E+02  0.51100000000E-03 0. -1.
        -11    1    3    3    0    0 -0.47511216173E+01 -0.28165458685E+01  0.12517649974E+01  0.56633031988E+01  0.51100000000E-03 0.  1.
         12    1    3    3    0    0 -0.88041136630E+01  0.36408337021E+01  0.37847041547E+01  0.10251442483E+02  0.00000000000E+00 0. -1.
</event>
<event>
 7    1  0.2706925E-010  0.4778727E+02  0.7816164E-02  0.1312668E+00
        -11   -1    0    0    0    0  0.00000000000E+00  0.00000000000E+00  0.45593999997E+02  0.45594000000E+02  0.51100000000E-03 0. -1.
         11   -1    0    0    0    0 -0.00000000000E+00 -0.00000000000E+00 -0.45593999997E+02  0.45594000000E+02  0.51100000000E-03 0.  1.
    9900012    2    1    2    0    0 -0.78752496035E+01  0.37275236251E+02 -0.20788477599E+02  0.47787267347E+02  0.19999983144E+02 0.  0.
         12    1    1    2    0    0  0.78752496035E+01 -0.37275236251E+02  0.20788477599E+02  0.43400732653E+02  0.00000000000E+00 0. -1.
         11    1    3    3    0    0 -0.16939468687E+01  0.47722723409E+01  0.27724466866E+01  0.57732573285E+01  0.51100000000E-03 0. -1.
        -11    1    3    3    0    0 -0.81964157764E+01  0.20194857864E+02 -0.18373997312E+02  0.28506443012E+02  0.51100000000E-03 0.  1.
         12    1    3    3    0    0  0.20151130415E+01  0.12308106047E+02 -0.51869269738E+01  0.13507567007E+02  0.00000000000E+00 0. -1.
</event>
<event>
 7    1  0.2706925E-010  0.4778727E+02  0.7816164E-02  0.1312668E+00
        -11   -1    0    0    0    0  0.00000000000E+00  0.00000000000E+00  0.45593999997E+02  0.45594000000E+02  0.51100000000E-03 0. -1.
         11   -1    0    0    0    0 -0.00000000000E+00 -0.00000000000E+00 -0.45593999997E+02  0.45594000000E+02  0.51100000000E-03 0.  1.
    9900012    2    1    2    0    0 -0.42542491629E+02  0.62681082240E+01  0.58712029065E+01  0.47787265003E+02  0.19999972456E+02 0.  0.
         12    1    1    2    0    0  0.42542491629E+02 -0.62681082240E+01 -0.58712029065E+01  0.43400734997E+02  0.00000000000E+00 0. -1.
         11    1    3    3    0    0 -0.32753698866E+02  0.22373321196E+01  0.21441491586E+01  0.32899966874E+02  0.51100000000E-03 0. -1.
        -11    1    3    3    0    0 -0.10634915851E+02  0.46730911451E+01  0.54749567798E+01  0.12841898926E+02  0.51100000000E-03 0.  1.
         12    1    3    3    0    0  0.84612308888E+00 -0.64231504071E+00 -0.17479030319E+01  0.20453992036E+01  0.00000000000E+00 0. -1.
</event>
<event>
 7    1  0.2706925E-010  0.4778727E+02  0.7816164E-02  0.1312668E+00
        -11   -1    0    0    0    0  0.00000000000E+00  0.00000000000E+00  0.45593999997E+02  0.45594000000E+02  0.51100000000E-03 0.  1.
         11   -1    0    0    0    0 -0.00000000000E+00 -0.00000000000E+00 -0.45593999997E+02  0.45594000000E+02  0.51100000000E-03 0. -1.
    9900012    2    1    2    0    0 -0.29169406811E+02  0.22855289119E+02  0.22592139617E+02  0.47787270665E+02  0.19999998268E+02 0.  0.
         12    1    1    2    0    0  0.29169406811E+02 -0.22855289119E+02 -0.22592139617E+02  0.43400729335E+02  0.00000000000E+00 0. -1.
         11    1    3    3    0    0  0.67063144994E+00 -0.39621541646E+00 -0.23368907983E+01  0.24632888711E+01  0.51100000000E-03 0. -1.
        -11    1    3    3    0    0 -0.13004698193E+02  0.93450680330E+01  0.10309043053E+02  0.19045441464E+02  0.51100000000E-03 0.  1.
         12    1    3    3    0    0 -0.16835340068E+02  0.13906436502E+02  0.14619987362E+02  0.26278540330E+02  0.00000000000E+00 0. -1.
</event>
<event>
 7    1  0.2706925E-010  0.4778727E+02  0.7816164E-02  0.1312668E+00
        -11   -1    0    0    0    0  0.00000000000E+00  0.00000000000E+00  0.45593999997E+02  0.45594000000E+02  0.51100000000E-03 0.  1.
         11   -1    0    0    0    0 -0.00000000000E+00 -0.00000000000E+00 -0.45593999997E+02  0.45594000000E+02  0.51100000000E-03 0. -1.
    9900012    2    1    2    0    0 -0.13651448064E+02  0.40989321783E+02  0.41396810333E+01  0.47787268514E+02  0.19999988461E+02 0.  0.
         12    1    1    2    0    0  0.13651448064E+02 -0.40989321783E+02 -0.41396810333E+01  0.43400731486E+02  0.00000000000E+00 0. -1.
         11    1    3    3    0    0 -0.34797749748E+01 -0.70460515233E+00  0.27952567142E+01  0.45187124997E+01  0.51100000000E-03 0. -1.
        -11    1    3    3    0    0 -0.31149147314E+01  0.16586800792E+02  0.29779245053E+01  0.17137464484E+02  0.51100000000E-03 0.  1.
         12    1    3    3    0    0 -0.70567583579E+01  0.25107126143E+02 -0.16335001862E+01  0.26131091530E+02  0.00000000000E+00 0. -1.
</event>
<event>
 7    1  0.2706925E-010  0.4778727E+02  0.7816164E-02  0.1312668E+00
        -11   -1    0    0    0    0  0.00000000000E+00  0.00000000000E+00  0.45593999997E+02  0.45594000000E+02  0.51100000000E-03 0.  1.
         11   -1    0    0    0    0 -0.00000000000E+00 -0.00000000000E+00 -0.45593999997E+02  0.45594000000E+02  0.51100000000E-03 0. -1.
    9900012    2    1    2    0    0  0.30686848860E+02 -0.59737985930E+01  0.30104057965E+02  0.47787271105E+02  0.20000000278E+02 0.  0.
         12    1    1    2    0    0 -0.30686848860E+02  0.59737985930E+01 -0.30104057965E+02  0.43400728895E+02  0.00000000000E+00 0. -1.
         11    1    3    3    0    0 -0.69773922775E+00 -0.12251639824E+01 -0.10506958851E+01  0.17583597236E+01  0.51100000000E-03 0. -1.
        -11    1    3    3    0    0  0.16436683295E+02  0.21714264329E+01  0.20692142180E+02  0.26514984419E+02  0.51100000000E-03 0.  1.
        -12    1    3    3    0    0  0.14947904792E+02 -0.69200610435E+01  0.10462611671E+02  0.19513926963E+02  0.00000000000E+00 0.  1.
</event>
<event>
 7    1  0.2706925E-010  0.4778727E+02  0.7816164E-02  0.1312668E+00
        -11   -1    0    0    0    0  0.00000000000E+00  0.00000000000E+00  0.45593999997E+02  0.45594000000E+02  0.51100000000E-03 0.  1.
         11   -1    0    0    0    0 -0.00000000000E+00 -0.00000000000E+00 -0.45593999997E+02  0.45594000000E+02  0.51100000000E-03 0. -1.
    9900012    2    1    2    0    0 -0.44390642560E+01  0.18320185987E+02  0.39093331619E+02  0.47787273241E+02  0.20000010017E+02 0.  0.
         12    1    1    2    0    0  0.44390642560E+01 -0.18320185987E+02 -0.39093331619E+02  0.43400726759E+02  0.00000000000E+00 0. -1.
         11    1    3    3    0    0 -0.17063256239E+01  0.12556761152E+01  0.43676790718E+01  0.48543681748E+01  0.51100000000E-03 0. -1.
        -11    1    3    3    0    0 -0.84293873321E+01  0.23903061068E+01  0.17672672946E+02  0.19725402490E+02  0.51100000000E-03 0.  1.
        -12    1    3    3    0    0  0.56966487000E+01  0.14674203765E+02  0.17052979602E+02  0.23207502577E+02  0.00000000000E+00 0.  1.
</event>
<event>
 7    1  0.2706925E-010  0.4778727E+02  0.7816164E-02  0.1312668E+00
        -11   -1    0    0    0    0  0.00000000000E+00  0.00000000000E+00  0.45593999997E+02  0.45594000000E+02  0.51100000000E-03 0.  1.
         11   -1    0    0    0    0 -0.00000000000E+00 -0.00000000000E+00 -0.45593999997E+02  0.45594000000E+02  0.51100000000E-03 0. -1.
    9900012    2    1    2    0    0 -0.22649709818E+02 -0.10016048824E+02  0.35641165429E+02  0.47787271181E+02  0.20000000622E+02 0.  0.
         12    1    1    2    0    0  0.22649709818E+02  0.10016048824E+02 -0.35641165429E+02  0.43400728819E+02  0.00000000000E+00 0. -1.
         11    1    3    3    0    0 -0.11771393894E+01 -0.77599205227E+01  0.39060256711E+01  0.87669299339E+01  0.51100000000E-03 0. -1.
        -11    1    3    3    0    0 -0.12119734651E+02  0.80142474239E+00  0.12586593878E+02  0.17491500660E+02  0.51100000000E-03 0.  1.
         12    1    3    3    0    0 -0.93528357775E+01 -0.30575530433E+01  0.19148545880E+02  0.21528840587E+02  0.00000000000E+00 0. -1.
</event>
<event>
 7    1  0.2706925E-010  0.4778728E+02  0.7816164E-02  0.1312668E+00
        -11   -1    0    0    0    0  0.00000000000E+00  0.00000000000E+00  0.45593999997E+02  0.45594000000E+02  0.51100000000E-03 0. -1.
         11   -1    0    0    0    0 -0.00000000000E+00 -0.00000000000E+00 -0.45593999997E+02  0.45594000000E+02  0.51100000000E-03 0.  1.
    9900012    2    1    2    0    0 -0.41117423352E+02  0.10890222798E+02  0.86245540952E+01  0.47787281238E+02  0.20000046477E+02 0.  0.
         12    1    1    2    0    0  0.41117423352E+02 -0.10890222798E+02 -0.86245540952E+01  0.43400718762E+02  0.00000000000E+00 0. -1.
         11    1    3    3    0    0  0.15205643468E+01 -0.41258617191E+00 -0.33818206888E+00  0.16114312442E+01  0.51100000000E-03 0. -1.
        -11    1    3    3    0    0 -0.85451245365E+01  0.33708405543E+01 -0.21810907483E+01  0.94413387027E+01  0.51100000000E-03 0.  1.
         12    1    3    3    0    0 -0.34092863162E+02  0.79319684153E+01  0.11143826912E+02  0.36734511291E+02  0.00000000000E+00 0. -1.
</event>
<event>
 7    1  0.2706925E-010  0.4778727E+02  0.7816164E-02  0.1312668E+00
        -11   -1    0    0    0    0  0.00000000000E+00  0.00000000000E+00  0.45593999997E+02  0.45594000000E+02  0.51100000000E-03 0.  1.
         11   -1    0    0    0    0 -0.00000000000E+00 -0.00000000000E+00 -0.45593999997E+02  0.45594000000E+02  0.51100000000E-03 0. -1.
    9900012    2    1    2    0    0 -0.42656782800E+02 -0.40242213850E+01 -0.69157828655E+01  0.47787268102E+02  0.19999986584E+02 0.  0.
         12    1    1    2    0    0  0.42656782800E+02  0.40242213850E+01  0.69157828655E+01  0.43400731898E+02  0.00000000000E+00 0. -1.
         11    1    3    3    0    0 -0.81054754358E+01 -0.40041404480E+01  0.33220945405E+01  0.96316242226E+01  0.51100000000E-03 0. -1.
        -11    1    3    3    0    0 -0.27718120272E+02  0.48244605493E+01 -0.59966188136E+01  0.28766804628E+02  0.51100000000E-03 0.  1.
         12    1    3    3    0    0 -0.68331870924E+01 -0.48445414863E+01 -0.42412585923E+01  0.93888392519E+01  0.00000000000E+00 0. -1.
</event>
<event>
 7    1  0.2706925E-010  0.4778727E+02  0.7816164E-02  0.1312668E+00
        -11   -1    0    0    0    0  0.00000000000E+00  0.00000000000E+00  0.45593999997E+02  0.45594000000E+02  0.51100000000E-03 0.  1.
         11   -1    0    0    0    0 -0.00000000000E+00 -0.00000000000E+00 -0.45593999997E+02  0.45594000000E+02  0.51100000000E-03 0. -1.
    9900012    2    1    2    0    0 -0.42088220334E+02 -0.63745647487E+01  0.84598993529E+01  0.47787271162E+02  0.20000000534E+02 0.  0.
         12    1    1    2    0    0  0.42088220334E+02  0.63745647487E+01 -0.84598993529E+01  0.43400728838E+02  0.00000000000E+00 0. -1.
         11    1    3    3    0    0 -0.10308403143E+02  0.19313707107E+01  0.89539533007E+01  0.13790092391E+02  0.51100000000E-03 0. -1.
        -11    1    3    3    0    0 -0.29094620302E+02 -0.83139615009E+01  0.20096001493E+01  0.30325853316E+02  0.51100000000E-03 0.  1.
         12    1    3    3    0    0 -0.26851968896E+01  0.80260415545E-02 -0.25036540971E+01  0.36713254543E+01  0.00000000000E+00 0. -1.
</event>
<event>
 7    1  0.2706925E-010  0.4778727E+02  0.7816164E-02  0.1312668E+00
        -11   -1    0    0    0    0  0.00000000000E+00  0.00000000000E+00  0.45593999997E+02  0.45594000000E+02  0.51100000000E-03 0.  1.
         11   -1    0    0    0    0 -0.00000000000E+00 -0.00000000000E+00 -0.45593999997E+02  0.45594000000E+02  0.51100000000E-03 0. -1.
    9900012    2    1    2    0    0  0.25199482328E+02 -0.30294513703E+02  0.18189331210E+02  0.47787271435E+02  0.20000001782E+02 0.  0.
         12    1    1    2    0    0 -0.25199482328E+02  0.30294513703E+02 -0.18189331210E+02  0.43400728565E+02  0.00000000000E+00 0. -1.
         11    1    3    3    0    0  0.26435421328E+01  0.98749235519E+00 -0.11531884536E+01  0.30484914351E+01  0.51100000000E-03 0. -1.
        -11    1    3    3    0    0  0.16329824740E+02 -0.20543516531E+02  0.18858828022E+02  0.32316476326E+02  0.51100000000E-03 0.  1.
        -12    1    3    3    0    0  0.62261154551E+01 -0.10738489527E+02  0.48369164201E+00  0.12422303675E+02  0.00000000000E+00 0.  1.
</event>
<event>
 7    1  0.2706925E-010  0.4778727E+02  0.7816164E-02  0.1312668E+00
        -11   -1    0    0    0    0  0.00000000000E+00  0.00000000000E+00  0.45593999997E+02  0.45594000000E+02  0.51100000000E-03 0.  1.
         11   -1    0    0    0    0 -0.00000000000E+00 -0.00000000000E+00 -0.45593999997E+02  0.45594000000E+02  0.51100000000E-03 0. -1.
    9900012    2    1    2    0    0  0.23481178079E+02  0.15946837450E+02  0.32832241476E+02  0.47787269258E+02  0.19999991853E+02 0.  0.
         12    1    1    2    0    0 -0.23481178079E+02 -0.15946837450E+02 -0.32832241476E+02  0.43400730742E+02  0.00000000000E+00 0. -1.
         11    1    3    3    0    0  0.67444926098E+01  0.75892821754E+01  0.63457670537E+00  0.10172908746E+02  0.51100000000E-03 0. -1.
        -11    1    3    3    0    0  0.95921628400E+01  0.74630448527E+01  0.21950076119E+02  0.25090087053E+02  0.51100000000E-03 0.  1.
         12    1    3    3    0    0  0.71445226290E+01  0.89451042169E+00  0.10247588652E+02  0.12524273459E+02  0.00000000000E+00 0. -1.
</event>
<event>
 7    1  0.2706925E-010  0.4778727E+02  0.7816164E-02  0.1312668E+00
        -11   -1    0    0    0    0  0.00000000000E+00  0.00000000000E+00  0.45593999997E+02  0.45594000000E+02  0.51100000000E-03 0.  1.
         11   -1    0    0    0    0 -0.00000000000E+00 -0.00000000000E+00 -0.45593999997E+02  0.45594000000E+02  0.51100000000E-03 0. -1.
    9900012    2    1    2    0    0 -0.26553911077E+02  0.28493297026E+02 -0.19147978713E+02  0.47787271231E+02  0.20000000851E+02 0.  0.
         12    1    1    2    0    0  0.26553911077E+02 -0.28493297026E+02  0.19147978713E+02  0.43400728769E+02  0.00000000000E+00 0. -1.
         11    1    3    3    0    0 -0.19927549733E+00  0.36460481595E+01 -0.17236603917E+01  0.40378686596E+01  0.51100000000E-03 0. -1.
        -11    1    3    3    0    0 -0.24382483028E+01  0.15828437462E+01 -0.88286465137E+01  0.92949152032E+01  0.51100000000E-03 0.  1.
        -12    1    3    3    0    0 -0.23916387277E+02  0.23264405120E+02 -0.85956718074E+01  0.34454487368E+02  0.00000000000E+00 0.  1.
</event>
<event>
 7    1  0.2706925E-010  0.4778727E+02  0.7816164E-02  0.1312668E+00
        -11   -1    0    0    0    0  0.00000000000E+00  0.00000000000E+00  0.45593999997E+02  0.45594000000E+02  0.51100000000E-03 0.  1.
         11   -1    0    0    0    0 -0.00000000000E+00 -0.00000000000E+00 -0.45593999997E+02  0.45594000000E+02  0.51100000000E-03 0. -1.
    9900012    2    1    2    0    0  0.30750461736E+02 -0.21054192650E+02  0.22243058419E+02  0.47787267599E+02  0.19999984291E+02 0.  0.
         12    1    1    2    0    0 -0.30750461736E+02  0.21054192650E+02 -0.22243058419E+02  0.43400732401E+02  0.00000000000E+00 0. -1.
         11    1    3    3    0    0  0.67670104797E+01 -0.63814256663E+01  0.13193921594E+02  0.16142942472E+02  0.51100000000E-03 0. -1.
        -11    1    3    3    0    0  0.21417252595E+02 -0.16361470731E+02  0.94188948457E+01  0.28550166612E+02  0.51100000000E-03 0.  1.
        -12    1    3    3    0    0  0.25661986615E+01  0.16887037478E+01 -0.36975802128E+00  0.30941585144E+01  0.00000000000E+00 0.  1.
</event>
<event>
 7    1  0.2706925E-010  0.4778727E+02  0.7816164E-02  0.1312668E+00
        -11   -1    0    0    0    0  0.00000000000E+00  0.00000000000E+00  0.45593999997E+02  0.45594000000E+02  0.51100000000E-03 0. -1.
         11   -1    0    0    0    0 -0.00000000000E+00 -0.00000000000E+00 -0.45593999997E+02  0.45594000000E+02  0.51100000000E-03 0.  1.
    9900012    2    1    2    0    0  0.20435234511E+02 -0.32927730711E+02 -0.19539420350E+02  0.47787271815E+02  0.20000003515E+02 0.  0.
         12    1    1    2    0    0 -0.20435234511E+02  0.32927730711E+02  0.19539420350E+02  0.43400728185E+02  0.00000000000E+00 0. -1.
         11    1    3    3    0    0  0.30855908089E+01 -0.17923391483E+01 -0.10266595170E+02  0.10869053634E+02  0.51100000000E-03 0. -1.
        -11    1    3    3    0    0  0.12182816138E+02 -0.21725068456E+02 -0.76818327087E+01  0.26065497549E+02  0.51100000000E-03 0.  1.
         12    1    3    3    0    0  0.51668275649E+01 -0.94103231074E+01 -0.15909924716E+01  0.10852720632E+02  0.00000000000E+00 0. -1.
</event>
<event>
 7    1  0.2706925E-010  0.4778727E+02  0.7816164E-02  0.1312668E+00
        -11   -1    0    0    0    0  0.00000000000E+00  0.00000000000E+00  0.45593999997E+02  0.45594000000E+02  0.51100000000E-03 0.  1.
         11   -1    0    0    0    0 -0.00000000000E+00 -0.00000000000E+00 -0.45593999997E+02  0.45594000000E+02  0.51100000000E-03 0. -1.
    9900012    2    1    2    0    0 -0.24979285423E+02  0.16376205022E+02  0.31487757387E+02  0.47787266638E+02  0.19999979908E+02 0.  0.
         12    1    1    2    0    0  0.24979285423E+02 -0.16376205022E+02 -0.31487757387E+02  0.43400733362E+02  0.00000000000E+00 0. -1.
         11    1    3    3    0    0 -0.14908036989E+02  0.61898669170E+01  0.75123661785E+01  0.17804484412E+02  0.51100000000E-03 0. -1.
        -11    1    3    3    0    0 -0.89095337484E+01  0.32449131671E+01  0.75758566490E+01  0.12136838851E+02  0.51100000000E-03 0.  1.
         12    1    3    3    0    0 -0.11617146854E+01  0.69414249375E+01  0.16399534559E+02  0.17845943375E+02  0.00000000000E+00 0. -1.
</event>
<event>
 7    1  0.2706925E-010  0.4778729E+02  0.7816164E-02  0.1312668E+00
        -11   -1    0    0    0    0  0.00000000000E+00  0.00000000000E+00  0.45593999997E+02  0.45594000000E+02  0.51100000000E-03 0.  1.
         11   -1    0    0    0    0 -0.00000000000E+00 -0.00000000000E+00 -0.45593999997E+02  0.45594000000E+02  0.51100000000E-03 0. -1.
    9900012    2    1    2    0    0 -0.25758270904E+02 -0.11736785138E+02  0.32899564670E+02  0.47787285711E+02  0.20000066870E+02 0.  0.
         12    1    1    2    0    0  0.25758270904E+02  0.11736785138E+02 -0.32899564670E+02  0.43400714289E+02  0.00000000000E+00 0. -1.
         11    1    3    3    0    0 -0.45075071800E+01  0.34374557772E+01  0.10997247062E+01  0.57743499971E+01  0.51100000000E-03 0. -1.
        -11    1    3    3    0    0 -0.10967387705E+02 -0.11447405221E+02  0.14155425958E+02  0.21253300066E+02  0.51100000000E-03 0.  1.
         12    1    3    3    0    0 -0.10283376020E+02 -0.37268356941E+01  0.17644414005E+02  0.20759635648E+02  0.00000000000E+00 0. -1.
</event>
<event>
 7    1  0.2706925E-010  0.4778727E+02  0.7816164E-02  0.1312668E+00
        -11   -1    0    0    0    0  0.00000000000E+00  0.00000000000E+00  0.45593999997E+02  0.45594000000E+02  0.51100000000E-03 0.  1.
         11   -1    0    0    0    0 -0.00000000000E+00 -0.00000000000E+00 -0.45593999997E+02  0.45594000000E+02  0.51100000000E-03 0. -1.
    9900012    2    1    2    0    0 -0.11449686598E+02  0.10555518205E+02  0.40510600623E+02  0.47787273617E+02  0.20000011729E+02 0.  0.
         12    1    1    2    0    0  0.11449686598E+02 -0.10555518205E+02 -0.40510600623E+02  0.43400726383E+02  0.00000000000E+00 0. -1.
         11    1    3    3    0    0 -0.85679765153E+01 -0.44338133073E+00  0.61826243547E+01  0.10575048593E+02  0.51100000000E-03 0. -1.
        -11    1    3    3    0    0  0.10159907605E+01  0.14968232016E+01  0.16798492698E+02  0.16895622927E+02  0.51100000000E-03 0.  1.
         12    1    3    3    0    0 -0.38977008428E+01  0.95020763341E+01  0.17529483570E+02  0.20316602097E+02  0.00000000000E+00 0. -1.
</event>
<event>
 7    1  0.2706925E-010  0.4778728E+02  0.7816164E-02  0.1312668E+00
        -11   -1    0    0    0    0  0.00000000000E+00  0.00000000000E+00  0.45593999997E+02  0.45594000000E+02  0.51100000000E-03 0.  1.
         11   -1    0    0    0    0 -0.00000000000E+00 -0.00000000000E+00 -0.45593999997E+02  0.45594000000E+02  0.51100000000E-03 0. -1.
    9900012    2    1    2    0    0  0.28558740593E+02  0.32677819606E+02 -0.42518141704E+00  0.47787281830E+02  0.20000049176E+02 0.  0.
         12    1    1    2    0    0 -0.28558740593E+02 -0.32677819606E+02  0.42518141704E+00  0.43400718170E+02  0.00000000000E+00 0. -1.
         11    1    3    3    0    0  0.29295773662E+01  0.71127852434E+00 -0.78194693777E+00  0.31144472958E+01  0.51100000000E-03 0. -1.
        -11    1    3    3    0    0  0.14716713333E+02  0.11403657383E+02 -0.75459529898E+01  0.20088963633E+02  0.51100000000E-03 0.  1.
        -12    1    3    3    0    0  0.10912449893E+02  0.20562883698E+02  0.79027185105E+01  0.24583870902E+02  0.00000000000E+00 0.  1.
</event>
<event>
 7    1  0.2706925E-010  0.4778727E+02  0.7816164E-02  0.1312668E+00
        -11   -1    0    0    0    0  0.00000000000E+00  0.00000000000E+00  0.45593999997E+02  0.45594000000E+02  0.51100000000E-03 0.  1.
         11   -1    0    0    0    0 -0.00000000000E+00 -0.00000000000E+00 -0.45593999997E+02  0.45594000000E+02  0.51100000000E-03 0. -1.
    9900012    2    1    2    0    0 -0.90134356484E+00  0.32430177958E+02  0.28828709716E+02  0.47787269978E+02  0.19999995136E+02 0.  0.
         12    1    1    2    0    0  0.90134356484E+00 -0.32430177958E+02 -0.28828709716E+02  0.43400730022E+02  0.00000000000E+00 0. -1.
         11    1    3    3    0    0  0.25827593107E+01  0.28002679937E+01  0.10903898243E+02  0.11550201022E+02  0.51100000000E-03 0. -1.
        -11    1    3    3    0    0 -0.80307886421E+00  0.28480229162E+02  0.16995328232E+02  0.33175436255E+02  0.51100000000E-03 0.  1.
        -12    1    3    3    0    0 -0.26810240113E+01  0.11496808024E+01  0.92948324045E+00  0.30616327002E+01  0.00000000000E+00 0.  1.
</event>
<event>
 7    1  0.2706925E-010  0.4778727E+02  0.7816164E-02  0.1312668E+00
        -11   -1    0    0    0    0  0.00000000000E+00  0.00000000000E+00  0.45593999997E+02  0.45594000000E+02  0.51100000000E-03 0. -1.
         11   -1    0    0    0    0 -0.00000000000E+00 -0.00000000000E+00 -0.45593999997E+02  0.45594000000E+02  0.51100000000E-03 0.  1.
    9900012    2    1    2    0    0 -0.18187854396E+02 -0.31205014259E+02 -0.24063920018E+02  0.47787271791E+02  0.20000003402E+02 0.  0.
         12    1    1    2    0    0  0.18187854396E+02  0.31205014259E+02  0.24063920018E+02  0.43400728209E+02  0.00000000000E+00 0. -1.
         11    1    3    3    0    0 -0.98562471266E+01 -0.79618874183E+01 -0.44276428888E+01  0.13421672045E+02  0.51100000000E-03 0. -1.
        -11    1    3    3    0    0 -0.12951682215E+01 -0.17596048003E+02 -0.17983255715E+02  0.25193170750E+02  0.51100000000E-03 0.  1.
        -12    1    3    3    0    0 -0.70364390482E+01 -0.56470788380E+01 -0.16530214142E+01  0.91724289955E+01  0.00000000000E+00 0.  1.
</event>
<event>
 7    1  0.2706925E-010  0.4778727E+02  0.7816164E-02  0.1312668E+00
        -11   -1    0    0    0    0  0.00000000000E+00  0.00000000000E+00  0.45593999997E+02  0.45594000000E+02  0.51100000000E-03 0. -1.
         11   -1    0    0    0    0 -0.00000000000E+00 -0.00000000000E+00 -0.45593999997E+02  0.45594000000E+02  0.51100000000E-03 0.  1.
    9900012    2    1    2    0    0 -0.28951355038E+02 -0.20836123110E+02 -0.24724448707E+02  0.47787270183E+02  0.19999996073E+02 0.  0.
         12    1    1    2    0    0  0.28951355038E+02  0.20836123110E+02  0.24724448707E+02  0.43400729817E+02  0.00000000000E+00 0. -1.
         11    1    3    3    0    0 -0.20508229389E+02 -0.95796727645E+01 -0.12832582199E+02  0.26019853365E+02  0.51100000000E-03 0.  1.
        -11    1    3    3    0    0  0.17557939016E+01 -0.68041961241E+01 -0.36435573004E+01  0.79155168613E+01  0.51100000000E-03 0. -1.
         12    1    3    3    0    0 -0.10198919550E+02 -0.44522542218E+01 -0.82483092075E+01  0.13851899957E+02  0.00000000000E+00 0. -1.
</event>
<event>
 7    1  0.2706925E-010  0.4778727E+02  0.7816164E-02  0.1312668E+00
        -11   -1    0    0    0    0  0.00000000000E+00  0.00000000000E+00  0.45593999997E+02  0.45594000000E+02  0.51100000000E-03 0.  1.
         11   -1    0    0    0    0 -0.00000000000E+00 -0.00000000000E+00 -0.45593999997E+02  0.45594000000E+02  0.51100000000E-03 0. -1.
    9900012    2    1    2    0    0 -0.48810862778E+01 -0.89822747860E+01  0.42179578960E+02  0.47787272531E+02  0.20000006779E+02 0.  0.
         12    1    1    2    0    0  0.48810862778E+01  0.89822747860E+01 -0.42179578960E+02  0.43400727469E+02  0.00000000000E+00 0. -1.
         11    1    3    3    0    0 -0.52747851183E+01 -0.10580932958E+02  0.22632326748E+02  0.25534324244E+02  0.51100000000E-03 0. -1.
        -11    1    3    3    0    0 -0.29565413499E+01  0.50068363358E+01  0.11694065110E+02  0.13059889200E+02  0.51100000000E-03 0.  1.
         12    1    3    3    0    0  0.33502401904E+01 -0.34081781637E+01  0.78531871018E+01  0.91930590874E+01  0.00000000000E+00 0. -1.
</event>
<event>
 7    1  0.2927813E-010  0.4778726E+02  0.7816164E-02  0.1312668E+00
        -11   -1    0    0    0    0  0.00000000000E+00  0.00000000000E+00  0.45593999997E+02  0.45594000000E+02  0.51100000000E-03 0.  1.
         11   -1    0    0    0    0 -0.00000000000E+00 -0.00000000000E+00 -0.45593999997E+02  0.45594000000E+02  0.51100000000E-03 0. -1.
    9900012    2    1    2    0    0 -0.12579232141E+02  0.35615790416E+02  0.21375279478E+02  0.47787260594E+02  0.19999952353E+02 0.  0.
         12    1    1    2    0    0  0.12579232141E+02 -0.35615790416E+02 -0.21375279478E+02  0.43400739406E+02  0.00000000000E+00 0. -1.
         11    1    3    3    0    0  0.87092922982E+00  0.20401639388E+01 -0.17316794101E+01  0.28141607028E+01  0.51100000000E-03 0. -1.
        -11    1    3    3    0    0 -0.14283633462E+02  0.25737915443E+02  0.13058715595E+02  0.32202368383E+02  0.51100000000E-03 0.  1.
        -12    1    3    3    0    0  0.83347209113E+00  0.78377110341E+01  0.10048243292E+02  0.12770731508E+02  0.00000000000E+00 0.  1.
</event>
<event>
 7    1  0.2706925E-010  0.4778727E+02  0.7816164E-02  0.1312668E+00
        -11   -1    0    0    0    0  0.00000000000E+00  0.00000000000E+00  0.45593999997E+02  0.45594000000E+02  0.51100000000E-03 0. -1.
         11   -1    0    0    0    0 -0.00000000000E+00 -0.00000000000E+00 -0.45593999997E+02  0.45594000000E+02  0.51100000000E-03 0.  1.
    9900012    2    1    2    0    0 -0.26209773177E+02  0.34402237380E+02 -0.36272832057E+01  0.47787270395E+02  0.19999997041E+02 0.  0.
         12    1    1    2    0    0  0.26209773177E+02 -0.34402237380E+02  0.36272832057E+01  0.43400729605E+02  0.00000000000E+00 0. -1.
         11    1    3    3    0    0 -0.77161273140E+01  0.43616664873E+01  0.18631391573E+01  0.90572646562E+01  0.51100000000E-03 0. -1.
        -11    1    3    3    0    0  0.59785797892E+00  0.53812156844E+01  0.32848523853E+01  0.63328644277E+01  0.51100000000E-03 0.  1.
        -12    1    3    3    0    0 -0.19091503842E+02  0.24659355208E+02 -0.87752747483E+01  0.32397141312E+02  0.00000000000E+00 0.  1.
</event>
<event>
 7    1  0.2706925E-010  0.4778729E+02  0.7816164E-02  0.1312668E+00
        -11   -1    0    0    0    0  0.00000000000E+00  0.00000000000E+00  0.45593999997E+02  0.45594000000E+02  0.51100000000E-03 0. -1.
         11   -1    0    0    0    0 -0.00000000000E+00 -0.00000000000E+00 -0.45593999997E+02  0.45594000000E+02  0.51100000000E-03 0.  1.
    9900012    2    1    2    0    0  0.12984176234E+02  0.59312073994E+00 -0.41408710700E+02  0.47787286336E+02  0.20000069720E+02 0.  0.
         12    1    1    2    0    0 -0.12984176234E+02 -0.59312073994E+00  0.41408710700E+02  0.43400713664E+02  0.00000000000E+00 0. -1.
         11    1    3    3    0    0 -0.22577381638E+01  0.11735761596E+00 -0.72099570908E+01  0.75560992542E+01  0.51100000000E-03 0. -1.
        -11    1    3    3    0    0  0.88939787884E+01  0.74768091294E+01 -0.16714494773E+02  0.20356322586E+02  0.51100000000E-03 0.  1.
        -12    1    3    3    0    0  0.63479356089E+01 -0.70010460055E+01 -0.17484258836E+02  0.19874864496E+02  0.00000000000E+00 0.  1.
</event>
<event>
 7    1  0.2706925E-010  0.4778727E+02  0.7816164E-02  0.1312668E+00
        -11   -1    0    0    0    0  0.00000000000E+00  0.00000000000E+00  0.45593999997E+02  0.45594000000E+02  0.51100000000E-03 0.  1.
         11   -1    0    0    0    0 -0.00000000000E+00 -0.00000000000E+00 -0.45593999997E+02  0.45594000000E+02  0.51100000000E-03 0. -1.
    9900012    2    1    2    0    0 -0.11365992466E+02 -0.17880365388E+02  0.37877836490E+02  0.47787265579E+02  0.19999975082E+02 0.  0.
         12    1    1    2    0    0  0.11365992466E+02  0.17880365388E+02 -0.37877836490E+02  0.43400734421E+02  0.00000000000E+00 0. -1.
         11    1    3    3    0    0  0.38130589328E+01 -0.10421632959E+02  0.20864534269E+02  0.23632152726E+02  0.51100000000E-03 0. -1.
        -11    1    3    3    0    0 -0.12047626189E+02 -0.70727319985E+01  0.13396012477E+02  0.19355153971E+02  0.51100000000E-03 0.  1.
         12    1    3    3    0    0 -0.31314252098E+01 -0.38600043042E+00  0.36172897432E+01  0.47999588814E+01  0.00000000000E+00 0. -1.
</event>
<event>
 7    1  0.2706925E-010  0.4778728E+02  0.7816164E-02  0.1312668E+00
        -11   -1    0    0    0    0  0.00000000000E+00  0.00000000000E+00  0.45593999997E+02  0.45594000000E+02  0.51100000000E-03 0. -1.
         11   -1    0    0    0    0 -0.00000000000E+00 -0.00000000000E+00 -0.45593999997E+02  0.45594000000E+02  0.51100000000E-03 0.  1.
    9900012    2    1    2    0    0  0.34649782078E+02 -0.13959447593E+02 -0.22094099448E+02  0.47787276439E+02  0.20000024598E+02 0.  0.
         12    1    1    2    0    0 -0.34649782078E+02  0.13959447593E+02  0.22094099448E+02  0.43400723561E+02  0.00000000000E+00 0. -1.
         11    1    3    3    0    0  0.62760983003E+01 -0.35018590818E+01 -0.11901110017E+02  0.13902835926E+02  0.51100000000E-03 0. -1.
        -11    1    3    3    0    0  0.18479697272E+02 -0.26342116312E+01 -0.18420554192E+01  0.18757170645E+02  0.51100000000E-03 0.  1.
        -12    1    3    3    0    0  0.98939865058E+01 -0.78233768805E+01 -0.83509340117E+01  0.15127269868E+02  0.00000000000E+00 0.  1.
</event>
<event>
 7    1  0.2706925E-010  0.4778727E+02  0.7816164E-02  0.1312668E+00
        -11   -1    0    0    0    0  0.00000000000E+00  0.00000000000E+00  0.45593999997E+02  0.45594000000E+02  0.51100000000E-03 0.  1.
         11   -1    0    0    0    0 -0.00000000000E+00 -0.00000000000E+00 -0.45593999997E+02  0.45594000000E+02  0.51100000000E-03 0. -1.
    9900012    2    1    2    0    0 -0.31426669503E+02 -0.86228578693E+01  0.28664157262E+02  0.47787272525E+02  0.20000006749E+02 0.  0.
         12    1    1    2    0    0  0.31426669503E+02  0.86228578693E+01 -0.28664157262E+02  0.43400727475E+02  0.00000000000E+00 0. -1.
         11    1    3    3    0    0 -0.19534404548E+01 -0.36758664375E+01  0.13209938628E+02  0.13850285286E+02  0.51100000000E-03 0. -1.
        -11    1    3    3    0    0 -0.15758035755E+02 -0.20637627633E+01  0.10608321669E+02  0.19107885715E+02  0.51100000000E-03 0.  1.
         12    1    3    3    0    0 -0.13715193293E+02 -0.28832286684E+01  0.48458969647E+01  0.14829101524E+02  0.00000000000E+00 0. -1.
</event>
<event>
 7    1  0.2706925E-010  0.4778727E+02  0.7816164E-02  0.1312668E+00
        -11   -1    0    0    0    0  0.00000000000E+00  0.00000000000E+00  0.45593999997E+02  0.45594000000E+02  0.51100000000E-03 0. -1.
         11   -1    0    0    0    0 -0.00000000000E+00 -0.00000000000E+00 -0.45593999997E+02  0.45594000000E+02  0.51100000000E-03 0.  1.
    9900012    2    1    2    0    0  0.28209639647E+02  0.26647257723E+02 -0.19436129755E+02  0.47787271284E+02  0.20000001094E+02 0.  0.
         12    1    1    2    0    0 -0.28209639647E+02 -0.26647257723E+02  0.19436129755E+02  0.43400728716E+02  0.00000000000E+00 0. -1.
         11    1    3    3    0    0  0.69704047720E+01  0.53499520175E+00  0.20456513947E+01  0.72840546704E+01  0.51100000000E-03 0. -1.
        -11    1    3    3    0    0  0.17830751312E+02  0.17328740596E+02 -0.16554198303E+02  0.29870762038E+02  0.51100000000E-03 0.  1.
        -12    1    3    3    0    0  0.34084835636E+01  0.87835219248E+01 -0.49275828465E+01  0.10632454576E+02  0.00000000000E+00 0.  1.
</event>
<event>
 7    1  0.2706925E-010  0.4778726E+02  0.7816164E-02  0.1312668E+00
        -11   -1    0    0    0    0  0.00000000000E+00  0.00000000000E+00  0.45593999997E+02  0.45594000000E+02  0.51100000000E-03 0. -1.
         11   -1    0    0    0    0 -0.00000000000E+00 -0.00000000000E+00 -0.45593999997E+02  0.45594000000E+02  0.51100000000E-03 0.  1.
    9900012    2    1    2    0    0  0.75613939281E+01  0.28590911796E+02 -0.31764900246E+02  0.47787264947E+02  0.19999972202E+02 0.  0.
         12    1    1    2    0    0 -0.75613939281E+01 -0.28590911796E+02  0.31764900246E+02  0.43400735053E+02  0.00000000000E+00 0. -1.
         11    1    3    3    0    0  0.27759955918E+01 -0.21019666693E+01 -0.26373196737E+01  0.43680511360E+01  0.51100000000E-03 0. -1.
        -11    1    3    3    0    0  0.71071024248E+01  0.19730311566E+02 -0.19751408988E+02  0.28808232445E+02  0.51100000000E-03 0.  1.
         12    1    3    3    0    0 -0.23217040885E+01  0.10962566900E+02 -0.93761715843E+01  0.14610981366E+02  0.00000000000E+00 0. -1.
</event>
<event>
 7    1  0.2706925E-010  0.4778727E+02  0.7816164E-02  0.1312668E+00
        -11   -1    0    0    0    0  0.00000000000E+00  0.00000000000E+00  0.45593999997E+02  0.45594000000E+02  0.51100000000E-03 0.  1.
         11   -1    0    0    0    0 -0.00000000000E+00 -0.00000000000E+00 -0.45593999997E+02  0.45594000000E+02  0.51100000000E-03 0. -1.
    9900012    2    1    2    0    0 -0.20324726075E+02 -0.38317310570E+02 -0.15206695170E+01  0.47787271722E+02  0.20000003088E+02 0.  0.
         12    1    1    2    0    0  0.20324726075E+02  0.38317310570E+02  0.15206695170E+01  0.43400728278E+02  0.00000000000E+00 0. -1.
         11    1    3    3    0    0 -0.19090204865E+02 -0.20470267323E+02 -0.43597571060E+00  0.27993889354E+02  0.51100000000E-03 0. -1.
        -11    1    3    3    0    0 -0.37599951331E+01 -0.45727258824E+01 -0.20031073360E+01  0.62497859689E+01  0.51100000000E-03 0.  1.
         12    1    3    3    0    0  0.25254739230E+01 -0.13274317364E+02  0.91841352952E+00  0.13543596399E+02  0.00000000000E+00 0. -1.
</event>
<event>
 7    1  0.2706925E-010  0.4778729E+02  0.7816164E-02  0.1312668E+00
        -11   -1    0    0    0    0  0.00000000000E+00  0.00000000000E+00  0.45593999997E+02  0.45594000000E+02  0.51100000000E-03 0.  1.
         11   -1    0    0    0    0 -0.00000000000E+00 -0.00000000000E+00 -0.45593999997E+02  0.45594000000E+02  0.51100000000E-03 0. -1.
    9900012    2    1    2    0    0 -0.13133852135E+02  0.35605626350E+02  0.21056183402E+02  0.47787290800E+02  0.20000090071E+02 0.  0.
         12    1    1    2    0    0  0.13133852135E+02 -0.35605626350E+02 -0.21056183402E+02  0.43400709200E+02  0.00000000000E+00 0. -1.
         11    1    3    3    0    0 -0.57253877855E+01  0.40365011778E+01  0.16303137179E+01  0.71924495224E+01  0.51100000000E-03 0. -1.
        -11    1    3    3    0    0 -0.76985636552E+01  0.89600243519E+01  0.11891067137E+02  0.16761485514E+02  0.51100000000E-03 0.  1.
        -12    1    3    3    0    0  0.29009930529E+00  0.22609100820E+02  0.75348025471E+01  0.23833355763E+02  0.00000000000E+00 0.  1.
</event>
<event>
 7    1  0.2706925E-010  0.4778728E+02  0.7816164E-02  0.1312668E+00
        -11   -1    0    0    0    0  0.00000000000E+00  0.00000000000E+00  0.45593999997E+02  0.45594000000E+02  0.51100000000E-03 0.  1.
         11   -1    0    0    0    0 -0.00000000000E+00 -0.00000000000E+00 -0.45593999997E+02  0.45594000000E+02  0.51100000000E-03 0. -1.
    9900012    2    1    2    0    0  0.38946444755E+02  0.12187131341E+02  0.14774002556E+02  0.47787275572E+02  0.20000020643E+02 0.  0.
         12    1    1    2    0    0 -0.38946444755E+02 -0.12187131341E+02 -0.14774002556E+02  0.43400724428E+02  0.00000000000E+00 0. -1.
         11    1    3    3    0    0  0.29296449735E+02  0.75168000279E+01  0.10822376468E+02  0.32123326142E+02  0.51100000000E-03 0. -1.
        -11    1    3    3    0    0  0.90225820892E+01  0.19067215796E+01  0.69430210761E+01  0.11543314804E+02  0.51100000000E-03 0.  1.
         12    1    3    3    0    0  0.62741292988E+00  0.27636097337E+01 -0.29913949879E+01  0.41206346257E+01  0.00000000000E+00 0. -1.
</event>
<event>
 7    1  0.2706925E-010  0.4778727E+02  0.7816164E-02  0.1312668E+00
        -11   -1    0    0    0    0  0.00000000000E+00  0.00000000000E+00  0.45593999997E+02  0.45594000000E+02  0.51100000000E-03 0.  1.
         11   -1    0    0    0    0 -0.00000000000E+00 -0.00000000000E+00 -0.45593999997E+02  0.45594000000E+02  0.51100000000E-03 0. -1.
    9900012    2    1    2    0    0  0.10692979602E+02  0.17522561858E+02  0.38239290967E+02  0.47787270047E+02  0.19999995451E+02 0.  0.
         12    1    1    2    0    0 -0.10692979602E+02 -0.17522561858E+02 -0.38239290967E+02  0.43400729953E+02  0.00000000000E+00 0. -1.
         11    1    3    3    0    0  0.75696304752E+01  0.65919560789E+00  0.95619112987E+01  0.12213271156E+02  0.51100000000E-03 0. -1.
        -11    1    3    3    0    0 -0.64458079356E+00  0.14864699637E+02  0.14525652268E+02  0.20793493063E+02  0.51100000000E-03 0.  1.
        -12    1    3    3    0    0  0.37679299207E+01  0.19986666136E+01  0.14151727401E+02  0.14780505828E+02  0.00000000000E+00 0.  1.
</event>
<event>
 7    1  0.2706925E-010  0.4778727E+02  0.7816164E-02  0.1312668E+00
        -11   -1    0    0    0    0  0.00000000000E+00  0.00000000000E+00  0.45593999997E+02  0.45594000000E+02  0.51100000000E-03 0.  1.
         11   -1    0    0    0    0 -0.00000000000E+00 -0.00000000000E+00 -0.45593999997E+02  0.45594000000E+02  0.51100000000E-03 0. -1.
    9900012    2    1    2    0    0  0.24556029734E+02 -0.36844977824E+01  0.35595637175E+02  0.47787268369E+02  0.19999987803E+02 0.  0.
         12    1    1    2    0    0 -0.24556029734E+02  0.36844977824E+01 -0.35595637175E+02  0.43400731631E+02  0.00000000000E+00 0. -1.
         11    1    3    3    0    0  0.16215162458E+02 -0.35767210919E+01  0.98581889886E+01  0.19310834205E+02  0.51100000000E-03 0. -1.
        -11    1    3    3    0    0  0.10202790294E+02  0.39170593585E+00  0.22503814628E+02  0.24711779305E+02  0.51100000000E-03 0.  1.
        -12    1    3    3    0    0 -0.18619230183E+01 -0.49948262636E+00  0.32336335579E+01  0.37646548589E+01  0.00000000000E+00 0.  1.
</event>
<event>
 7    1  0.2706925E-010  0.4778727E+02  0.7816164E-02  0.1312668E+00
        -11   -1    0    0    0    0  0.00000000000E+00  0.00000000000E+00  0.45593999997E+02  0.45594000000E+02  0.51100000000E-03 0.  1.
         11   -1    0    0    0    0 -0.00000000000E+00 -0.00000000000E+00 -0.45593999997E+02  0.45594000000E+02  0.51100000000E-03 0. -1.
    9900012    2    1    2    0    0 -0.23255142578E+02 -0.11852784518E+02  0.34674675016E+02  0.47787271381E+02  0.20000001536E+02 0.  0.
         12    1    1    2    0    0  0.23255142578E+02  0.11852784518E+02 -0.34674675016E+02  0.43400728619E+02  0.00000000000E+00 0. -1.
         11    1    3    3    0    0 -0.66528634769E+01 -0.45217988761E+01  0.62269661344E+00  0.80681477956E+01  0.51100000000E-03 0. -1.
        -11    1    3    3    0    0 -0.16777479716E+02 -0.68194409631E+01  0.34534039018E+02  0.38994723385E+02  0.51100000000E-03 0.  1.
        -12    1    3    3    0    0  0.17520061509E+00 -0.51154467872E+00 -0.48206061573E+00  0.72440020092E+00  0.00000000000E+00 0.  1.
</event>
<event>
 7    1  0.2706925E-010  0.4778727E+02  0.7816164E-02  0.1312668E+00
        -11   -1    0    0    0    0  0.00000000000E+00  0.00000000000E+00  0.45593999997E+02  0.45594000000E+02  0.51100000000E-03 0.  1.
         11   -1    0    0    0    0 -0.00000000000E+00 -0.00000000000E+00 -0.45593999997E+02  0.45594000000E+02  0.51100000000E-03 0. -1.
    9900012    2    1    2    0    0  0.35435996931E+02  0.18456597886E+02  0.16948960222E+02  0.47787272625E+02  0.20000007208E+02 0.  0.
         12    1    1    2    0    0 -0.35435996931E+02 -0.18456597886E+02 -0.16948960222E+02  0.43400727375E+02  0.00000000000E+00 0. -1.
         11    1    3    3    0    0  0.85391508546E+01  0.12684085163E+02  0.11114411411E+02  0.18903260433E+02  0.51100000000E-03 0. -1.
        -11    1    3    3    0    0  0.26239996673E+02  0.65219760544E+01  0.63324142659E+01  0.27770003020E+02  0.51100000000E-03 0.  1.
        -12    1    3    3    0    0  0.65684940426E+00 -0.74946333148E+00 -0.49786545462E+00  0.11140091723E+01  0.00000000000E+00 0.  1.
</event>
<event>
 7    1  0.2706925E-010  0.4778727E+02  0.7816164E-02  0.1312668E+00
        -11   -1    0    0    0    0  0.00000000000E+00  0.00000000000E+00  0.45593999997E+02  0.45594000000E+02  0.51100000000E-03 0. -1.
         11   -1    0    0    0    0 -0.00000000000E+00 -0.00000000000E+00 -0.45593999997E+02  0.45594000000E+02  0.51100000000E-03 0.  1.
    9900012    2    1    2    0    0  0.39693975711E+02  0.22955756803E+01 -0.17399483702E+02  0.47787269493E+02  0.19999992925E+02 0.  0.
         12    1    1    2    0    0 -0.39693975711E+02 -0.22955756803E+01  0.17399483702E+02  0.43400730507E+02  0.00000000000E+00 0. -1.
         11    1    3    3    0    0  0.16752923458E+02  0.83404938937E+01 -0.56227738927E+01  0.19540723357E+02  0.51100000000E-03 0. -1.
        -11    1    3    3    0    0  0.85105123039E+01 -0.14419629306E+01 -0.96563969458E+01  0.12951991314E+02  0.51100000000E-03 0.  1.
         12    1    3    3    0    0  0.14430539949E+02 -0.46029552828E+01 -0.21203128639E+01  0.15294554822E+02  0.00000000000E+00 0. -1.
</event>
<event>
 7    1  0.2706925E-010  0.4778727E+02  0.7816164E-02  0.1312668E+00
        -11   -1    0    0    0    0  0.00000000000E+00  0.00000000000E+00  0.45593999997E+02  0.45594000000E+02  0.51100000000E-03 0.  1.
         11   -1    0    0    0    0 -0.00000000000E+00 -0.00000000000E+00 -0.45593999997E+02  0.45594000000E+02  0.51100000000E-03 0. -1.
    9900012    2    1    2    0    0 -0.49999537353E+01  0.95525570632E+01  0.42040126055E+02  0.47787273249E+02  0.20000010053E+02 0.  0.
         12    1    1    2    0    0  0.49999537353E+01 -0.95525570632E+01 -0.42040126055E+02  0.43400726751E+02  0.00000000000E+00 0. -1.
         11    1    3    3    0    0  0.33314029146E+01 -0.39810366105E+01  0.12547650770E+02  0.13579044074E+02  0.51100000000E-03 0. -1.
        -11    1    3    3    0    0 -0.67313206299E+01  0.13005140415E+02  0.28941496630E+02  0.32435390888E+02  0.51100000000E-03 0.  1.
        -12    1    3    3    0    0 -0.16000360200E+01  0.52845325825E+00  0.55097865510E+00  0.17728382864E+01  0.00000000000E+00 0.  1.
</event>
<event>
 7    1  0.2706925E-010  0.4778727E+02  0.7816164E-02  0.1312668E+00
        -11   -1    0    0    0    0  0.00000000000E+00  0.00000000000E+00  0.45593999997E+02  0.45594000000E+02  0.51100000000E-03 0.  1.
         11   -1    0    0    0    0 -0.00000000000E+00 -0.00000000000E+00 -0.45593999997E+02  0.45594000000E+02  0.51100000000E-03 0. -1.
    9900012    2    1    2    0    0  0.13220008237E+01 -0.42329770405E+02  0.94903398256E+01  0.47787266150E+02  0.19999977686E+02 0.  0.
         12    1    1    2    0    0 -0.13220008237E+01  0.42329770405E+02 -0.94903398256E+01  0.43400733850E+02  0.00000000000E+00 0. -1.
         11    1    3    3    0    0  0.87619534623E+01 -0.25187898582E+02  0.43393660244E+01  0.27019107336E+02  0.51100000000E-03 0. -1.
        -11    1    3    3    0    0 -0.53390055576E+01 -0.14450242556E+02  0.69596786618E+01  0.16904189350E+02  0.51100000000E-03 0.  1.
        -12    1    3    3    0    0 -0.21009470810E+01 -0.26916292669E+01 -0.18087048605E+01  0.38639694642E+01  0.00000000000E+00 0.  1.
</event>
<event>
 7    1  0.2706925E-010  0.4778727E+02  0.7816164E-02  0.1312668E+00
        -11   -1    0    0    0    0  0.00000000000E+00  0.00000000000E+00  0.45593999997E+02  0.45594000000E+02  0.51100000000E-03 0.  1.
         11   -1    0    0    0    0 -0.00000000000E+00 -0.00000000000E+00 -0.45593999997E+02  0.45594000000E+02  0.51100000000E-03 0. -1.
    9900012    2    1    2    0    0  0.13382246570E+02  0.40062076944E+02 -0.99784261399E+01  0.47787268202E+02  0.19999987042E+02 0.  0.
         12    1    1    2    0    0 -0.13382246570E+02 -0.40062076944E+02  0.99784261399E+01  0.43400731798E+02  0.00000000000E+00 0. -1.
         11    1    3    3    0    0 -0.12529554426E+01  0.14454261341E+01  0.35268418676E+01  0.40122023716E+01  0.51100000000E-03 0. -1.
        -11    1    3    3    0    0  0.55536998261E+01  0.21156207257E+02 -0.85090282254E+01  0.23469815697E+02  0.51100000000E-03 0.  1.
         12    1    3    3    0    0  0.90815021866E+01  0.17460443553E+02 -0.49962397821E+01  0.20305250134E+02  0.00000000000E+00 0. -1.
</event>
<event>
 7    1  0.2706925E-010  0.4778727E+02  0.7816164E-02  0.1312668E+00
        -11   -1    0    0    0    0  0.00000000000E+00  0.00000000000E+00  0.45593999997E+02  0.45594000000E+02  0.51100000000E-03 0.  1.
         11   -1    0    0    0    0 -0.00000000000E+00 -0.00000000000E+00 -0.45593999997E+02  0.45594000000E+02  0.51100000000E-03 0. -1.
    9900012    2    1    2    0    0  0.28761970365E+02 -0.31268169565E+02  0.88698397976E+01  0.47787269300E+02  0.19999992048E+02 0.  0.
         12    1    1    2    0    0 -0.28761970365E+02  0.31268169565E+02 -0.88698397976E+01  0.43400730700E+02  0.00000000000E+00 0. -1.
         11    1    3    3    0    0  0.13712598347E+01 -0.73264985111E+01  0.53317126809E+01  0.91643381834E+01  0.51100000000E-03 0. -1.
        -11    1    3    3    0    0  0.22886185396E+02 -0.24539535755E+02  0.48241585463E+01  0.33900424821E+02  0.51100000000E-03 0.  1.
         12    1    3    3    0    0  0.45045251336E+01  0.59786470102E+00 -0.12860314295E+01  0.47225062962E+01  0.00000000000E+00 0. -1.
</event>
<event>
 7    1  0.2706925E-010  0.4778727E+02  0.7816164E-02  0.1312668E+00
        -11   -1    0    0    0    0  0.00000000000E+00  0.00000000000E+00  0.45593999997E+02  0.45594000000E+02  0.51100000000E-03 0. -1.
         11   -1    0    0    0    0 -0.00000000000E+00 -0.00000000000E+00 -0.45593999997E+02  0.45594000000E+02  0.51100000000E-03 0.  1.
    9900012    2    1    2    0    0 -0.39378715677E+02 -0.13981171873E+02  0.11724629553E+02  0.47787270128E+02  0.19999995820E+02 0.  0.
         12    1    1    2    0    0  0.39378715677E+02  0.13981171873E+02 -0.11724629553E+02  0.43400729872E+02  0.00000000000E+00 0. -1.
         11    1    3    3    0    0 -0.16299731149E+02  0.27393223313E+01  0.17720741545E+01  0.16623037311E+02  0.51100000000E-03 0. -1.
        -11    1    3    3    0    0 -0.96753680352E+01 -0.26456494827E+01  0.43798399687E+01  0.10945099644E+02  0.51100000000E-03 0.  1.
         12    1    3    3    0    0 -0.13403616493E+02 -0.14074844721E+02  0.55727154296E+01  0.20219133173E+02  0.00000000000E+00 0. -1.
</event>
<event>
 7    1  0.2706925E-010  0.4778727E+02  0.7816164E-02  0.1312668E+00
        -11   -1    0    0    0    0  0.00000000000E+00  0.00000000000E+00  0.45593999997E+02  0.45594000000E+02  0.51100000000E-03 0.  1.
         11   -1    0    0    0    0 -0.00000000000E+00 -0.00000000000E+00 -0.45593999997E+02  0.45594000000E+02  0.51100000000E-03 0. -1.
    9900012    2    1    2    0    0  0.84643904778E+01  0.42529942020E+02  0.17836445575E+01  0.47787271177E+02  0.20000000607E+02 0.  0.
         12    1    1    2    0    0 -0.84643904778E+01 -0.42529942020E+02 -0.17836445575E+01  0.43400728823E+02  0.00000000000E+00 0. -1.
         11    1    3    3    0    0  0.61409370255E+01  0.16316842378E+02 -0.54353703495E+01  0.18261809983E+02  0.51100000000E-03 0. -1.
        -11    1    3    3    0    0  0.24338835060E+01  0.21905474477E+02  0.10199713510E+02  0.24285958020E+02  0.51100000000E-03 0.  1.
        -12    1    3    3    0    0 -0.11043005368E+00  0.43076251646E+01 -0.29806986030E+01  0.52395031747E+01  0.00000000000E+00 0.  1.
</event>
<event>
 7    1  0.2706925E-010  0.4778727E+02  0.7816164E-02  0.1312668E+00
        -11   -1    0    0    0    0  0.00000000000E+00  0.00000000000E+00  0.45593999997E+02  0.45594000000E+02  0.51100000000E-03 0.  1.
         11   -1    0    0    0    0 -0.00000000000E+00 -0.00000000000E+00 -0.45593999997E+02  0.45594000000E+02  0.51100000000E-03 0. -1.
    9900012    2    1    2    0    0 -0.29735963717E+02  0.31142423025E+02  0.54355547826E+01  0.47787270676E+02  0.19999998321E+02 0.  0.
         12    1    1    2    0    0  0.29735963717E+02 -0.31142423025E+02 -0.54355547826E+01  0.43400729324E+02  0.00000000000E+00 0. -1.
         11    1    3    3    0    0 -0.20881219453E+01  0.10826328885E+02  0.17206889660E+01  0.11159319924E+02  0.51100000000E-03 0. -1.
        -11    1    3    3    0    0 -0.25582811918E+02  0.15282000765E+02 -0.40597583390E+00  0.29802426573E+02  0.51100000000E-03 0.  1.
        -12    1    3    3    0    0 -0.20650298531E+01  0.50340933752E+01  0.41208416505E+01  0.68255241786E+01  0.00000000000E+00 0.  1.
</event>
<event>
 7    1  0.2881018E-010  0.4778727E+02  0.7816164E-02  0.1312668E+00
        -11   -1    0    0    0    0  0.00000000000E+00  0.00000000000E+00  0.45593999997E+02  0.45594000000E+02  0.51100000000E-03 0.  1.
         11   -1    0    0    0    0 -0.00000000000E+00 -0.00000000000E+00 -0.45593999997E+02  0.45594000000E+02  0.51100000000E-03 0. -1.
    9900012    2    1    2    0    0 -0.30815238253E+02 -0.12975564721E+02  0.27670904488E+02  0.47787272545E+02  0.20000006841E+02 0.  0.
         12    1    1    2    0    0  0.30815238253E+02  0.12975564721E+02 -0.27670904488E+02  0.43400727455E+02  0.00000000000E+00 0. -1.
         11    1    3    3    0    0  0.45040850212E+00  0.95450777043E+00 -0.17063372258E+01  0.20063748134E+01  0.51100000000E-03 0. -1.
        -11    1    3    3    0    0 -0.23203337016E+02 -0.94556611516E+01  0.16725095099E+02  0.30125291415E+02  0.51100000000E-03 0.  1.
        -12    1    3    3    0    0 -0.80623097391E+01 -0.44744113402E+01  0.12652146615E+02  0.15655606316E+02  0.00000000000E+00 0.  1.
</event>
<event>
 7    1  0.2706925E-010  0.4778727E+02  0.7816164E-02  0.1312668E+00
        -11   -1    0    0    0    0  0.00000000000E+00  0.00000000000E+00  0.45593999997E+02  0.45594000000E+02  0.51100000000E-03 0. -1.
         11   -1    0    0    0    0 -0.00000000000E+00 -0.00000000000E+00 -0.45593999997E+02  0.45594000000E+02  0.51100000000E-03 0.  1.
    9900012    2    1    2    0    0  0.42767957351E+02 -0.31372584470E+01  0.66845123265E+01  0.47787271071E+02  0.20000000122E+02 0.  0.
         12    1    1    2    0    0 -0.42767957351E+02  0.31372584470E+01 -0.66845123265E+01  0.43400728929E+02  0.00000000000E+00 0. -1.
         11    1    3    3    0    0 -0.83214378228E+00 -0.21366973330E+00 -0.34306687675E+00  0.92510170920E+00  0.51100000000E-03 0. -1.
        -11    1    3    3    0    0  0.60238181264E+01  0.49222225215E+01 -0.28896671031E+00  0.77844820889E+01  0.51100000000E-03 0.  1.
        -12    1    3    3    0    0  0.37576283006E+02 -0.78458112352E+01  0.73165459135E+01  0.39077687273E+02  0.00000000000E+00 0.  1.
</event>
<event>
 7    1  0.2706925E-010  0.4778728E+02  0.7816164E-02  0.1312668E+00
        -11   -1    0    0    0    0  0.00000000000E+00  0.00000000000E+00  0.45593999997E+02  0.45594000000E+02  0.51100000000E-03 0.  1.
         11   -1    0    0    0    0 -0.00000000000E+00 -0.00000000000E+00 -0.45593999997E+02  0.45594000000E+02  0.51100000000E-03 0. -1.
    9900012    2    1    2    0    0 -0.11586093657E+02  0.14225705177E+02  0.39332100649E+02  0.47787281164E+02  0.20000046139E+02 0.  0.
         12    1    1    2    0    0  0.11586093657E+02 -0.14225705177E+02 -0.39332100649E+02  0.43400718836E+02  0.00000000000E+00 0. -1.
         11    1    3    3    0    0  0.31369903723E+01  0.41202883535E+01  0.47408520407E+01  0.70209089899E+01  0.51100000000E-03 0. -1.
        -11    1    3    3    0    0 -0.16606853674E+02  0.10079537101E+02  0.29348837698E+02  0.35195723201E+02  0.51100000000E-03 0.  1.
        -12    1    3    3    0    0  0.18837696448E+01  0.25879722469E-01  0.52424109100E+01  0.55706489733E+01  0.00000000000E+00 0.  1.
</event>
<event>
 7    1  0.2706925E-010  0.4778726E+02  0.7816164E-02  0.1312668E+00
        -11   -1    0    0    0    0  0.00000000000E+00  0.00000000000E+00  0.45593999997E+02  0.45594000000E+02  0.51100000000E-03 0.  1.
         11   -1    0    0    0    0 -0.00000000000E+00 -0.00000000000E+00 -0.45593999997E+02  0.45594000000E+02  0.51100000000E-03 0. -1.
    9900012    2    1    2    0    0 -0.35586478102E+02  0.16147556525E+02  0.18880756065E+02  0.47787263197E+02  0.19999964220E+02 0.  0.
         12    1    1    2    0    0  0.35586478102E+02 -0.16147556525E+02 -0.18880756065E+02  0.43400736803E+02  0.00000000000E+00 0. -1.
         11    1    3    3    0    0 -0.20363837757E+02  0.15214109941E+02  0.72366856558E+01  0.26429616892E+02  0.51100000000E-03 0. -1.
        -11    1    3    3    0    0 -0.82178832385E+01  0.51048491090E+01  0.73018672642E+01  0.12120658198E+02  0.51100000000E-03 0.  1.
         12    1    3    3    0    0 -0.70047571064E+01 -0.41714025247E+01  0.43422031451E+01  0.92369881073E+01  0.00000000000E+00 0. -1.
</event>
<event>
 7    1  0.2706925E-010  0.4778728E+02  0.7816164E-02  0.1312668E+00
        -11   -1    0    0    0    0  0.00000000000E+00  0.00000000000E+00  0.45593999997E+02  0.45594000000E+02  0.51100000000E-03 0.  1.
         11   -1    0    0    0    0 -0.00000000000E+00 -0.00000000000E+00 -0.45593999997E+02  0.45594000000E+02  0.51100000000E-03 0. -1.
    9900012    2    1    2    0    0 -0.35614785491E+02  0.18769411342E+02 -0.16214778154E+02  0.47787276754E+02  0.20000026033E+02 0.  0.
         12    1    1    2    0    0  0.35614785491E+02 -0.18769411342E+02  0.16214778154E+02  0.43400723246E+02  0.00000000000E+00 0. -1.
         11    1    3    3    0    0 -0.15473858347E+02  0.15421316342E+02 -0.30115778162E+01  0.22052820479E+02  0.51100000000E-03 0. -1.
        -11    1    3    3    0    0 -0.17799333744E+02  0.34033495823E+01 -0.75804801724E+01  0.19643389474E+02  0.51100000000E-03 0.  1.
         12    1    3    3    0    0 -0.23415933994E+01 -0.55254582824E-01 -0.56227201656E+01  0.60910668013E+01  0.00000000000E+00 0. -1.
</event>
<event>
 7    1  0.2706925E-010  0.4778727E+02  0.7816164E-02  0.1312668E+00
        -11   -1    0    0    0    0  0.00000000000E+00  0.00000000000E+00  0.45593999997E+02  0.45594000000E+02  0.51100000000E-03 0. -1.
         11   -1    0    0    0    0 -0.00000000000E+00 -0.00000000000E+00 -0.45593999997E+02  0.45594000000E+02  0.51100000000E-03 0.  1.
    9900012    2    1    2    0    0 -0.17960831338E+02 -0.32075915739E+02 -0.23068750480E+02  0.47787273260E+02  0.20000010101E+02 0.  0.
         12    1    1    2    0    0  0.17960831338E+02  0.32075915739E+02  0.23068750480E+02  0.43400726740E+02  0.00000000000E+00 0. -1.
         11    1    3    3    0    0  0.98059589810E+00 -0.55232110181E+01  0.21606913485E+01  0.60113239499E+01  0.51100000000E-03 0. -1.
        -11    1    3    3    0    0 -0.12784275158E+02 -0.15503706503E+02 -0.11691641301E+02  0.23248593145E+02  0.51100000000E-03 0.  1.
         12    1    3    3    0    0 -0.61571520783E+01 -0.11048998218E+02 -0.13537800527E+02  0.18527356165E+02  0.00000000000E+00 0. -1.
</event>
<event>
 7    1  0.2706925E-010  0.4778728E+02  0.7816164E-02  0.1312668E+00
        -11   -1    0    0    0    0  0.00000000000E+00  0.00000000000E+00  0.45593999997E+02  0.45594000000E+02  0.51100000000E-03 0.  1.
         11   -1    0    0    0    0 -0.00000000000E+00 -0.00000000000E+00 -0.45593999997E+02  0.45594000000E+02  0.51100000000E-03 0. -1.
    9900012    2    1    2    0    0  0.14695024355E+02  0.29332097485E+02  0.28413148690E+02  0.47787277631E+02  0.20000030032E+02 0.  0.
         12    1    1    2    0    0 -0.14695024355E+02 -0.29332097485E+02 -0.28413148690E+02  0.43400722369E+02  0.00000000000E+00 0. -1.
         11    1    3    3    0    0  0.13053890634E+02  0.21812164682E+02  0.15718519163E+02  0.29887228605E+02  0.51100000000E-03 0. -1.
        -11    1    3    3    0    0 -0.94682750550E+00  0.59025830241E+01  0.13482350202E+02  0.14748245180E+02  0.51100000000E-03 0.  1.
         12    1    3    3    0    0  0.25879612269E+01  0.16173497789E+01 -0.78772067431E+00  0.31518038454E+01  0.00000000000E+00 0. -1.
</event>
<event>
 7    1  0.2706925E-010  0.4778727E+02  0.7816164E-02  0.1312668E+00
        -11   -1    0    0    0    0  0.00000000000E+00  0.00000000000E+00  0.45593999997E+02  0.45594000000E+02  0.51100000000E-03 0.  1.
         11   -1    0    0    0    0 -0.00000000000E+00 -0.00000000000E+00 -0.45593999997E+02  0.45594000000E+02  0.51100000000E-03 0. -1.
    9900012    2    1    2    0    0 -0.24270471666E+02  0.30860240192E+02  0.18499007633E+02  0.47787268405E+02  0.19999987967E+02 0.  0.
         12    1    1    2    0    0  0.24270471666E+02 -0.30860240192E+02 -0.18499007633E+02  0.43400731595E+02  0.00000000000E+00 0. -1.
         11    1    3    3    0    0 -0.11120298987E+02  0.23886781913E+02  0.14974794025E+02  0.30306498578E+02  0.51100000000E-03 0.  1.
        -11    1    3    3    0    0 -0.62196647688E+01  0.51391585188E+01 -0.21364538737E+01  0.83462336137E+01  0.51100000000E-03 0. -1.
         12    1    3    3    0    0 -0.69305079098E+01  0.18342997601E+01  0.56606674817E+01  0.91345362135E+01  0.00000000000E+00 0. -1.
</event>
<event>
 7    1  0.2706925E-010  0.4778728E+02  0.7816164E-02  0.1312668E+00
        -11   -1    0    0    0    0  0.00000000000E+00  0.00000000000E+00  0.45593999997E+02  0.45594000000E+02  0.51100000000E-03 0. -1.
         11   -1    0    0    0    0 -0.00000000000E+00 -0.00000000000E+00 -0.45593999997E+02  0.45594000000E+02  0.51100000000E-03 0.  1.
    9900012    2    1    2    0    0  0.31927601423E+02  0.29174462816E+02  0.36195490196E+01  0.47787284012E+02  0.20000059122E+02 0.  0.
         12    1    1    2    0    0 -0.31927601423E+02 -0.29174462816E+02 -0.36195490196E+01  0.43400715988E+02  0.00000000000E+00 0. -1.
         11    1    3    3    0    0  0.10762268400E+02  0.11605886219E+01  0.48727050060E+01  0.11870831538E+02  0.51100000000E-03 0. -1.
        -11    1    3    3    0    0  0.11603423141E+02  0.18291823703E+02 -0.39422947994E+01  0.22017536909E+02  0.51100000000E-03 0.  1.
         12    1    3    3    0    0  0.95619098814E+01  0.97220504906E+01  0.26891388131E+01  0.13898915565E+02  0.00000000000E+00 0. -1.
</event>
<event>
 7    1  0.3635517E-010  0.4778727E+02  0.7816164E-02  0.1312668E+00
        -11   -1    0    0    0    0  0.00000000000E+00  0.00000000000E+00  0.45593999997E+02  0.45594000000E+02  0.51100000000E-03 0. -1.
         11   -1    0    0    0    0 -0.00000000000E+00 -0.00000000000E+00 -0.45593999997E+02  0.45594000000E+02  0.51100000000E-03 0.  1.
    9900012    2    1    2    0    0  0.39454007969E+02 -0.49142996189E+01 -0.17402708403E+02  0.47787270222E+02  0.19999996248E+02 0.  0.
         12    1    1    2    0    0 -0.39454007969E+02  0.49142996189E+01  0.17402708403E+02  0.43400729778E+02  0.00000000000E+00 0. -1.
         11    1    3    3    0    0  0.23958869132E+01  0.17376984726E+01  0.11295602067E+01  0.31679293875E+01  0.51100000000E-03 0. -1.
        -11    1    3    3    0    0  0.24126431203E+02  0.23991974250E+01 -0.14778873315E+02  0.28394646108E+02  0.51100000000E-03 0.  1.
        -12    1    3    3    0    0  0.12931689853E+02 -0.90511955165E+01 -0.37533952949E+01  0.16224694726E+02  0.00000000000E+00 0.  1.
</event>
<event>
 7    1  0.2706925E-010  0.4778727E+02  0.7816164E-02  0.1312668E+00
        -11   -1    0    0    0    0  0.00000000000E+00  0.00000000000E+00  0.45593999997E+02  0.45594000000E+02  0.51100000000E-03 0.  1.
         11   -1    0    0    0    0 -0.00000000000E+00 -0.00000000000E+00 -0.45593999997E+02  0.45594000000E+02  0.51100000000E-03 0. -1.
    9900012    2    1    2    0    0  0.28614338295E+02 -0.28823433394E+02  0.15298784912E+02  0.47787268572E+02  0.19999988727E+02 0.  0.
         12    1    1    2    0    0 -0.28614338295E+02  0.28823433394E+02 -0.15298784912E+02  0.43400731428E+02  0.00000000000E+00 0. -1.
         11    1    3    3    0    0  0.15189685750E+02 -0.85208061645E+01  0.78630493697E+00  0.17434132230E+02  0.51100000000E-03 0. -1.
        -11    1    3    3    0    0  0.50045395986E+01 -0.13688706859E+02  0.13018207546E+02  0.19542257803E+02  0.51100000000E-03 0.  1.
        -12    1    3    3    0    0  0.84201129460E+01 -0.66139203711E+01  0.14942724293E+01  0.10810878539E+02  0.00000000000E+00 0.  1.
</event>
<event>
 7    1  0.2706925E-010  0.4778725E+02  0.7816164E-02  0.1312668E+00
        -11   -1    0    0    0    0  0.00000000000E+00  0.00000000000E+00  0.45593999997E+02  0.45594000000E+02  0.51100000000E-03 0.  1.
         11   -1    0    0    0    0 -0.00000000000E+00 -0.00000000000E+00 -0.45593999997E+02  0.45594000000E+02  0.51100000000E-03 0. -1.
    9900012    2    1    2    0    0  0.14114455824E+01  0.43365788355E+02  0.10204910965E+01  0.47787249081E+02  0.19999899859E+02 0.  0.
         12    1    1    2    0    0 -0.14114455824E+01 -0.43365788355E+02 -0.10204910965E+01  0.43400750919E+02  0.00000000000E+00 0. -1.
         11    1    3    3    0    0 -0.12508175049E+01 -0.62588743394E+00  0.27503056063E+01  0.30855243800E+01  0.51100000000E-03 0. -1.
        -11    1    3    3    0    0  0.28523818055E+01  0.30206542794E+02  0.20391957979E+01  0.30409367460E+02  0.51100000000E-03 0.  1.
         12    1    3    3    0    0 -0.19011871833E+00  0.13785132995E+02 -0.37690103077E+01  0.14292357241E+02  0.00000000000E+00 0. -1.
</event>
<event>
 7    1  0.2706925E-010  0.4778727E+02  0.7816164E-02  0.1312668E+00
        -11   -1    0    0    0    0  0.00000000000E+00  0.00000000000E+00  0.45593999997E+02  0.45594000000E+02  0.51100000000E-03 0.  1.
         11   -1    0    0    0    0 -0.00000000000E+00 -0.00000000000E+00 -0.45593999997E+02  0.45594000000E+02  0.51100000000E-03 0. -1.
    9900012    2    1    2    0    0  0.33884033028E+02 -0.61342281889E+00  0.27113089674E+02  0.47787267133E+02  0.19999982164E+02 0.  0.
         12    1    1    2    0    0 -0.33884033028E+02  0.61342281889E+00 -0.27113089674E+02  0.43400732867E+02  0.00000000000E+00 0. -1.
         11    1    3    3    0    0  0.18412933250E+01 -0.48549130539E+01  0.75633053372E+00  0.52471495126E+01  0.51100000000E-03 0. -1.
        -11    1    3    3    0    0  0.20612859515E+02  0.43047855712E+01  0.21581510772E+02  0.30152657655E+02  0.51100000000E-03 0.  1.
        -12    1    3    3    0    0  0.11429880188E+02 -0.63295336115E-01  0.47752483675E+01  0.12387459965E+02  0.00000000000E+00 0.  1.
</event>
<event>
 7    1  0.2706925E-010  0.4778727E+02  0.7816164E-02  0.1312668E+00
        -11   -1    0    0    0    0  0.00000000000E+00  0.00000000000E+00  0.45593999997E+02  0.45594000000E+02  0.51100000000E-03 0.  1.
         11   -1    0    0    0    0 -0.00000000000E+00 -0.00000000000E+00 -0.45593999997E+02  0.45594000000E+02  0.51100000000E-03 0. -1.
    9900012    2    1    2    0    0 -0.11656879430E+02  0.43388907303E+01  0.41580216411E+02  0.47787271808E+02  0.20000003481E+02 0.  0.
         12    1    1    2    0    0  0.11656879430E+02 -0.43388907303E+01 -0.41580216411E+02  0.43400728192E+02  0.00000000000E+00 0. -1.
         11    1    3    3    0    0 -0.11209842425E+02  0.14816009552E+00  0.35999363901E+02  0.37704598130E+02  0.51100000000E-03 0. -1.
        -11    1    3    3    0    0 -0.20083697618E+01  0.34753161861E+01  0.68553479802E+01  0.79440020069E+01  0.51100000000E-03 0.  1.
         12    1    3    3    0    0  0.15613327571E+01  0.71541444866E+00 -0.12744954703E+01  0.21386716708E+01  0.00000000000E+00 0. -1.
</event>
<event>
 7    1  0.2706925E-010  0.4778727E+02  0.7816164E-02  0.1312668E+00
        -11   -1    0    0    0    0  0.00000000000E+00  0.00000000000E+00  0.45593999997E+02  0.45594000000E+02  0.51100000000E-03 0.  1.
         11   -1    0    0    0    0 -0.00000000000E+00 -0.00000000000E+00 -0.45593999997E+02  0.45594000000E+02  0.51100000000E-03 0. -1.
    9900012    2    1    2    0    0  0.35101867424E+02  0.10839834594E+02  0.23108012558E+02  0.47787270109E+02  0.19999995735E+02 0.  0.
         12    1    1    2    0    0 -0.35101867424E+02 -0.10839834594E+02 -0.23108012558E+02  0.43400729891E+02  0.00000000000E+00 0. -1.
         11    1    3    3    0    0 -0.22977236743E+01 -0.30473322590E+00 -0.44218872472E-01  0.23182648667E+01  0.51100000000E-03 0. -1.
        -11    1    3    3    0    0  0.29138445166E+02  0.74040356134E+01  0.17853045727E+02  0.34965697076E+02  0.51100000000E-03 0.  1.
         12    1    3    3    0    0  0.82611459324E+01  0.37405322064E+01  0.52991857039E+01  0.10503308166E+02  0.00000000000E+00 0. -1.
</event>
<event>
 7    1  0.2706925E-010  0.4778727E+02  0.7816164E-02  0.1312668E+00
        -11   -1    0    0    0    0  0.00000000000E+00  0.00000000000E+00  0.45593999997E+02  0.45594000000E+02  0.51100000000E-03 0. -1.
         11   -1    0    0    0    0 -0.00000000000E+00 -0.00000000000E+00 -0.45593999997E+02  0.45594000000E+02  0.51100000000E-03 0.  1.
    9900012    2    1    2    0    0  0.11119184024E+02 -0.37363371141E+02 -0.19077880628E+02  0.47787270909E+02  0.19999999383E+02 0.  0.
         12    1    1    2    0    0 -0.11119184024E+02  0.37363371141E+02  0.19077880628E+02  0.43400729091E+02  0.00000000000E+00 0. -1.
         11    1    3    3    0    0 -0.27050245749E+01 -0.13293222849E+02 -0.10038132812E+02  0.16875753087E+02  0.51100000000E-03 0. -1.
        -11    1    3    3    0    0  0.42462897308E+01 -0.12614550398E+02 -0.88397695312E+01  0.15978090745E+02  0.51100000000E-03 0.  1.
         12    1    3    3    0    0  0.95779188680E+01 -0.11455597894E+02 -0.19997828559E+00  0.14933427077E+02  0.00000000000E+00 0. -1.
</event>
<event>
 7    1  0.2706925E-010  0.4778728E+02  0.7816164E-02  0.1312668E+00
        -11   -1    0    0    0    0  0.00000000000E+00  0.00000000000E+00  0.45593999997E+02  0.45594000000E+02  0.51100000000E-03 0. -1.
         11   -1    0    0    0    0 -0.00000000000E+00 -0.00000000000E+00 -0.45593999997E+02  0.45594000000E+02  0.51100000000E-03 0.  1.
    9900012    2    1    2    0    0  0.37233473619E+02 -0.22294876948E+02 -0.47937303884E+00  0.47787275417E+02  0.20000019934E+02 0.  0.
         12    1    1    2    0    0 -0.37233473619E+02  0.22294876948E+02  0.47937303884E+00  0.43400724583E+02  0.00000000000E+00 0. -1.
         11    1    3    3    0    0  0.13858632009E+02 -0.16355617698E+00  0.29835884390E+00  0.13862808159E+02  0.51100000000E-03 0. -1.
        -11    1    3    3    0    0  0.13717730230E+02 -0.66815776992E+01 -0.30607135844E+01  0.15562376782E+02  0.51100000000E-03 0.  1.
         12    1    3    3    0    0  0.96571113804E+01 -0.15449743071E+02  0.22829817017E+01  0.18362090476E+02  0.00000000000E+00 0. -1.
</event>
<event>
 7    1  0.2706925E-010  0.4778731E+02  0.7816164E-02  0.1312668E+00
        -11   -1    0    0    0    0  0.00000000000E+00  0.00000000000E+00  0.45593999997E+02  0.45594000000E+02  0.51100000000E-03 0. -1.
         11   -1    0    0    0    0 -0.00000000000E+00 -0.00000000000E+00 -0.45593999997E+02  0.45594000000E+02  0.51100000000E-03 0.  1.
    9900012    2    1    2    0    0  0.11235126902E+02  0.41134031191E+02 -0.80859940408E+01  0.47787309935E+02  0.20000177316E+02 0.  0.
         12    1    1    2    0    0 -0.11235126902E+02 -0.41134031191E+02  0.80859940408E+01  0.43400690065E+02  0.00000000000E+00 0. -1.
         11    1    3    3    0    0  0.34980427896E+01  0.28226003536E+01  0.32006386562E+01  0.55179220892E+01  0.51100000000E-03 0. -1.
        -11    1    3    3    0    0  0.79145474476E+01  0.25170516195E+02 -0.12253051589E+02  0.29091789569E+02  0.51100000000E-03 0.  1.
        -12    1    3    3    0    0 -0.17746333563E+00  0.13140914642E+02  0.96641889169E+00  0.13177598277E+02  0.00000000000E+00 0.  1.
</event>
<event>
 7    1  0.2706925E-010  0.4778727E+02  0.7816164E-02  0.1312668E+00
        -11   -1    0    0    0    0  0.00000000000E+00  0.00000000000E+00  0.45593999997E+02  0.45594000000E+02  0.51100000000E-03 0. -1.
         11   -1    0    0    0    0 -0.00000000000E+00 -0.00000000000E+00 -0.45593999997E+02  0.45594000000E+02  0.51100000000E-03 0.  1.
    9900012    2    1    2    0    0 -0.75817017443E+01  0.15425623749E+02 -0.39852115847E+02  0.47787271816E+02  0.20000003518E+02 0.  0.
         12    1    1    2    0    0  0.75817017443E+01 -0.15425623749E+02  0.39852115847E+02  0.43400728184E+02  0.00000000000E+00 0. -1.
         11    1    3    3    0    0 -0.53198867081E+01  0.44346410866E+01 -0.25625540302E+01  0.73847084961E+01  0.51100000000E-03 0. -1.
        -11    1    3    3    0    0 -0.16735794862E+01  0.65144247065E+01 -0.34378850594E+02  0.35030614696E+02  0.51100000000E-03 0.  1.
        -12    1    3    3    0    0 -0.58823554994E+00  0.44765579559E+01 -0.29107112234E+01  0.53719486242E+01  0.00000000000E+00 0.  1.
</event>
<event>
 7    1  0.2706925E-010  0.4778728E+02  0.7816164E-02  0.1312668E+00
        -11   -1    0    0    0    0  0.00000000000E+00  0.00000000000E+00  0.45593999997E+02  0.45594000000E+02  0.51100000000E-03 0.  1.
         11   -1    0    0    0    0 -0.00000000000E+00 -0.00000000000E+00 -0.45593999997E+02  0.45594000000E+02  0.51100000000E-03 0. -1.
    9900012    2    1    2    0    0 -0.12258756653E-01 -0.21452861822E+02  0.37727935833E+02  0.47787279120E+02  0.20000036821E+02 0.  0.
         12    1    1    2    0    0  0.12258756653E-01  0.21452861822E+02 -0.37727935833E+02  0.43400720880E+02  0.00000000000E+00 0. -1.
         11    1    3    3    0    0  0.17395639872E+01  0.11783593269E+01  0.52137682618E+01  0.56212092398E+01  0.51100000000E-03 0. -1.
        -11    1    3    3    0    0  0.52351142022E+01 -0.51671608534E+01  0.13769014036E+02  0.15610628423E+02  0.51100000000E-03 0.  1.
        -12    1    3    3    0    0 -0.69869369460E+01 -0.17464060296E+02  0.18745153536E+02  0.26555441457E+02  0.00000000000E+00 0.  1.
</event>
<event>
 7    1  0.2706925E-010  0.4778727E+02  0.7816164E-02  0.1312668E+00
        -11   -1    0    0    0    0  0.00000000000E+00  0.00000000000E+00  0.45593999997E+02  0.45594000000E+02  0.51100000000E-03 0.  1.
         11   -1    0    0    0    0 -0.00000000000E+00 -0.00000000000E+00 -0.45593999997E+02  0.45594000000E+02  0.51100000000E-03 0. -1.
    9900012    2    1    2    0    0 -0.18535737658E+02  0.17499378648E+02  0.35125796152E+02  0.47787269835E+02  0.19999994484E+02 0.  0.
         12    1    1    2    0    0  0.18535737658E+02 -0.17499378648E+02 -0.35125796152E+02  0.43400730165E+02  0.00000000000E+00 0. -1.
         11    1    3    3    0    0 -0.18616705745E+02  0.18135950513E+02  0.22763304631E+02  0.34549420716E+02  0.51100000000E-03 0. -1.
        -11    1    3    3    0    0 -0.13998658360E+01 -0.13066230735E+01  0.10849747161E+02  0.11017436269E+02  0.51100000000E-03 0.  1.
         12    1    3    3    0    0  0.14808339223E+01  0.67005120839E+00  0.15127443595E+01  0.22204128500E+01  0.00000000000E+00 0. -1.
</event>
<event>
 7    1  0.2706925E-010  0.4778722E+02  0.7816164E-02  0.1312668E+00
        -11   -1    0    0    0    0  0.00000000000E+00  0.00000000000E+00  0.45593999997E+02  0.45594000000E+02  0.51100000000E-03 0.  1.
         11   -1    0    0    0    0 -0.00000000000E+00 -0.00000000000E+00 -0.45593999997E+02  0.45594000000E+02  0.51100000000E-03 0. -1.
    9900012    2    1    2    0    0  0.19517294149E+02  0.31168003953E+02  0.23049049477E+02  0.47787217483E+02  0.19999755790E+02 0.  0.
         12    1    1    2    0    0 -0.19517294149E+02 -0.31168003953E+02 -0.23049049477E+02  0.43400782517E+02  0.00000000000E+00 0. -1.
         11    1    3    3    0    0  0.39693042031E+01 -0.17340172664E+01  0.23597341530E+01  0.49325994435E+01  0.51100000000E-03 0. -1.
        -11    1    3    3    0    0  0.61007963144E+01  0.44764982109E+01  0.38124665212E+01  0.84731135445E+01  0.51100000000E-03 0.  1.
         12    1    3    3    0    0  0.94471936315E+01  0.28425523008E+02  0.16876848803E+02  0.34381504495E+02  0.00000000000E+00 0. -1.
</event>
<event>
 7    1  0.2706925E-010  0.4778727E+02  0.7816164E-02  0.1312668E+00
        -11   -1    0    0    0    0  0.00000000000E+00  0.00000000000E+00  0.45593999997E+02  0.45594000000E+02  0.51100000000E-03 0.  1.
         11   -1    0    0    0    0 -0.00000000000E+00 -0.00000000000E+00 -0.45593999997E+02  0.45594000000E+02  0.51100000000E-03 0. -1.
    9900012    2    1    2    0    0  0.42615786506E+02  0.68248120480E+01  0.45760767564E+01  0.47787265012E+02  0.19999972497E+02 0.  0.
         12    1    1    2    0    0 -0.42615786506E+02 -0.68248120480E+01 -0.45760767564E+01  0.43400734988E+02  0.00000000000E+00 0. -1.
         11    1    3    3    0    0  0.26357800421E+02 -0.19286218469E+01  0.63941873574E+01  0.27190786261E+02  0.51100000000E-03 0. -1.
        -11    1    3    3    0    0  0.72161590691E+01  0.89056794364E+01 -0.68628203717E+00  0.11482815910E+02  0.51100000000E-03 0.  1.
         12    1    3    3    0    0  0.90418270154E+01 -0.15224554151E+00 -0.11318285638E+01  0.91136628410E+01  0.00000000000E+00 0. -1.
</event>
<event>
 7    1  0.2706925E-010  0.4778729E+02  0.7816164E-02  0.1312668E+00
        -11   -1    0    0    0    0  0.00000000000E+00  0.00000000000E+00  0.45593999997E+02  0.45594000000E+02  0.51100000000E-03 0.  1.
         11   -1    0    0    0    0 -0.00000000000E+00 -0.00000000000E+00 -0.45593999997E+02  0.45594000000E+02  0.51100000000E-03 0. -1.
    9900012    2    1    2    0    0  0.33907777643E+02  0.24558399519E+02  0.11435457609E+02  0.47787285002E+02  0.20000063640E+02 0.  0.
         12    1    1    2    0    0 -0.33907777643E+02 -0.24558399519E+02 -0.11435457609E+02  0.43400714998E+02  0.00000000000E+00 0. -1.
         11    1    3    3    0    0  0.35264866441E+01 -0.90551039314E+00 -0.28315010354E+01  0.46123156329E+01  0.51100000000E-03 0. -1.
        -11    1    3    3    0    0  0.15717866020E+02  0.10995995595E+02  0.11565391974E+02  0.22399141125E+02  0.51100000000E-03 0.  1.
         12    1    3    3    0    0  0.14663424978E+02  0.14467914317E+02  0.27015666700E+01  0.20775828245E+02  0.00000000000E+00 0. -1.
</event>
<event>
 7    1  0.2706925E-010  0.4778727E+02  0.7816164E-02  0.1312668E+00
        -11   -1    0    0    0    0  0.00000000000E+00  0.00000000000E+00  0.45593999997E+02  0.45594000000E+02  0.51100000000E-03 0.  1.
         11   -1    0    0    0    0 -0.00000000000E+00 -0.00000000000E+00 -0.45593999997E+02  0.45594000000E+02  0.51100000000E-03 0. -1.
    9900012    2    1    2    0    0 -0.29041913459E+02 -0.18226193078E+02  0.26608199052E+02  0.47787272953E+02  0.20000008700E+02 0.  0.
         12    1    1    2    0    0  0.29041913459E+02  0.18226193078E+02 -0.26608199052E+02  0.43400727047E+02  0.00000000000E+00 0. -1.
         11    1    3    3    0    0 -0.25270693720E+01  0.13828885410E+01  0.43519901468E+01  0.52190304489E+01  0.51100000000E-03 0. -1.
        -11    1    3    3    0    0 -0.19233724748E+02 -0.50575591686E+01  0.14007182348E+02  0.24325217985E+02  0.51100000000E-03 0.  1.
        -12    1    3    3    0    0 -0.72811193383E+01 -0.14551522450E+02  0.82490265571E+01  0.18243024518E+02  0.00000000000E+00 0.  1.
</event>
<event>
 7    1  0.2706925E-010  0.4778724E+02  0.7816164E-02  0.1312668E+00
        -11   -1    0    0    0    0  0.00000000000E+00  0.00000000000E+00  0.45593999997E+02  0.45594000000E+02  0.51100000000E-03 0. -1.
         11   -1    0    0    0    0 -0.00000000000E+00 -0.00000000000E+00 -0.45593999997E+02  0.45594000000E+02  0.51100000000E-03 0.  1.
    9900012    2    1    2    0    0  0.36946250660E+01 -0.14771118400E+02 -0.40642214622E+02  0.47787241912E+02  0.19999867175E+02 0.  0.
         12    1    1    2    0    0 -0.36946250660E+01  0.14771118400E+02  0.40642214622E+02  0.43400758088E+02  0.00000000000E+00 0. -1.
         11    1    3    3    0    0  0.42571305089E+01  0.32410126295E+01 -0.13182286260E+02  0.14226735196E+02  0.51100000000E-03 0. -1.
        -11    1    3    3    0    0 -0.43341996526E+00  0.41103025514E+00 -0.23003238896E+01  0.23766129250E+01  0.51100000000E-03 0.  1.
         12    1    3    3    0    0 -0.12908547763E+00 -0.18423161284E+02 -0.25159604473E+02  0.31183893791E+02  0.00000000000E+00 0. -1.
</event>
<event>
 7    1  0.2706925E-010  0.4778727E+02  0.7816164E-02  0.1312668E+00
        -11   -1    0    0    0    0  0.00000000000E+00  0.00000000000E+00  0.45593999997E+02  0.45594000000E+02  0.51100000000E-03 0.  1.
         11   -1    0    0    0    0 -0.00000000000E+00 -0.00000000000E+00 -0.45593999997E+02  0.45594000000E+02  0.51100000000E-03 0. -1.
    9900012    2    1    2    0    0 -0.41295689193E+02  0.93729831904E+01  0.95097976428E+01  0.47787274072E+02  0.20000013806E+02 0.  0.
         12    1    1    2    0    0  0.41295689193E+02 -0.93729831904E+01 -0.95097976428E+01  0.43400725928E+02  0.00000000000E+00 0. -1.
         11    1    3    3    0    0 -0.25013356068E+01  0.48660646810E+01  0.51023950484E+01  0.74812900484E+01  0.51100000000E-03 0. -1.
        -11    1    3    3    0    0 -0.36410918886E+02  0.61082718071E+01  0.53018618813E+01  0.37298468310E+02  0.51100000000E-03 0.  1.
         12    1    3    3    0    0 -0.23834347007E+01 -0.16013532977E+01 -0.89445928686E+00  0.30075157144E+01  0.00000000000E+00 0. -1.
</event>
<event>
 7    1  0.2706925E-010  0.4778727E+02  0.7816164E-02  0.1312668E+00
        -11   -1    0    0    0    0  0.00000000000E+00  0.00000000000E+00  0.45593999997E+02  0.45594000000E+02  0.51100000000E-03 0.  1.
         11   -1    0    0    0    0 -0.00000000000E+00 -0.00000000000E+00 -0.45593999997E+02  0.45594000000E+02  0.51100000000E-03 0. -1.
    9900012    2    1    2    0    0 -0.18870115983E+02 -0.38897733647E+02 -0.38089698048E+01  0.47787271768E+02  0.20000003301E+02 0.  0.
         12    1    1    2    0    0  0.18870115983E+02  0.38897733647E+02  0.38089698048E+01  0.43400728232E+02  0.00000000000E+00 0. -1.
         11    1    3    3    0    0 -0.14703011734E+02 -0.35166838650E+02 -0.34856291255E+01  0.38275771780E+02  0.51100000000E-03 0. -1.
        -11    1    3    3    0    0 -0.26434305199E+01 -0.21244614337E+01  0.36379069800E+01  0.49734725045E+01  0.51100000000E-03 0.  1.
         12    1    3    3    0    0 -0.15236737298E+01 -0.16064335625E+01 -0.39612476592E+01  0.45380274838E+01  0.00000000000E+00 0. -1.
</event>
<event>
 7    1  0.2706925E-010  0.4778727E+02  0.7816164E-02  0.1312668E+00
        -11   -1    0    0    0    0  0.00000000000E+00  0.00000000000E+00  0.45593999997E+02  0.45594000000E+02  0.51100000000E-03 0.  1.
         11   -1    0    0    0    0 -0.00000000000E+00 -0.00000000000E+00 -0.45593999997E+02  0.45594000000E+02  0.51100000000E-03 0. -1.
    9900012    2    1    2    0    0  0.36608815413E+00 -0.12356303592E+02  0.41603020743E+02  0.47787267357E+02  0.19999983188E+02 0.  0.
         12    1    1    2    0    0 -0.36608815413E+00  0.12356303592E+02 -0.41603020743E+02  0.43400732643E+02  0.00000000000E+00 0. -1.
         11    1    3    3    0    0  0.76672601190E+01 -0.86443623390E+01  0.11029473705E+02  0.15973765006E+02  0.51100000000E-03 0. -1.
        -11    1    3    3    0    0 -0.20206367584E+01 -0.27721619378E+01  0.11655496269E+02  0.12149833260E+02  0.51100000000E-03 0.  1.
         12    1    3    3    0    0 -0.52805352065E+01 -0.93977931542E+00  0.18918050769E+02  0.19663669091E+02  0.00000000000E+00 0. -1.
</event>
<event>
 7    1  0.2706925E-010  0.4778727E+02  0.7816164E-02  0.1312668E+00
        -11   -1    0    0    0    0  0.00000000000E+00  0.00000000000E+00  0.45593999997E+02  0.45594000000E+02  0.51100000000E-03 0. -1.
         11   -1    0    0    0    0 -0.00000000000E+00 -0.00000000000E+00 -0.45593999997E+02  0.45594000000E+02  0.51100000000E-03 0.  1.
    9900012    2    1    2    0    0  0.41995654973E+02 -0.14845624017E+01 -0.10852853963E+02  0.47787269577E+02  0.19999993308E+02 0.  0.
         12    1    1    2    0    0 -0.41995654973E+02  0.14845624017E+01  0.10852853963E+02  0.43400730423E+02  0.00000000000E+00 0. -1.
         11    1    3    3    0    0  0.58292511201E+01  0.30520420020E+01  0.32679178250E+01  0.73467282633E+01  0.51100000000E-03 0. -1.
        -11    1    3    3    0    0  0.23116285067E+02 -0.61007461557E+01 -0.13089811753E+02  0.27256648931E+02  0.51100000000E-03 0.  1.
        -12    1    3    3    0    0  0.13050118786E+02  0.15641417519E+01 -0.10309600345E+01  0.13183892382E+02  0.00000000000E+00 0.  1.
</event>
<event>
 7    1  0.2706925E-010  0.4778727E+02  0.7816164E-02  0.1312668E+00
        -11   -1    0    0    0    0  0.00000000000E+00  0.00000000000E+00  0.45593999997E+02  0.45594000000E+02  0.51100000000E-03 0.  1.
         11   -1    0    0    0    0 -0.00000000000E+00 -0.00000000000E+00 -0.45593999997E+02  0.45594000000E+02  0.51100000000E-03 0. -1.
    9900012    2    1    2    0    0 -0.21604073308E+02  0.24368477310E+02  0.28689100901E+02  0.47787272121E+02  0.20000004908E+02 0.  0.
         12    1    1    2    0    0  0.21604073308E+02 -0.24368477310E+02 -0.28689100901E+02  0.43400727879E+02  0.00000000000E+00 0. -1.
         11    1    3    3    0    0  0.45299457885E+00 -0.20564571167E+01  0.35346914372E+01  0.41143971343E+01  0.51100000000E-03 0. -1.
        -11    1    3    3    0    0 -0.14053090066E+02  0.22424428448E+02  0.21114624993E+02  0.33855157959E+02  0.51100000000E-03 0.  1.
        -12    1    3    3    0    0 -0.80039778214E+01  0.40005059783E+01  0.40397844716E+01  0.98177170271E+01  0.00000000000E+00 0.  1.
</event>
<event>
 7    1  0.2706925E-010  0.4778727E+02  0.7816164E-02  0.1312668E+00
        -11   -1    0    0    0    0  0.00000000000E+00  0.00000000000E+00  0.45593999997E+02  0.45594000000E+02  0.51100000000E-03 0.  1.
         11   -1    0    0    0    0 -0.00000000000E+00 -0.00000000000E+00 -0.45593999997E+02  0.45594000000E+02  0.51100000000E-03 0. -1.
    9900012    2    1    2    0    0  0.34055646010E+02  0.20831931277E+02  0.17025471967E+02  0.47787273260E+02  0.20000010102E+02 0.  0.
         12    1    1    2    0    0 -0.34055646010E+02 -0.20831931277E+02 -0.17025471967E+02  0.43400726740E+02  0.00000000000E+00 0. -1.
         11    1    3    3    0    0 -0.61962068766E+00 -0.76437876126E+00  0.37035674416E-01  0.98467080262E+00  0.51100000000E-03 0. -1.
        -11    1    3    3    0    0  0.34564942730E+02  0.18211641931E+02  0.12184589176E+02  0.40925094764E+02  0.51100000000E-03 0.  1.
        -12    1    3    3    0    0  0.11032396701E+00  0.33846681066E+01  0.48038471163E+01  0.58775076935E+01  0.00000000000E+00 0.  1.
</event>
<event>
 7    1  0.2706925E-010  0.4778727E+02  0.7816164E-02  0.1312668E+00
        -11   -1    0    0    0    0  0.00000000000E+00  0.00000000000E+00  0.45593999997E+02  0.45594000000E+02  0.51100000000E-03 0.  1.
         11   -1    0    0    0    0 -0.00000000000E+00 -0.00000000000E+00 -0.45593999997E+02  0.45594000000E+02  0.51100000000E-03 0. -1.
    9900012    2    1    2    0    0 -0.37765604417E+02  0.18152833082E+02  0.11307395315E+02  0.47787269422E+02  0.19999992602E+02 0.  0.
         12    1    1    2    0    0  0.37765604417E+02 -0.18152833082E+02 -0.11307395315E+02  0.43400730578E+02  0.00000000000E+00 0. -1.
         11    1    3    3    0    0 -0.18121995206E+02  0.13329590373E+02  0.43009798112E+01  0.22903779543E+02  0.51100000000E-03 0. -1.
        -11    1    3    3    0    0 -0.91514766091E+01 -0.12233682733E+00  0.93126170568E+01  0.13057156166E+02  0.51100000000E-03 0.  1.
        -12    1    3    3    0    0 -0.10492132602E+02  0.49455795370E+01 -0.23062015533E+01  0.11826333713E+02  0.00000000000E+00 0.  1.
</event>
<event>
 7    1  0.2706925E-010  0.4778725E+02  0.7816164E-02  0.1312668E+00
        -11   -1    0    0    0    0  0.00000000000E+00  0.00000000000E+00  0.45593999997E+02  0.45594000000E+02  0.51100000000E-03 0.  1.
         11   -1    0    0    0    0 -0.00000000000E+00 -0.00000000000E+00 -0.45593999997E+02  0.45594000000E+02  0.51100000000E-03 0. -1.
    9900012    2    1    2    0    0  0.34122058808E+01  0.66611665184E+01  0.42750564595E+02  0.47787250449E+02  0.19999906098E+02 0.  0.
         12    1    1    2    0    0 -0.34122058808E+01 -0.66611665184E+01 -0.42750564595E+02  0.43400749551E+02  0.00000000000E+00 0. -1.
         11    1    3    3    0    0  0.76207686947E+01  0.35916808369E+01  0.34013663497E+02  0.35041483866E+02  0.51100000000E-03 0. -1.
        -11    1    3    3    0    0 -0.47477092900E+01  0.89945120035E+00  0.92639621626E+01  0.10448480807E+02  0.51100000000E-03 0.  1.
         12    1    3    3    0    0  0.53914647612E+00  0.21700344811E+01 -0.52706106480E+00  0.22972857763E+01  0.00000000000E+00 0. -1.
</event>
<event>
 7    1  0.2706925E-010  0.4778727E+02  0.7816164E-02  0.1312668E+00
        -11   -1    0    0    0    0  0.00000000000E+00  0.00000000000E+00  0.45593999997E+02  0.45594000000E+02  0.51100000000E-03 0.  1.
         11   -1    0    0    0    0 -0.00000000000E+00 -0.00000000000E+00 -0.45593999997E+02  0.45594000000E+02  0.51100000000E-03 0. -1.
    9900012    2    1    2    0    0  0.63209088548E+01 -0.14817954574E+02  0.40300094351E+02  0.47787271075E+02  0.20000000141E+02 0.  0.
         12    1    1    2    0    0 -0.63209088548E+01  0.14817954574E+02 -0.40300094351E+02  0.43400728925E+02  0.00000000000E+00 0. -1.
         11    1    3    3    0    0  0.66630345838E+01 -0.49817560009E+01  0.18174481687E+02  0.19988139172E+02  0.51100000000E-03 0. -1.
        -11    1    3    3    0    0  0.50886587205E+01 -0.79577258100E+01  0.19092602220E+02  0.21301345202E+02  0.51100000000E-03 0.  1.
         12    1    3    3    0    0 -0.54307844495E+01 -0.18784727635E+01  0.30330104440E+01  0.64977867012E+01  0.00000000000E+00 0. -1.
</event>
<event>
 7    1  0.2706925E-010  0.4778727E+02  0.7816164E-02  0.1312668E+00
        -11   -1    0    0    0    0  0.00000000000E+00  0.00000000000E+00  0.45593999997E+02  0.45594000000E+02  0.51100000000E-03 0.  1.
         11   -1    0    0    0    0 -0.00000000000E+00 -0.00000000000E+00 -0.45593999997E+02  0.45594000000E+02  0.51100000000E-03 0. -1.
    9900012    2    1    2    0    0 -0.41225931340E+02  0.10021786927E+02  0.91438165713E+01  0.47787274089E+02  0.20000013883E+02 0.  0.
         12    1    1    2    0    0  0.41225931340E+02 -0.10021786927E+02 -0.91438165713E+01  0.43400725911E+02  0.00000000000E+00 0. -1.
         11    1    3    3    0    0 -0.55646716717E+01  0.90513054664E+01  0.72178097298E+00  0.10649538464E+02  0.51100000000E-03 0. -1.
        -11    1    3    3    0    0 -0.25103210065E+02  0.25138114760E+01  0.79707186013E+01  0.26457943212E+02  0.51100000000E-03 0.  1.
         12    1    3    3    0    0 -0.10558049603E+02 -0.15433300158E+01  0.45131699698E+00  0.10679792413E+02  0.00000000000E+00 0. -1.
</event>
<event>
 7    1  0.2829451E-010  0.4778727E+02  0.7816164E-02  0.1312668E+00
        -11   -1    0    0    0    0  0.00000000000E+00  0.00000000000E+00  0.45593999997E+02  0.45594000000E+02  0.51100000000E-03 0. -1.
         11   -1    0    0    0    0 -0.00000000000E+00 -0.00000000000E+00 -0.45593999997E+02  0.45594000000E+02  0.51100000000E-03 0.  1.
    9900012    2    1    2    0    0  0.27855401716E+02  0.31693075699E+02 -0.10161139534E+02  0.47787271796E+02  0.20000003426E+02 0.  0.
         12    1    1    2    0    0 -0.27855401716E+02 -0.31693075699E+02  0.10161139534E+02  0.43400728204E+02  0.00000000000E+00 0. -1.
         11    1    3    3    0    0 -0.23382828347E+01  0.22251554689E+01  0.11655955501E+01  0.34318357657E+01  0.51100000000E-03 0. -1.
        -11    1    3    3    0    0  0.18146368866E+02  0.13208497178E+02 -0.81117870632E+01  0.23865376392E+02  0.51100000000E-03 0.  1.
        -12    1    3    3    0    0  0.12047315685E+02  0.16259423052E+02 -0.32149480207E+01  0.20490059638E+02  0.00000000000E+00 0.  1.
</event>
<event>
 7    1  0.2706925E-010  0.4778727E+02  0.7816164E-02  0.1312668E+00
        -11   -1    0    0    0    0  0.00000000000E+00  0.00000000000E+00  0.45593999997E+02  0.45594000000E+02  0.51100000000E-03 0. -1.
         11   -1    0    0    0    0 -0.00000000000E+00 -0.00000000000E+00 -0.45593999997E+02  0.45594000000E+02  0.51100000000E-03 0.  1.
    9900012    2    1    2    0    0 -0.43022213538E+02  0.14380937463E+01 -0.55357316625E+01  0.47787270785E+02  0.19999998816E+02 0.  0.
         12    1    1    2    0    0  0.43022213538E+02 -0.14380937463E+01  0.55357316625E+01  0.43400729215E+02  0.00000000000E+00 0. -1.
         11    1    3    3    0    0 -0.21406564878E+01 -0.41730863599E+01 -0.36135401315E+01  0.59207037174E+01  0.51100000000E-03 0. -1.
        -11    1    3    3    0    0 -0.34072715373E+02  0.71404006636E+01 -0.99783119044E+00  0.34827157821E+02  0.51100000000E-03 0.  1.
         12    1    3    3    0    0 -0.68088416772E+01 -0.15292205574E+01 -0.92436034062E+00  0.70394092463E+01  0.00000000000E+00 0. -1.
</event>
<event>
 7    1  0.2706925E-010  0.4778727E+02  0.7816164E-02  0.1312668E+00
        -11   -1    0    0    0    0  0.00000000000E+00  0.00000000000E+00  0.45593999997E+02  0.45594000000E+02  0.51100000000E-03 0.  1.
         11   -1    0    0    0    0 -0.00000000000E+00 -0.00000000000E+00 -0.45593999997E+02  0.45594000000E+02  0.51100000000E-03 0. -1.
    9900012    2    1    2    0    0 -0.86907784491E+01  0.29961375082E+02  0.30173000476E+02  0.47787267465E+02  0.19999983680E+02 0.  0.
         12    1    1    2    0    0  0.86907784491E+01 -0.29961375082E+02 -0.30173000476E+02  0.43400732535E+02  0.00000000000E+00 0. -1.
         11    1    3    3    0    0 -0.10124398944E+02  0.17783816785E+02  0.13581814213E+02  0.24560807621E+02  0.51100000000E-03 0. -1.
        -11    1    3    3    0    0  0.51064698995E+01  0.10826974214E+02  0.10173897265E+02  0.15710111116E+02  0.51100000000E-03 0.  1.
        -12    1    3    3    0    0 -0.36728494048E+01  0.13505840826E+01  0.64172889979E+01  0.75163487278E+01  0.00000000000E+00 0.  1.
</event>
<event>
 7    1  0.2706925E-010  0.4778727E+02  0.7816164E-02  0.1312668E+00
        -11   -1    0    0    0    0  0.00000000000E+00  0.00000000000E+00  0.45593999997E+02  0.45594000000E+02  0.51100000000E-03 0.  1.
         11   -1    0    0    0    0 -0.00000000000E+00 -0.00000000000E+00 -0.45593999997E+02  0.45594000000E+02  0.51100000000E-03 0. -1.
    9900012    2    1    2    0    0  0.20123408134E+02  0.27156089736E+01  0.38357491090E+02  0.47787271783E+02  0.20000003370E+02 0.  0.
         12    1    1    2    0    0 -0.20123408134E+02 -0.27156089736E+01 -0.38357491090E+02  0.43400728217E+02  0.00000000000E+00 0. -1.
         11    1    3    3    0    0 -0.63904703002E+00 -0.10589552892E+01 -0.12812879362E+01  0.17808611534E+01  0.51100000000E-03 0. -1.
        -11    1    3    3    0    0 -0.99075508176E+00 -0.97507093440E-01  0.64026175606E+00  0.11836547819E+01  0.51100000000E-03 0.  1.
         12    1    3    3    0    0  0.21753210246E+02  0.38720713562E+01  0.38998517270E+02  0.44822755848E+02  0.00000000000E+00 0. -1.
</event>
<event>
 7    1  0.2706925E-010  0.4778728E+02  0.7816164E-02  0.1312668E+00
        -11   -1    0    0    0    0  0.00000000000E+00  0.00000000000E+00  0.45593999997E+02  0.45594000000E+02  0.51100000000E-03 0.  1.
         11   -1    0    0    0    0 -0.00000000000E+00 -0.00000000000E+00 -0.45593999997E+02  0.45594000000E+02  0.51100000000E-03 0. -1.
    9900012    2    1    2    0    0  0.84907399566E+01 -0.38376604024E+02  0.18405594173E+02  0.47787282284E+02  0.20000051246E+02 0.  0.
         12    1    1    2    0    0 -0.84907399566E+01  0.38376604024E+02 -0.18405594173E+02  0.43400717716E+02  0.00000000000E+00 0. -1.
         11    1    3    3    0    0 -0.12498013137E+01 -0.18068026175E+00  0.30874978115E+01  0.33357595354E+01  0.51100000000E-03 0. -1.
        -11    1    3    3    0    0  0.49702327407E+01 -0.33289332806E+02  0.16535593726E+02  0.37500783356E+02  0.51100000000E-03 0.  1.
        -12    1    3    3    0    0  0.47703085296E+01 -0.49065909554E+01 -0.12174973646E+01  0.69507393926E+01  0.00000000000E+00 0.  1.
</event>
<event>
 7    1  0.2706925E-010  0.4778726E+02  0.7816164E-02  0.1312668E+00
        -11   -1    0    0    0    0  0.00000000000E+00  0.00000000000E+00  0.45593999997E+02  0.45594000000E+02  0.51100000000E-03 0.  1.
         11   -1    0    0    0    0 -0.00000000000E+00 -0.00000000000E+00 -0.45593999997E+02  0.45594000000E+02  0.51100000000E-03 0. -1.
    9900012    2    1    2    0    0 -0.16944705095E+02 -0.39173538904E+02  0.78698638317E+01  0.47787263396E+02  0.19999965130E+02 0.  0.
         12    1    1    2    0    0  0.16944705095E+02  0.39173538904E+02 -0.78698638317E+01  0.43400736604E+02  0.00000000000E+00 0. -1.
         11    1    3    3    0    0 -0.17210400231E+01 -0.12642364128E+01  0.52495272293E+01  0.56672576138E+01  0.51100000000E-03 0. -1.
        -11    1    3    3    0    0 -0.10666948868E+02 -0.32865425120E+02  0.50107190258E+01  0.34914571054E+02  0.51100000000E-03 0.  1.
        -12    1    3    3    0    0 -0.45567162041E+01 -0.50438773707E+01 -0.23903824234E+01  0.72054347284E+01  0.00000000000E+00 0.  1.
</event>
<event>
 7    1  0.2706925E-010  0.4778727E+02  0.7816164E-02  0.1312668E+00
        -11   -1    0    0    0    0  0.00000000000E+00  0.00000000000E+00  0.45593999997E+02  0.45594000000E+02  0.51100000000E-03 0. -1.
         11   -1    0    0    0    0 -0.00000000000E+00 -0.00000000000E+00 -0.45593999997E+02  0.45594000000E+02  0.51100000000E-03 0.  1.
    9900012    2    1    2    0    0 -0.40005439417E+02  0.16645849780E+02 -0.24705932315E+01  0.47787270412E+02  0.19999997116E+02 0.  0.
         12    1    1    2    0    0  0.40005439417E+02 -0.16645849780E+02  0.24705932315E+01  0.43400729588E+02  0.00000000000E+00 0. -1.
         11    1    3    3    0    0 -0.21675254197E+02  0.13916609645E+02  0.23793634595E+01  0.25867934577E+02  0.51100000000E-03 0.  1.
        -11    1    3    3    0    0 -0.97065716201E+01 -0.38908647791E+01 -0.16514937112E+01  0.10586963355E+02  0.51100000000E-03 0. -1.
         12    1    3    3    0    0 -0.86236135998E+01  0.66201049142E+01 -0.31984629798E+01  0.11332372480E+02  0.00000000000E+00 0. -1.
</event>
<event>
 7    1  0.2706925E-010  0.4778727E+02  0.7816164E-02  0.1312668E+00
        -11   -1    0    0    0    0  0.00000000000E+00  0.00000000000E+00  0.45593999997E+02  0.45594000000E+02  0.51100000000E-03 0.  1.
         11   -1    0    0    0    0 -0.00000000000E+00 -0.00000000000E+00 -0.45593999997E+02  0.45594000000E+02  0.51100000000E-03 0. -1.
    9900012    2    1    2    0    0 -0.35285783014E+01 -0.22692001448E+02  0.36827238022E+02  0.47787271263E+02  0.20000000999E+02 0.  0.
         12    1    1    2    0    0  0.35285783014E+01  0.22692001448E+02 -0.36827238022E+02  0.43400728737E+02  0.00000000000E+00 0. -1.
         11    1    3    3    0    0  0.66107741018E+01 -0.69844882323E+01  0.13877603995E+02  0.16884113924E+02  0.51100000000E-03 0. -1.
        -11    1    3    3    0    0 -0.58477925310E+00 -0.88959016140E+01  0.88873055484E+01  0.12588218002E+02  0.51100000000E-03 0.  1.
         12    1    3    3    0    0 -0.95545731501E+01 -0.68116116020E+01  0.14062328478E+02  0.18314939337E+02  0.00000000000E+00 0. -1.
</event>
<event>
 7    1  0.2706925E-010  0.4778727E+02  0.7816164E-02  0.1312668E+00
        -11   -1    0    0    0    0  0.00000000000E+00  0.00000000000E+00  0.45593999997E+02  0.45594000000E+02  0.51100000000E-03 0. -1.
         11   -1    0    0    0    0 -0.00000000000E+00 -0.00000000000E+00 -0.45593999997E+02  0.45594000000E+02  0.51100000000E-03 0.  1.
    9900012    2    1    2    0    0 -0.13179422277E+02 -0.61859112048E+01 -0.40885947430E+02  0.47787269981E+02  0.19999995150E+02 0.  0.
         12    1    1    2    0    0  0.13179422277E+02  0.61859112048E+01  0.40885947430E+02  0.43400730019E+02  0.00000000000E+00 0. -1.
         11    1    3    3    0    0 -0.20176458429E+01 -0.73156908968E+01 -0.14570528369E+02  0.16428345177E+02  0.51100000000E-03 0. -1.
        -11    1    3    3    0    0 -0.79043174086E+01  0.54441943399E+01 -0.23229368909E+02  0.25134061866E+02  0.51100000000E-03 0.  1.
        -12    1    3    3    0    0 -0.32574590252E+01 -0.43144146479E+01 -0.30860501514E+01  0.62248629376E+01  0.00000000000E+00 0.  1.
</event>
<event>
 7    1  0.2706925E-010  0.4778726E+02  0.7816164E-02  0.1312668E+00
        -11   -1    0    0    0    0  0.00000000000E+00  0.00000000000E+00  0.45593999997E+02  0.45594000000E+02  0.51100000000E-03 0.  1.
         11   -1    0    0    0    0 -0.00000000000E+00 -0.00000000000E+00 -0.45593999997E+02  0.45594000000E+02  0.51100000000E-03 0. -1.
    9900012    2    1    2    0    0 -0.11600379976E+02 -0.12650811761E+02  0.39862421651E+02  0.47787256761E+02  0.19999934878E+02 0.  0.
         12    1    1    2    0    0  0.11600379976E+02  0.12650811761E+02 -0.39862421651E+02  0.43400743239E+02  0.00000000000E+00 0. -1.
         11    1    3    3    0    0  0.33991040360E+00 -0.80132147990E+01  0.33503639388E+01  0.86920704830E+01  0.51100000000E-03 0. -1.
        -11    1    3    3    0    0 -0.98596653046E+01 -0.59345367536E+01  0.29373377699E+02  0.31547219277E+02  0.51100000000E-03 0.  1.
         12    1    3    3    0    0 -0.20806250746E+01  0.12969397919E+01  0.71386800131E+01  0.75479670014E+01  0.00000000000E+00 0. -1.
</event>
<event>
 7    1  0.2706925E-010  0.4778727E+02  0.7816164E-02  0.1312668E+00
        -11   -1    0    0    0    0  0.00000000000E+00  0.00000000000E+00  0.45593999997E+02  0.45594000000E+02  0.51100000000E-03 0.  1.
         11   -1    0    0    0    0 -0.00000000000E+00 -0.00000000000E+00 -0.45593999997E+02  0.45594000000E+02  0.51100000000E-03 0. -1.
    9900012    2    1    2    0    0 -0.82956107782E+01  0.39385476991E+02 -0.16235457507E+02  0.47787273780E+02  0.20000012472E+02 0.  0.
         12    1    1    2    0    0  0.82956107782E+01 -0.39385476991E+02  0.16235457507E+02  0.43400726220E+02  0.00000000000E+00 0. -1.
         11    1    3    3    0    0  0.13422421745E+01  0.27266431661E+02 -0.39441191077E+01  0.27582892984E+02  0.51100000000E-03 0. -1.
        -11    1    3    3    0    0 -0.49111327323E+01  0.92331719665E+01 -0.73523587935E+01  0.12783891010E+02  0.51100000000E-03 0.  1.
         12    1    3    3    0    0 -0.47267202204E+01  0.28858733633E+01 -0.49389796059E+01  0.74204897856E+01  0.00000000000E+00 0. -1.
</event>
<event>
 7    1  0.2706925E-010  0.4778727E+02  0.7816164E-02  0.1312668E+00
        -11   -1    0    0    0    0  0.00000000000E+00  0.00000000000E+00  0.45593999997E+02  0.45594000000E+02  0.51100000000E-03 0.  1.
         11   -1    0    0    0    0 -0.00000000000E+00 -0.00000000000E+00 -0.45593999997E+02  0.45594000000E+02  0.51100000000E-03 0. -1.
    9900012    2    1    2    0    0  0.15630749954E-01 -0.16336911964E+02  0.40208557680E+02  0.47787273652E+02  0.20000011889E+02 0.  0.
         12    1    1    2    0    0 -0.15630749954E-01  0.16336911964E+02 -0.40208557680E+02  0.43400726348E+02  0.00000000000E+00 0. -1.
         11    1    3    3    0    0  0.12627743626E+01 -0.28378393636E+00  0.47619177301E+01  0.49346725467E+01  0.51100000000E-03 0. -1.
        -11    1    3    3    0    0 -0.25810319941E+01 -0.78306078998E+00 -0.13315910252E+01  0.30079968874E+01  0.51100000000E-03 0.  1.
        -12    1    3    3    0    0  0.13338883814E+01 -0.15270067238E+02  0.36778230975E+02  0.39844604218E+02  0.00000000000E+00 0.  1.
</event>
<event>
 7    1  0.2706925E-010  0.4778727E+02  0.7816164E-02  0.1312668E+00
        -11   -1    0    0    0    0  0.00000000000E+00  0.00000000000E+00  0.45593999997E+02  0.45594000000E+02  0.51100000000E-03 0.  1.
         11   -1    0    0    0    0 -0.00000000000E+00 -0.00000000000E+00 -0.45593999997E+02  0.45594000000E+02  0.51100000000E-03 0. -1.
    9900012    2    1    2    0    0 -0.36043007354E+02  0.24116433773E+02  0.17095491084E+01  0.47787270569E+02  0.19999997831E+02 0.  0.
         12    1    1    2    0    0  0.36043007354E+02 -0.24116433773E+02 -0.17095491084E+01  0.43400729431E+02  0.00000000000E+00 0. -1.
         11    1    3    3    0    0 -0.14906458892E+02  0.94876117242E+01 -0.60339551292E+01  0.18671526657E+02  0.51100000000E-03 0. -1.
        -11    1    3    3    0    0 -0.20521812857E+02  0.11552272697E+02  0.96434778126E+01  0.25447916849E+02  0.51100000000E-03 0.  1.
        -12    1    3    3    0    0 -0.61473560510E+00  0.30765493514E+01 -0.18999735751E+01  0.36678270627E+01  0.00000000000E+00 0.  1.
</event>
<event>
 7    1  0.2706925E-010  0.4778727E+02  0.7816164E-02  0.1312668E+00
        -11   -1    0    0    0    0  0.00000000000E+00  0.00000000000E+00  0.45593999997E+02  0.45594000000E+02  0.51100000000E-03 0. -1.
         11   -1    0    0    0    0 -0.00000000000E+00 -0.00000000000E+00 -0.45593999997E+02  0.45594000000E+02  0.51100000000E-03 0.  1.
    9900012    2    1    2    0    0 -0.15498783790E+02 -0.37897025923E+02 -0.14395355946E+02  0.47787272523E+02  0.20000006740E+02 0.  0.
         12    1    1    2    0    0  0.15498783790E+02  0.37897025923E+02  0.14395355946E+02  0.43400727477E+02  0.00000000000E+00 0. -1.
         11    1    3    3    0    0  0.12669096253E+01  0.17723778756E+01 -0.76087822051E+00  0.23076653268E+01  0.51100000000E-03 0. -1.
        -11    1    3    3    0    0 -0.12815442366E+02 -0.34993054812E+02 -0.11770675887E+02  0.39080663495E+02  0.51100000000E-03 0.  1.
         12    1    3    3    0    0 -0.39502510495E+01 -0.46763489860E+01 -0.18638018382E+01  0.63989437007E+01  0.00000000000E+00 0. -1.
</event>
<event>
 7    1  0.2706925E-010  0.4778729E+02  0.7816164E-02  0.1312668E+00
        -11   -1    0    0    0    0  0.00000000000E+00  0.00000000000E+00  0.45593999997E+02  0.45594000000E+02  0.51100000000E-03 0.  1.
         11   -1    0    0    0    0 -0.00000000000E+00 -0.00000000000E+00 -0.45593999997E+02  0.45594000000E+02  0.51100000000E-03 0. -1.
    9900012    2    1    2    0    0  0.26498835499E+02  0.45017030481E+01  0.34075915953E+02  0.47787289623E+02  0.20000084709E+02 0.  0.
         12    1    1    2    0    0 -0.26498835499E+02 -0.45017030481E+01 -0.34075915953E+02  0.43400710377E+02  0.00000000000E+00 0. -1.
         11    1    3    3    0    0  0.32021996525E+01  0.33543059793E+01  0.20021027842E+02  0.20551082875E+02  0.51100000000E-03 0. -1.
        -11    1    3    3    0    0  0.12043397125E+02  0.77097513889E+00  0.74507690917E+01  0.14182798641E+02  0.51100000000E-03 0.  1.
         12    1    3    3    0    0  0.11253238722E+02  0.37642192987E+00  0.66041190193E+01  0.13053408107E+02  0.00000000000E+00 0. -1.
</event>
<event>
 7    1  0.2706925E-010  0.4778727E+02  0.7816164E-02  0.1312668E+00
        -11   -1    0    0    0    0  0.00000000000E+00  0.00000000000E+00  0.45593999997E+02  0.45594000000E+02  0.51100000000E-03 0.  1.
         11   -1    0    0    0    0 -0.00000000000E+00 -0.00000000000E+00 -0.45593999997E+02  0.45594000000E+02  0.51100000000E-03 0. -1.
    9900012    2    1    2    0    0  0.64903263616E+01  0.20753706574E+02  0.37560389790E+02  0.47787267817E+02  0.19999985284E+02 0.  0.
         12    1    1    2    0    0 -0.64903263616E+01 -0.20753706574E+02 -0.37560389790E+02  0.43400732183E+02  0.00000000000E+00 0. -1.
         11    1    3    3    0    0  0.27802437453E+01  0.11304806070E+02  0.77920212440E+01  0.14008711250E+02  0.51100000000E-03 0. -1.
        -11    1    3    3    0    0  0.62732862559E+01  0.94446441960E+01  0.28944815179E+02  0.31086295219E+02  0.51100000000E-03 0.  1.
         12    1    3    3    0    0 -0.25632036397E+01  0.42563081996E-02  0.82355336731E+00  0.26922613475E+01  0.00000000000E+00 0. -1.
</event>
<event>
 7    1  0.2706925E-010  0.4778727E+02  0.7816164E-02  0.1312668E+00
        -11   -1    0    0    0    0  0.00000000000E+00  0.00000000000E+00  0.45593999997E+02  0.45594000000E+02  0.51100000000E-03 0.  1.
         11   -1    0    0    0    0 -0.00000000000E+00 -0.00000000000E+00 -0.45593999997E+02  0.45594000000E+02  0.51100000000E-03 0. -1.
    9900012    2    1    2    0    0 -0.16352016427E+02 -0.24238540059E+02  0.32073792450E+02  0.47787269274E+02  0.19999991927E+02 0.  0.
         12    1    1    2    0    0  0.16352016427E+02  0.24238540059E+02 -0.32073792450E+02  0.43400730726E+02  0.00000000000E+00 0. -1.
         11    1    3    3    0    0 -0.15774201980E+01 -0.26655946580E+01  0.95754072023E+01  0.10063899479E+02  0.51100000000E-03 0. -1.
        -11    1    3    3    0    0 -0.11369412071E+02 -0.36858144565E+01  0.10572995460E+02  0.15957349163E+02  0.51100000000E-03 0.  1.
        -12    1    3    3    0    0 -0.34051841582E+01 -0.17887130944E+02  0.11925389788E+02  0.21766020633E+02  0.00000000000E+00 0.  1.
</event>
<event>
 7    1  0.2706925E-010  0.4778727E+02  0.7816164E-02  0.1312668E+00
        -11   -1    0    0    0    0  0.00000000000E+00  0.00000000000E+00  0.45593999997E+02  0.45594000000E+02  0.51100000000E-03 0. -1.
         11   -1    0    0    0    0 -0.00000000000E+00 -0.00000000000E+00 -0.45593999997E+02  0.45594000000E+02  0.51100000000E-03 0.  1.
    9900012    2    1    2    0    0  0.33798020293E+02 -0.18959907472E+02 -0.19540704464E+02  0.47787269614E+02  0.19999993480E+02 0.  0.
         12    1    1    2    0    0 -0.33798020293E+02  0.18959907472E+02  0.19540704464E+02  0.43400730386E+02  0.00000000000E+00 0. -1.
         11    1    3    3    0    0  0.40468393334E+01 -0.32064663049E+01  0.25673086398E+01  0.57662300221E+01  0.51100000000E-03 0. -1.
        -11    1    3    3    0    0  0.17177829199E+02 -0.13487271540E+02 -0.18816638398E+02  0.28827941141E+02  0.51100000000E-03 0.  1.
        -12    1    3    3    0    0  0.12573351761E+02 -0.22661696265E+01 -0.32913747054E+01  0.13193098451E+02  0.00000000000E+00 0.  1.
</event>
<event>
 7    1  0.2706925E-010  0.4778727E+02  0.7816164E-02  0.1312668E+00
        -11   -1    0    0    0    0  0.00000000000E+00  0.00000000000E+00  0.45593999997E+02  0.45594000000E+02  0.51100000000E-03 0.  1.
         11   -1    0    0    0    0 -0.00000000000E+00 -0.00000000000E+00 -0.45593999997E+02  0.45594000000E+02  0.51100000000E-03 0. -1.
    9900012    2    1    2    0    0  0.77606612841E+01 -0.30140286393E+02  0.30248279377E+02  0.47787272672E+02  0.20000007419E+02 0.  0.
         12    1    1    2    0    0 -0.77606612841E+01  0.30140286393E+02 -0.30248279377E+02  0.43400727328E+02  0.00000000000E+00 0. -1.
         11    1    3    3    0    0  0.84848025888E-01 -0.12419529566E+02  0.16339267657E+01  0.12526836423E+02  0.51100000000E-03 0. -1.
        -11    1    3    3    0    0  0.13051352607E+01 -0.10852965671E+02  0.18390624181E+02  0.21394048236E+02  0.51100000000E-03 0.  1.
         12    1    3    3    0    0  0.63706779976E+01 -0.68677911551E+01  0.10223728430E+02  0.13866388013E+02  0.00000000000E+00 0. -1.
</event>
<event>
 7    1  0.2706925E-010  0.4778727E+02  0.7816164E-02  0.1312668E+00
        -11   -1    0    0    0    0  0.00000000000E+00  0.00000000000E+00  0.45593999997E+02  0.45594000000E+02  0.51100000000E-03 0.  1.
         11   -1    0    0    0    0 -0.00000000000E+00 -0.00000000000E+00 -0.45593999997E+02  0.45594000000E+02  0.51100000000E-03 0. -1.
    9900012    2    1    2    0    0 -0.18690394713E+02  0.38867050392E+02 -0.48625809091E+01  0.47787272428E+02  0.20000006309E+02 0.  0.
         12    1    1    2    0    0  0.18690394713E+02 -0.38867050392E+02  0.48625809091E+01  0.43400727572E+02  0.00000000000E+00 0. -1.
         11    1    3    3    0    0 -0.23327707066E+01 -0.58376633292E+00  0.26340350514E+01  0.35666150920E+01  0.51100000000E-03 0. -1.
        -11    1    3    3    0    0 -0.80046310535E+01  0.29230029068E+02 -0.40289338299E+01  0.30572880559E+02  0.51100000000E-03 0.  1.
         12    1    3    3    0    0 -0.83529929532E+01  0.10220787656E+02 -0.34676821306E+01  0.13647776777E+02  0.00000000000E+00 0. -1.
</event>
<event>
 7    1  0.2706925E-010  0.4778727E+02  0.7816164E-02  0.1312668E+00
        -11   -1    0    0    0    0  0.00000000000E+00  0.00000000000E+00  0.45593999997E+02  0.45594000000E+02  0.51100000000E-03 0.  1.
         11   -1    0    0    0    0 -0.00000000000E+00 -0.00000000000E+00 -0.45593999997E+02  0.45594000000E+02  0.51100000000E-03 0. -1.
    9900012    2    1    2    0    0  0.87980425013E+01  0.36709453062E+02 -0.21415732101E+02  0.47787273308E+02  0.20000010320E+02 0.  0.
         12    1    1    2    0    0 -0.87980425013E+01 -0.36709453062E+02  0.21415732101E+02  0.43400726692E+02  0.00000000000E+00 0. -1.
         11    1    3    3    0    0 -0.21127416083E+01  0.14878439103E+02 -0.13400068415E+02  0.20134385042E+02  0.51100000000E-03 0. -1.
        -11    1    3    3    0    0  0.10718437489E+02  0.18828833296E+02 -0.30954727437E+01  0.21885881688E+02  0.51100000000E-03 0.  1.
         12    1    3    3    0    0  0.19234662024E+00  0.30021806638E+01 -0.49201909425E+01  0.57670065780E+01  0.00000000000E+00 0. -1.
</event>
<event>
 7    1  0.2706925E-010  0.4778727E+02  0.7816164E-02  0.1312668E+00
        -11   -1    0    0    0    0  0.00000000000E+00  0.00000000000E+00  0.45593999997E+02  0.45594000000E+02  0.51100000000E-03 0.  1.
         11   -1    0    0    0    0 -0.00000000000E+00 -0.00000000000E+00 -0.45593999997E+02  0.45594000000E+02  0.51100000000E-03 0. -1.
    9900012    2    1    2    0    0 -0.66554926096E+01  0.26209776937E+02  0.33946653913E+02  0.47787270733E+02  0.19999998582E+02 0.  0.
         12    1    1    2    0    0  0.66554926096E+01 -0.26209776937E+02 -0.33946653913E+02  0.43400729267E+02  0.00000000000E+00 0. -1.
         11    1    3    3    0    0  0.23190508338E+00 -0.22453146571E+01 -0.48839920786E+00  0.23094917026E+01  0.51100000000E-03 0. -1.
        -11    1    3    3    0    0 -0.70009698055E+01  0.28413511268E+02  0.33277929780E+02  0.44314352207E+02  0.51100000000E-03 0.  1.
         12    1    3    3    0    0  0.11357211248E+00  0.41580326189E-01  0.11571233412E+01  0.11634268241E+01  0.00000000000E+00 0. -1.
</event>
<event>
 7    1  0.2706925E-010  0.4778727E+02  0.7816164E-02  0.1312668E+00
        -11   -1    0    0    0    0  0.00000000000E+00  0.00000000000E+00  0.45593999997E+02  0.45594000000E+02  0.51100000000E-03 0.  1.
         11   -1    0    0    0    0 -0.00000000000E+00 -0.00000000000E+00 -0.45593999997E+02  0.45594000000E+02  0.51100000000E-03 0. -1.
    9900012    2    1    2    0    0  0.37137422721E+02  0.49668435538E+01  0.21903563284E+02  0.47787265147E+02  0.19999973110E+02 0.  0.
         12    1    1    2    0    0 -0.37137422721E+02 -0.49668435538E+01 -0.21903563284E+02  0.43400734853E+02  0.00000000000E+00 0. -1.
         11    1    3    3    0    0  0.42942270098E+01 -0.56698188430E+01  0.18283186527E+01  0.73437034717E+01  0.51100000000E-03 0. -1.
        -11    1    3    3    0    0  0.21020387268E+02  0.99162283080E+01  0.13980979258E+02  0.27122980036E+02  0.51100000000E-03 0.  1.
        -12    1    3    3    0    0  0.11822808443E+02  0.72043408873E+00  0.60942653742E+01  0.13320581639E+02  0.00000000000E+00 0.  1.
</event>
<event>
 7    1  0.2706925E-010  0.4778727E+02  0.7816164E-02  0.1312668E+00
        -11   -1    0    0    0    0  0.00000000000E+00  0.00000000000E+00  0.45593999997E+02  0.45594000000E+02  0.51100000000E-03 0.  1.
         11   -1    0    0    0    0 -0.00000000000E+00 -0.00000000000E+00 -0.45593999997E+02  0.45594000000E+02  0.51100000000E-03 0. -1.
    9900012    2    1    2    0    0 -0.95169019796E+01 -0.48019472836E+01  0.42071285064E+02  0.47787272496E+02  0.20000006617E+02 0.  0.
         12    1    1    2    0    0  0.95169019796E+01  0.48019472836E+01 -0.42071285064E+02  0.43400727504E+02  0.00000000000E+00 0. -1.
         11    1    3    3    0    0 -0.14548870625E+01 -0.74919711667E+01  0.25629947166E+02  0.26742111366E+02  0.51100000000E-03 0. -1.
        -11    1    3    3    0    0  0.13650878993E+01 -0.16355642701E+01  0.58282182048E+01  0.62053737323E+01  0.51100000000E-03 0.  1.
         12    1    3    3    0    0 -0.94271028163E+01  0.43255881532E+01  0.10613119693E+02  0.14839787398E+02  0.00000000000E+00 0. -1.
</event>
<event>
 7    1  0.2706925E-010  0.4778727E+02  0.7816164E-02  0.1312668E+00
        -11   -1    0    0    0    0  0.00000000000E+00  0.00000000000E+00  0.45593999997E+02  0.45594000000E+02  0.51100000000E-03 0.  1.
         11   -1    0    0    0    0 -0.00000000000E+00 -0.00000000000E+00 -0.45593999997E+02  0.45594000000E+02  0.51100000000E-03 0. -1.
    9900012    2    1    2    0    0  0.11595430318E+02  0.11691184087E+02  0.40155762551E+02  0.47787273558E+02  0.20000011461E+02 0.  0.
         12    1    1    2    0    0 -0.11595430318E+02 -0.11691184087E+02 -0.40155762551E+02  0.43400726442E+02  0.00000000000E+00 0. -1.
         11    1    3    3    0    0 -0.11456203660E+01 -0.16503234980E+01  0.25754092377E+01  0.32663047430E+01  0.51100000000E-03 0. -1.
        -11    1    3    3    0    0 -0.23266507124E+01  0.71694911615E+01  0.10570084181E+02  0.12982356755E+02  0.51100000000E-03 0.  1.
        -12    1    3    3    0    0  0.15067701396E+02  0.61720164233E+01  0.27010269132E+02  0.31538612060E+02  0.00000000000E+00 0.  1.
</event>
<event>
 7    1  0.2706925E-010  0.4778727E+02  0.7816164E-02  0.1312668E+00
        -11   -1    0    0    0    0  0.00000000000E+00  0.00000000000E+00  0.45593999997E+02  0.45594000000E+02  0.51100000000E-03 0.  1.
         11   -1    0    0    0    0 -0.00000000000E+00 -0.00000000000E+00 -0.45593999997E+02  0.45594000000E+02  0.51100000000E-03 0. -1.
    9900012    2    1    2    0    0  0.40385256477E+02  0.14865225732E+02  0.56284449145E+01  0.47787271102E+02  0.20000000262E+02 0.  0.
         12    1    1    2    0    0 -0.40385256477E+02 -0.14865225732E+02 -0.56284449145E+01  0.43400728898E+02  0.00000000000E+00 0. -1.
         11    1    3    3    0    0  0.16041296673E+02  0.11481637393E+01 -0.41187401390E+01  0.16601370411E+02  0.51100000000E-03 0. -1.
        -11    1    3    3    0    0  0.63067621486E+01 -0.74948678931E+00  0.83455285675E+00  0.64057363338E+01  0.51100000000E-03 0.  1.
         12    1    3    3    0    0  0.18037197655E+02  0.14466548782E+02  0.89126321967E+01  0.24780164357E+02  0.00000000000E+00 0. -1.
</event>
<event>
 7    1  0.2706925E-010  0.4778727E+02  0.7816164E-02  0.1312668E+00
        -11   -1    0    0    0    0  0.00000000000E+00  0.00000000000E+00  0.45593999997E+02  0.45594000000E+02  0.51100000000E-03 0.  1.
         11   -1    0    0    0    0 -0.00000000000E+00 -0.00000000000E+00 -0.45593999997E+02  0.45594000000E+02  0.51100000000E-03 0. -1.
    9900012    2    1    2    0    0 -0.31794131982E+01  0.37394529846E+02  0.21798248693E+02  0.47787272163E+02  0.20000005101E+02 0.  0.
         12    1    1    2    0    0  0.31794131982E+01 -0.37394529846E+02 -0.21798248693E+02  0.43400727837E+02  0.00000000000E+00 0. -1.
         11    1    3    3    0    0 -0.96814851548E+00  0.80849100755E+01  0.10818812669E+02  0.13540671708E+02  0.51100000000E-03 0. -1.
        -11    1    3    3    0    0 -0.31827868640E+00  0.29983790712E+02  0.87302802646E+01  0.31230542751E+02  0.51100000000E-03 0.  1.
        -12    1    3    3    0    0 -0.18929859963E+01 -0.67417094170E+00  0.22491557599E+01  0.30160577039E+01  0.00000000000E+00 0.  1.
</event>
<event>
 7    1  0.2706925E-010  0.4778727E+02  0.7816164E-02  0.1312668E+00
        -11   -1    0    0    0    0  0.00000000000E+00  0.00000000000E+00  0.45593999997E+02  0.45594000000E+02  0.51100000000E-03 0. -1.
         11   -1    0    0    0    0 -0.00000000000E+00 -0.00000000000E+00 -0.45593999997E+02  0.45594000000E+02  0.51100000000E-03 0.  1.
    9900012    2    1    2    0    0  0.15730095941E+02 -0.40333910095E+02 -0.30599316286E+01  0.47787269552E+02  0.19999993196E+02 0.  0.
         12    1    1    2    0    0 -0.15730095941E+02  0.40333910095E+02  0.30599316286E+01  0.43400730448E+02  0.00000000000E+00 0. -1.
         11    1    3    3    0    0  0.66791871847E+01 -0.65741146132E+01 -0.73353007513E+01  0.11901141196E+02  0.51100000000E-03 0. -1.
        -11    1    3    3    0    0  0.76724865034E+01 -0.18500414549E+02  0.46461342758E+01  0.20560130145E+02  0.51100000000E-03 0.  1.
         12    1    3    3    0    0  0.13784222531E+01 -0.15259380932E+02 -0.37076515318E+00  0.15325998211E+02  0.00000000000E+00 0. -1.
</event>
<event>
 7    1  0.2706925E-010  0.4778722E+02  0.7816164E-02  0.1312668E+00
        -11   -1    0    0    0    0  0.00000000000E+00  0.00000000000E+00  0.45593999997E+02  0.45594000000E+02  0.51100000000E-03 0.  1.
         11   -1    0    0    0    0 -0.00000000000E+00 -0.00000000000E+00 -0.45593999997E+02  0.45594000000E+02  0.51100000000E-03 0. -1.
    9900012    2    1    2    0    0  0.18881410047E+02 -0.21672333755E+02  0.32518144422E+02  0.47787223366E+02  0.19999782615E+02 0.  0.
         12    1    1    2    0    0 -0.18881410047E+02  0.21672333755E+02 -0.32518144422E+02  0.43400776634E+02  0.00000000000E+00 0. -1.
         11    1    3    3    0    0 -0.12014986447E+01  0.21018526022E+01  0.53005310906E+01  0.58272646635E+01  0.51100000000E-03 0. -1.
        -11    1    3    3    0    0  0.20235263676E+02 -0.21115276157E+02  0.25394773794E+02  0.38732613126E+02  0.51100000000E-03 0.  1.
         12    1    3    3    0    0 -0.15235498457E+00 -0.26589102001E+01  0.18228395376E+01  0.32273455769E+01  0.00000000000E+00 0. -1.
</event>
<event>
 7    1  0.2706925E-010  0.4778726E+02  0.7816164E-02  0.1312668E+00
        -11   -1    0    0    0    0  0.00000000000E+00  0.00000000000E+00  0.45593999997E+02  0.45594000000E+02  0.51100000000E-03 0.  1.
         11   -1    0    0    0    0 -0.00000000000E+00 -0.00000000000E+00 -0.45593999997E+02  0.45594000000E+02  0.51100000000E-03 0. -1.
    9900012    2    1    2    0    0  0.37459378754E+02  0.21198918625E+02  0.55700208350E+01  0.47787258766E+02  0.19999944019E+02 0.  0.
         12    1    1    2    0    0 -0.37459378754E+02 -0.21198918625E+02 -0.55700208350E+01  0.43400741234E+02  0.00000000000E+00 0. -1.
         11    1    3    3    0    0  0.63789438724E+01  0.12945593913E+02  0.37375596854E+01  0.14908007223E+02  0.51100000000E-03 0. -1.
        -11    1    3    3    0    0  0.19651853837E+02  0.64247491491E+01  0.41187097910E+01  0.21081663394E+02  0.51100000000E-03 0.  1.
         12    1    3    3    0    0  0.11428581045E+02  0.18285755628E+01 -0.22862486414E+01  0.11797588149E+02  0.00000000000E+00 0. -1.
</event>
<event>
 7    1  0.2706925E-010  0.4778727E+02  0.7816164E-02  0.1312668E+00
        -11   -1    0    0    0    0  0.00000000000E+00  0.00000000000E+00  0.45593999997E+02  0.45594000000E+02  0.51100000000E-03 0.  1.
         11   -1    0    0    0    0 -0.00000000000E+00 -0.00000000000E+00 -0.45593999997E+02  0.45594000000E+02  0.51100000000E-03 0. -1.
    9900012    2    1    2    0    0 -0.12961187099E+02 -0.39921218335E+02  0.11042061880E+02  0.47787272185E+02  0.20000005199E+02 0.  0.
         12    1    1    2    0    0  0.12961187099E+02  0.39921218335E+02 -0.11042061880E+02  0.43400727815E+02  0.00000000000E+00 0. -1.
         11    1    3    3    0    0 -0.17476487878E+00 -0.23264160076E+01 -0.11420350495E+01  0.25974985118E+01  0.51100000000E-03 0. -1.
        -11    1    3    3    0    0 -0.30883062415E+01 -0.10155749939E+01  0.60287394178E+01  0.68494326216E+01  0.51100000000E-03 0.  1.
        -12    1    3    3    0    0 -0.96981159784E+01 -0.36579227333E+02  0.61553575116E+01  0.38340341051E+02  0.00000000000E+00 0.  1.
</event>
<event>
 7    1  0.2706925E-010  0.4778727E+02  0.7816164E-02  0.1312668E+00
        -11   -1    0    0    0    0  0.00000000000E+00  0.00000000000E+00  0.45593999997E+02  0.45594000000E+02  0.51100000000E-03 0. -1.
         11   -1    0    0    0    0 -0.00000000000E+00 -0.00000000000E+00 -0.45593999997E+02  0.45594000000E+02  0.51100000000E-03 0.  1.
    9900012    2    1    2    0    0 -0.32400788608E+02  0.77846218642E+00 -0.28865309065E+02  0.47787272204E+02  0.20000005287E+02 0.  0.
         12    1    1    2    0    0  0.32400788608E+02 -0.77846218642E+00  0.28865309065E+02  0.43400727796E+02  0.00000000000E+00 0. -1.
         11    1    3    3    0    0 -0.24126486223E+02 -0.33777884996E+01 -0.10926722289E+02  0.26700000990E+02  0.51100000000E-03 0. -1.
        -11    1    3    3    0    0 -0.50189543613E+00  0.15804513375E+00 -0.72986212708E+01  0.73175644862E+01  0.51100000000E-03 0.  1.
         12    1    3    3    0    0 -0.77724069490E+01  0.39982055523E+01 -0.10639965505E+02  0.13769706728E+02  0.00000000000E+00 0. -1.
</event>
<event>
 7    1  0.2706925E-010  0.4778728E+02  0.7816164E-02  0.1312668E+00
        -11   -1    0    0    0    0  0.00000000000E+00  0.00000000000E+00  0.45593999997E+02  0.45594000000E+02  0.51100000000E-03 0. -1.
         11   -1    0    0    0    0 -0.00000000000E+00 -0.00000000000E+00 -0.45593999997E+02  0.45594000000E+02  0.51100000000E-03 0.  1.
    9900012    2    1    2    0    0  0.43048801840E+02 -0.93069275631E+00 -0.54366643754E+01  0.47787275946E+02  0.20000022347E+02 0.  0.
         12    1    1    2    0    0 -0.43048801840E+02  0.93069275631E+00  0.54366643754E+01  0.43400724054E+02  0.00000000000E+00 0. -1.
         11    1    3    3    0    0  0.19439351033E+01  0.22974988700E+01 -0.40835369517E+00  0.30371265606E+01  0.51100000000E-03 0. -1.
        -11    1    3    3    0    0  0.37930951969E+02  0.10754982164E+01 -0.77810386457E+01  0.38735750623E+02  0.51100000000E-03 0.  1.
        -12    1    3    3    0    0  0.31739147682E+01 -0.43036898427E+01  0.27527279654E+01  0.60143987621E+01  0.00000000000E+00 0.  1.
</event>
<event>
 7    1  0.2706925E-010  0.4778727E+02  0.7816164E-02  0.1312668E+00
        -11   -1    0    0    0    0  0.00000000000E+00  0.00000000000E+00  0.45593999997E+02  0.45594000000E+02  0.51100000000E-03 0.  1.
         11   -1    0    0    0    0 -0.00000000000E+00 -0.00000000000E+00 -0.45593999997E+02  0.45594000000E+02  0.51100000000E-03 0. -1.
    9900012    2    1    2    0    0 -0.12206291262E+01 -0.40750459228E+02  0.14884002020E+02  0.47787269835E+02  0.19999994484E+02 0.  0.
         12    1    1    2    0    0  0.12206291262E+01  0.40750459228E+02 -0.14884002020E+02  0.43400730165E+02  0.00000000000E+00 0. -1.
         11    1    3    3    0    0 -0.52499992072E+01 -0.96638300054E+01  0.11510819919E+02  0.15920146906E+02  0.51100000000E-03 0. -1.
        -11    1    3    3    0    0  0.46736428669E+01 -0.27218810820E+02  0.39693932240E+01  0.27900944123E+02  0.51100000000E-03 0.  1.
         12    1    3    3    0    0 -0.64427278584E+00 -0.38678184026E+01 -0.59621112295E+00  0.39661788060E+01  0.00000000000E+00 0. -1.
</event>
<event>
 7    1  0.2706925E-010  0.4778727E+02  0.7816164E-02  0.1312668E+00
        -11   -1    0    0    0    0  0.00000000000E+00  0.00000000000E+00  0.45593999997E+02  0.45594000000E+02  0.51100000000E-03 0.  1.
         11   -1    0    0    0    0 -0.00000000000E+00 -0.00000000000E+00 -0.45593999997E+02  0.45594000000E+02  0.51100000000E-03 0. -1.
    9900012    2    1    2    0    0  0.29638321277E+02 -0.39800294850E+01  0.31453973870E+02  0.47787271952E+02  0.20000004138E+02 0.  0.
         12    1    1    2    0    0 -0.29638321277E+02  0.39800294850E+01 -0.31453973870E+02  0.43400728048E+02  0.00000000000E+00 0. -1.
         11    1    3    3    0    0  0.14075841952E+02  0.59543020971E+01  0.89210580755E+01  0.17696562310E+02  0.51100000000E-03 0. -1.
        -11    1    3    3    0    0  0.21336969649E+01 -0.46340274070E+01  0.87629779909E+01  0.10139854845E+02  0.51100000000E-03 0.  1.
         12    1    3    3    0    0  0.13428782360E+02 -0.53003041752E+01  0.13769937804E+02  0.19950854798E+02  0.00000000000E+00 0. -1.
</event>
<event>
 7    1  0.2706925E-010  0.4778727E+02  0.7816164E-02  0.1312668E+00
        -11   -1    0    0    0    0  0.00000000000E+00  0.00000000000E+00  0.45593999997E+02  0.45594000000E+02  0.51100000000E-03 0.  1.
         11   -1    0    0    0    0 -0.00000000000E+00 -0.00000000000E+00 -0.45593999997E+02  0.45594000000E+02  0.51100000000E-03 0. -1.
    9900012    2    1    2    0    0  0.66520405308E+01  0.25659900915E+02  0.34364851337E+02  0.47787272292E+02  0.20000005688E+02 0.  0.
         12    1    1    2    0    0 -0.66520405308E+01 -0.25659900915E+02 -0.34364851337E+02  0.43400727708E+02  0.00000000000E+00 0. -1.
         11    1    3    3    0    0  0.83137667323E+01  0.22548882362E+02  0.28034379669E+02  0.36925563729E+02  0.51100000000E-03 0.  1.
        -11    1    3    3    0    0 -0.38522323387E+01 -0.11120429866E+01  0.22726167390E+01  0.46088090326E+01  0.51100000000E-03 0. -1.
         12    1    3    3    0    0  0.21905061373E+01  0.42230615402E+01  0.40578549286E+01  0.62528995299E+01  0.00000000000E+00 0. -1.
</event>
<event>
 7    1  0.2706925E-010  0.4778727E+02  0.7816164E-02  0.1312668E+00
        -11   -1    0    0    0    0  0.00000000000E+00  0.00000000000E+00  0.45593999997E+02  0.45594000000E+02  0.51100000000E-03 0. -1.
         11   -1    0    0    0    0 -0.00000000000E+00 -0.00000000000E+00 -0.45593999997E+02  0.45594000000E+02  0.51100000000E-03 0.  1.
    9900012    2    1    2    0    0  0.16180325517E+02 -0.12663625649E+00 -0.40271633258E+02  0.47787269409E+02  0.19999992543E+02 0.  0.
         12    1    1    2    0    0 -0.16180325517E+02  0.12663625649E+00  0.40271633258E+02  0.43400730591E+02  0.00000000000E+00 0. -1.
         11    1    3    3    0    0  0.42021788702E+01 -0.90818776703E+00  0.76085186472E+00  0.43660059664E+01  0.51100000000E-03 0. -1.
        -11    1    3    3    0    0  0.92296085206E+01  0.32385921658E+01 -0.35092734444E+02  0.36430401640E+02  0.51100000000E-03 0.  1.
        -12    1    3    3    0    0  0.27485381264E+01 -0.24570406552E+01 -0.59397506788E+01  0.69908618024E+01  0.00000000000E+00 0.  1.
</event>
<event>
 7    1  0.2706925E-010  0.4778727E+02  0.7816164E-02  0.1312668E+00
        -11   -1    0    0    0    0  0.00000000000E+00  0.00000000000E+00  0.45593999997E+02  0.45594000000E+02  0.51100000000E-03 0.  1.
         11   -1    0    0    0    0 -0.00000000000E+00 -0.00000000000E+00 -0.45593999997E+02  0.45594000000E+02  0.51100000000E-03 0. -1.
    9900012    2    1    2    0    0 -0.20568209768E+02  0.13456453050E+02  0.35770048899E+02  0.47787265213E+02  0.19999973414E+02 0.  0.
         12    1    1    2    0    0  0.20568209768E+02 -0.13456453050E+02 -0.35770048899E+02  0.43400734787E+02  0.00000000000E+00 0. -1.
         11    1    3    3    0    0 -0.49293734659E+01 -0.10728158389E+01 -0.48882098600E+00  0.50683925270E+01  0.51100000000E-03 0. -1.
        -11    1    3    3    0    0 -0.88202911907E+01  0.12766871273E+02  0.23947062219E+02  0.28535106938E+02  0.51100000000E-03 0.  1.
        -12    1    3    3    0    0 -0.68185451115E+01  0.17623976163E+01  0.12311807666E+02  0.14183765748E+02  0.00000000000E+00 0.  1.
</event>
<event>
 7    1  0.2706925E-010  0.4778726E+02  0.7816164E-02  0.1312668E+00
        -11   -1    0    0    0    0  0.00000000000E+00  0.00000000000E+00  0.45593999997E+02  0.45594000000E+02  0.51100000000E-03 0. -1.
         11   -1    0    0    0    0 -0.00000000000E+00 -0.00000000000E+00 -0.45593999997E+02  0.45594000000E+02  0.51100000000E-03 0.  1.
    9900012    2    1    2    0    0 -0.38697983640E+02 -0.12456631461E+02 -0.15196151625E+02  0.47787255429E+02  0.19999928802E+02 0.  0.
         12    1    1    2    0    0  0.38697983640E+02  0.12456631461E+02  0.15196151625E+02  0.43400744571E+02  0.00000000000E+00 0. -1.
         11    1    3    3    0    0 -0.99649519328E+01  0.50001049444E+01 -0.33416691033E+01  0.11639075098E+02  0.51100000000E-03 0. -1.
        -11    1    3    3    0    0 -0.11856442624E+02 -0.75526550531E+01 -0.80963551448E+01  0.16222478138E+02  0.51100000000E-03 0.  1.
         12    1    3    3    0    0 -0.16876589083E+02 -0.99040813518E+01 -0.37581273767E+01  0.19925702193E+02  0.00000000000E+00 0. -1.
</event>
<event>
 7    1  0.2706925E-010  0.4778729E+02  0.7816164E-02  0.1312668E+00
        -11   -1    0    0    0    0  0.00000000000E+00  0.00000000000E+00  0.45593999997E+02  0.45594000000E+02  0.51100000000E-03 0. -1.
         11   -1    0    0    0    0 -0.00000000000E+00 -0.00000000000E+00 -0.45593999997E+02  0.45594000000E+02  0.51100000000E-03 0.  1.
    9900012    2    1    2    0    0  0.41624086041E+02  0.11334312136E+02 -0.47528964092E+01  0.47787294999E+02  0.20000109218E+02 0.  0.
         12    1    1    2    0    0 -0.41624086041E+02 -0.11334312136E+02  0.47528964092E+01  0.43400705001E+02  0.00000000000E+00 0. -1.
         11    1    3    3    0    0  0.79217024251E+00 -0.13378098282E+01  0.19709718855E+01  0.25103783110E+01  0.51100000000E-03 0. -1.
        -11    1    3    3    0    0  0.32968488165E+02  0.10499071553E+02  0.16345482152E+00  0.34600266373E+02  0.51100000000E-03 0.  1.
        -12    1    3    3    0    0  0.78634276332E+01  0.21730504109E+01 -0.68873231163E+01  0.10676650315E+02  0.00000000000E+00 0.  1.
</event>
<event>
 7    1  0.2706925E-010  0.4778727E+02  0.7816164E-02  0.1312668E+00
        -11   -1    0    0    0    0  0.00000000000E+00  0.00000000000E+00  0.45593999997E+02  0.45594000000E+02  0.51100000000E-03 0.  1.
         11   -1    0    0    0    0 -0.00000000000E+00 -0.00000000000E+00 -0.45593999997E+02  0.45594000000E+02  0.51100000000E-03 0. -1.
    9900012    2    1    2    0    0  0.12205544811E+02  0.25998444421E+02  0.32538111988E+02  0.47787272262E+02  0.20000005550E+02 0.  0.
         12    1    1    2    0    0 -0.12205544811E+02 -0.25998444421E+02 -0.32538111988E+02  0.43400727738E+02  0.00000000000E+00 0. -1.
         11    1    3    3    0    0  0.12293125906E+01  0.14180850271E+02  0.52494711999E+01  0.15171178992E+02  0.51100000000E-03 0. -1.
        -11    1    3    3    0    0  0.41748496013E+01  0.50141409271E+01  0.46319010176E+01  0.80015926995E+01  0.51100000000E-03 0.  1.
         12    1    3    3    0    0  0.68013826195E+01  0.68034532229E+01  0.22656739771E+02  0.24614500570E+02  0.00000000000E+00 0. -1.
</event>
<event>
 7    1  0.3598930E-010  0.4778727E+02  0.7816164E-02  0.1312668E+00
        -11   -1    0    0    0    0  0.00000000000E+00  0.00000000000E+00  0.45593999997E+02  0.45594000000E+02  0.51100000000E-03 0.  1.
         11   -1    0    0    0    0 -0.00000000000E+00 -0.00000000000E+00 -0.45593999997E+02  0.45594000000E+02  0.51100000000E-03 0. -1.
    9900012    2    1    2    0    0 -0.30465328443E+02  0.25270596133E+02  0.17801250587E+02  0.47787265115E+02  0.19999972967E+02 0.  0.
         12    1    1    2    0    0  0.30465328443E+02 -0.25270596133E+02 -0.17801250587E+02  0.43400734885E+02  0.00000000000E+00 0. -1.
         11    1    3    3    0    0  0.92198249043E-01 -0.40629191190E+00 -0.72707632744E+00  0.83798202954E+00  0.51100000000E-03 0. -1.
        -11    1    3    3    0    0 -0.11890814803E+02  0.14227150510E+02  0.44141292769E+00  0.18547186685E+02  0.51100000000E-03 0.  1.
        -12    1    3    3    0    0 -0.18666711890E+02  0.11449737535E+02  0.18086913987E+02  0.28402096401E+02  0.00000000000E+00 0.  1.
</event>
<event>
 7    1  0.2706925E-010  0.4778728E+02  0.7816164E-02  0.1312668E+00
        -11   -1    0    0    0    0  0.00000000000E+00  0.00000000000E+00  0.45593999997E+02  0.45594000000E+02  0.51100000000E-03 0.  1.
         11   -1    0    0    0    0 -0.00000000000E+00 -0.00000000000E+00 -0.45593999997E+02  0.45594000000E+02  0.51100000000E-03 0. -1.
    9900012    2    1    2    0    0  0.72250771952E+01  0.80522875103E+01  0.42030724792E+02  0.47787275338E+02  0.20000019575E+02 0.  0.
         12    1    1    2    0    0 -0.72250771952E+01 -0.80522875103E+01 -0.42030724792E+02  0.43400724662E+02  0.00000000000E+00 0. -1.
         11    1    3    3    0    0  0.26395410465E+01 -0.44284396281E-01 -0.60245158789E+00  0.27077825283E+01  0.51100000000E-03 0. -1.
        -11    1    3    3    0    0 -0.11860096426E+01  0.75126757968E+01  0.32732512617E+02  0.33604527954E+02  0.51100000000E-03 0.  1.
        -12    1    3    3    0    0  0.57715457914E+01  0.58389610983E+00  0.99006637629E+01  0.11474964856E+02  0.00000000000E+00 0.  1.
</event>
<event>
 7    1  0.2706925E-010  0.4778727E+02  0.7816164E-02  0.1312668E+00
        -11   -1    0    0    0    0  0.00000000000E+00  0.00000000000E+00  0.45593999997E+02  0.45594000000E+02  0.51100000000E-03 0. -1.
         11   -1    0    0    0    0 -0.00000000000E+00 -0.00000000000E+00 -0.45593999997E+02  0.45594000000E+02  0.51100000000E-03 0.  1.
    9900012    2    1    2    0    0  0.48074350250E+00  0.81362614505E+01 -0.42628550247E+02  0.47787272346E+02  0.20000005936E+02 0.  0.
         12    1    1    2    0    0 -0.48074350250E+00 -0.81362614505E+01  0.42628550247E+02  0.43400727654E+02  0.00000000000E+00 0. -1.
         11    1    3    3    0    0 -0.10731156906E+01 -0.13928697596E+01  0.20833283881E-01  0.17584361630E+01  0.51100000000E-03 0. -1.
        -11    1    3    3    0    0  0.63041458632E+01  0.54298073478E+01 -0.35739681759E+02  0.36695366402E+02  0.51100000000E-03 0.  1.
        -12    1    3    3    0    0 -0.47502866700E+01  0.40993238624E+01 -0.69097017721E+01  0.93334697811E+01  0.00000000000E+00 0.  1.
</event>
<event>
 7    1  0.2706925E-010  0.4778728E+02  0.7816164E-02  0.1312668E+00
        -11   -1    0    0    0    0  0.00000000000E+00  0.00000000000E+00  0.45593999997E+02  0.45594000000E+02  0.51100000000E-03 0.  1.
         11   -1    0    0    0    0 -0.00000000000E+00 -0.00000000000E+00 -0.45593999997E+02  0.45594000000E+02  0.51100000000E-03 0. -1.
    9900012    2    1    2    0    0 -0.34862724656E+02 -0.11726684694E+02  0.23036887374E+02  0.47787275533E+02  0.20000020467E+02 0.  0.
         12    1    1    2    0    0  0.34862724656E+02  0.11726684694E+02 -0.23036887374E+02  0.43400724467E+02  0.00000000000E+00 0. -1.
         11    1    3    3    0    0 -0.17505415228E+02  0.15739922776E+01  0.10090234266E+02  0.20266470876E+02  0.51100000000E-03 0.  1.
        -11    1    3    3    0    0 -0.71901953764E+01 -0.60666825594E+01 -0.18054666038E+00  0.94093647067E+01  0.51100000000E-03 0. -1.
         12    1    3    3    0    0 -0.10167114052E+02 -0.72339944125E+01  0.13127199769E+02  0.18111439950E+02  0.00000000000E+00 0. -1.
</event>
<event>
 7    1  0.2706925E-010  0.4778727E+02  0.7816164E-02  0.1312668E+00
        -11   -1    0    0    0    0  0.00000000000E+00  0.00000000000E+00  0.45593999997E+02  0.45594000000E+02  0.51100000000E-03 0.  1.
         11   -1    0    0    0    0 -0.00000000000E+00 -0.00000000000E+00 -0.45593999997E+02  0.45594000000E+02  0.51100000000E-03 0. -1.
    9900012    2    1    2    0    0 -0.26052090488E+02 -0.33683068946E+02  0.83882434072E+01  0.47787272127E+02  0.20000004936E+02 0.  0.
         12    1    1    2    0    0  0.26052090488E+02  0.33683068946E+02 -0.83882434072E+01  0.43400727873E+02  0.00000000000E+00 0. -1.
         11    1    3    3    0    0 -0.19217383075E+01 -0.28992704366E+01 -0.35724469655E+01  0.49861031647E+01  0.51100000000E-03 0. -1.
        -11    1    3    3    0    0 -0.22713857825E+02 -0.29365591889E+02  0.74497935382E+01  0.37864980500E+02  0.51100000000E-03 0.  1.
        -12    1    3    3    0    0 -0.14164943555E+01 -0.14182066211E+01  0.45108968345E+01  0.49361884618E+01  0.00000000000E+00 0.  1.
</event>
<event>
 7    1  0.2706925E-010  0.4778728E+02  0.7816164E-02  0.1312668E+00
        -11   -1    0    0    0    0  0.00000000000E+00  0.00000000000E+00  0.45593999997E+02  0.45594000000E+02  0.51100000000E-03 0.  1.
         11   -1    0    0    0    0 -0.00000000000E+00 -0.00000000000E+00 -0.45593999997E+02  0.45594000000E+02  0.51100000000E-03 0. -1.
    9900012    2    1    2    0    0 -0.20339374772E+02 -0.20993758811E+02  0.32081064856E+02  0.47787276533E+02  0.20000025026E+02 0.  0.
         12    1    1    2    0    0  0.20339374772E+02  0.20993758811E+02 -0.32081064856E+02  0.43400723467E+02  0.00000000000E+00 0. -1.
         11    1    3    3    0    0  0.31055945335E+01 -0.10867741600E+01  0.11102658686E+01  0.34725330871E+01  0.51100000000E-03 0. -1.
        -11    1    3    3    0    0 -0.81874833060E+01 -0.10610778647E+02  0.16921115080E+02  0.21585820397E+02  0.51100000000E-03 0.  1.
         12    1    3    3    0    0 -0.15257486000E+02 -0.92962060033E+01  0.14049683908E+02  0.22728923050E+02  0.00000000000E+00 0. -1.
</event>
<event>
 7    1  0.2706925E-010  0.4778727E+02  0.7816164E-02  0.1312668E+00
        -11   -1    0    0    0    0  0.00000000000E+00  0.00000000000E+00  0.45593999997E+02  0.45594000000E+02  0.51100000000E-03 0.  1.
         11   -1    0    0    0    0 -0.00000000000E+00 -0.00000000000E+00 -0.45593999997E+02  0.45594000000E+02  0.51100000000E-03 0. -1.
    9900012    2    1    2    0    0  0.88553372823E+01 -0.40910753926E+02 -0.11468059800E+02  0.47787272117E+02  0.20000004890E+02 0.  0.
         12    1    1    2    0    0 -0.88553372823E+01  0.40910753926E+02  0.11468059800E+02  0.43400727883E+02  0.00000000000E+00 0. -1.
         11    1    3    3    0    0 -0.30292896864E+01 -0.29214071086E+01 -0.50535320715E+01  0.65764277657E+01  0.51100000000E-03 0. -1.
        -11    1    3    3    0    0  0.42738077813E+01 -0.26460494482E+02 -0.55312088339E+01  0.27368183582E+02  0.51100000000E-03 0.  1.
        -12    1    3    3    0    0  0.76108191874E+01 -0.11528852336E+02 -0.88331889463E+00  0.13842660769E+02  0.00000000000E+00 0.  1.
</event>
<event>
 7    1  0.2706925E-010  0.4778727E+02  0.7816164E-02  0.1312668E+00
        -11   -1    0    0    0    0  0.00000000000E+00  0.00000000000E+00  0.45593999997E+02  0.45594000000E+02  0.51100000000E-03 0.  1.
         11   -1    0    0    0    0 -0.00000000000E+00 -0.00000000000E+00 -0.45593999997E+02  0.45594000000E+02  0.51100000000E-03 0. -1.
    9900012    2    1    2    0    0 -0.16882268395E+01  0.36229246082E+02  0.23837254812E+02  0.47787273065E+02  0.20000009212E+02 0.  0.
         12    1    1    2    0    0  0.16882268395E+01 -0.36229246082E+02 -0.23837254812E+02  0.43400726935E+02  0.00000000000E+00 0. -1.
         11    1    3    3    0    0  0.64296734276E+01  0.77558276242E+01  0.47747298882E+01  0.11148614635E+02  0.51100000000E-03 0. -1.
        -11    1    3    3    0    0  0.14821098500E+01  0.10941269517E+02  0.90847774240E+01  0.14298293931E+02  0.51100000000E-03 0.  1.
         12    1    3    3    0    0 -0.96000101171E+01  0.17532148941E+02  0.99777474994E+01  0.22340364498E+02  0.00000000000E+00 0. -1.
</event>
<event>
 7    1  0.2706925E-010  0.4778727E+02  0.7816164E-02  0.1312668E+00
        -11   -1    0    0    0    0  0.00000000000E+00  0.00000000000E+00  0.45593999997E+02  0.45594000000E+02  0.51100000000E-03 0. -1.
         11   -1    0    0    0    0 -0.00000000000E+00 -0.00000000000E+00 -0.45593999997E+02  0.45594000000E+02  0.51100000000E-03 0.  1.
    9900012    2    1    2    0    0 -0.34200088251E+02 -0.26334256763E+02  0.45259925103E+01  0.47787265860E+02  0.19999976363E+02 0.  0.
         12    1    1    2    0    0  0.34200088251E+02  0.26334256763E+02 -0.45259925103E+01  0.43400734140E+02  0.00000000000E+00 0. -1.
         11    1    3    3    0    0 -0.36488241171E+01 -0.72864278783E+00  0.24465770575E+01  0.44531536363E+01  0.51100000000E-03 0. -1.
        -11    1    3    3    0    0 -0.10362880048E+02 -0.11948345486E+02  0.87346821655E+01  0.18067842027E+02  0.51100000000E-03 0.  1.
        -12    1    3    3    0    0 -0.20188384087E+02 -0.13657268490E+02 -0.66552667126E+01  0.25266270196E+02  0.00000000000E+00 0.  1.
</event>
<event>
 7    1  0.2706925E-010  0.4778728E+02  0.7816164E-02  0.1312668E+00
        -11   -1    0    0    0    0  0.00000000000E+00  0.00000000000E+00  0.45593999997E+02  0.45594000000E+02  0.51100000000E-03 0.  1.
         11   -1    0    0    0    0 -0.00000000000E+00 -0.00000000000E+00 -0.45593999997E+02  0.45594000000E+02  0.51100000000E-03 0. -1.
    9900012    2    1    2    0    0  0.36116158950E+01  0.10610024322E+02  0.41928587314E+02  0.47787276278E+02  0.20000023860E+02 0.  0.
         12    1    1    2    0    0 -0.36116158950E+01 -0.10610024322E+02 -0.41928587314E+02  0.43400723722E+02  0.00000000000E+00 0. -1.
         11    1    3    3    0    0 -0.29504007792E+01  0.87453967533E+01  0.89200454353E+01  0.12835655026E+02  0.51100000000E-03 0. -1.
        -11    1    3    3    0    0  0.70568151021E+01 -0.33274795244E+00  0.12818835598E+02  0.14636663108E+02  0.51100000000E-03 0.  1.
        -12    1    3    3    0    0 -0.49479842796E+00  0.21973755210E+01  0.20189706281E+02  0.20314958143E+02  0.00000000000E+00 0.  1.
</event>
<event>
 7    1  0.2706925E-010  0.4778728E+02  0.7816164E-02  0.1312668E+00
        -11   -1    0    0    0    0  0.00000000000E+00  0.00000000000E+00  0.45593999997E+02  0.45594000000E+02  0.51100000000E-03 0.  1.
         11   -1    0    0    0    0 -0.00000000000E+00 -0.00000000000E+00 -0.45593999997E+02  0.45594000000E+02  0.51100000000E-03 0. -1.
    9900012    2    1    2    0    0 -0.42920709108E+02 -0.59427686731E+01  0.24736922200E+01  0.47787275086E+02  0.20000018427E+02 0.  0.
         12    1    1    2    0    0  0.42920709108E+02  0.59427686731E+01 -0.24736922200E+01  0.43400724914E+02  0.00000000000E+00 0. -1.
         11    1    3    3    0    0 -0.16655609932E+02 -0.85809025878E+01  0.74215867977E+01  0.20152448543E+02  0.51100000000E-03 0. -1.
        -11    1    3    3    0    0 -0.21265661130E+02  0.32501560010E+01 -0.15690999626E+01  0.21569745763E+02  0.51100000000E-03 0.  1.
        -12    1    3    3    0    0 -0.49994380457E+01 -0.61202208633E+00 -0.33787946151E+01  0.60650807791E+01  0.00000000000E+00 0.  1.
</event>
<event>
 7    1  0.2706925E-010  0.4778727E+02  0.7816164E-02  0.1312668E+00
        -11   -1    0    0    0    0  0.00000000000E+00  0.00000000000E+00  0.45593999997E+02  0.45594000000E+02  0.51100000000E-03 0. -1.
         11   -1    0    0    0    0 -0.00000000000E+00 -0.00000000000E+00 -0.45593999997E+02  0.45594000000E+02  0.51100000000E-03 0.  1.
    9900012    2    1    2    0    0 -0.20408519812E+02 -0.38251009874E+02  0.19939765560E+01  0.47787269824E+02  0.19999994438E+02 0.  0.
         12    1    1    2    0    0  0.20408519812E+02  0.38251009874E+02 -0.19939765560E+01  0.43400730176E+02  0.00000000000E+00 0. -1.
         11    1    3    3    0    0 -0.61732669489E+01 -0.50103708098E+01  0.19490735998E+01  0.81860813966E+01  0.51100000000E-03 0. -1.
        -11    1    3    3    0    0 -0.90057940625E+01 -0.45930368170E+01 -0.23594539828E+01  0.10381104819E+02  0.51100000000E-03 0.  1.
        -12    1    3    3    0    0 -0.52294588007E+01 -0.28647602247E+02  0.24043569389E+01  0.29220083609E+02  0.00000000000E+00 0.  1.
</event>
<event>
 7    1  0.2706925E-010  0.4778727E+02  0.7816164E-02  0.1312668E+00
        -11   -1    0    0    0    0  0.00000000000E+00  0.00000000000E+00  0.45593999997E+02  0.45594000000E+02  0.51100000000E-03 0.  1.
         11   -1    0    0    0    0 -0.00000000000E+00 -0.00000000000E+00 -0.45593999997E+02  0.45594000000E+02  0.51100000000E-03 0. -1.
    9900012    2    1    2    0    0  0.23571835334E+02 -0.20815090041E+02  0.29911936267E+02  0.47787270448E+02  0.19999997279E+02 0.  0.
         12    1    1    2    0    0 -0.23571835334E+02  0.20815090041E+02 -0.29911936267E+02  0.43400729552E+02  0.00000000000E+00 0. -1.
         11    1    3    3    0    0 -0.53907775581E+00 -0.33065126054E-01  0.23761048830E+01  0.24367135255E+01  0.51100000000E-03 0. -1.
        -11    1    3    3    0    0  0.15995662087E+02 -0.28100372568E+01  0.10994463782E+02  0.19612132701E+02  0.51100000000E-03 0.  1.
        -12    1    3    3    0    0  0.81152510033E+01 -0.17971987658E+02  0.16541367602E+02  0.25738424221E+02  0.00000000000E+00 0.  1.
</event>
<event>
 7    1  0.2706925E-010  0.4778727E+02  0.7816164E-02  0.1312668E+00
        -11   -1    0    0    0    0  0.00000000000E+00  0.00000000000E+00  0.45593999997E+02  0.45594000000E+02  0.51100000000E-03 0.  1.
         11   -1    0    0    0    0 -0.00000000000E+00 -0.00000000000E+00 -0.45593999997E+02  0.45594000000E+02  0.51100000000E-03 0. -1.
    9900012    2    1    2    0    0  0.33860598419E+02 -0.15436908551E+02 -0.22333493200E+02  0.47787272017E+02  0.20000004435E+02 0.  0.
         12    1    1    2    0    0 -0.33860598419E+02  0.15436908551E+02  0.22333493200E+02  0.43400727983E+02  0.00000000000E+00 0. -1.
         11    1    3    3    0    0  0.12258995228E+02  0.19043937594E+01 -0.36080221661E+01  0.12920042717E+02  0.51100000000E-03 0. -1.
        -11    1    3    3    0    0  0.89631633104E+01 -0.82235889070E+01 -0.25940055039E+01  0.12437627421E+02  0.51100000000E-03 0.  1.
         12    1    3    3    0    0  0.12638439881E+02 -0.91177134031E+01 -0.16131465530E+02  0.22429601880E+02  0.00000000000E+00 0. -1.
</event>
<event>
 7    1  0.2706925E-010  0.4778727E+02  0.7816164E-02  0.1312668E+00
        -11   -1    0    0    0    0  0.00000000000E+00  0.00000000000E+00  0.45593999997E+02  0.45594000000E+02  0.51100000000E-03 0.  1.
         11   -1    0    0    0    0 -0.00000000000E+00 -0.00000000000E+00 -0.45593999997E+02  0.45594000000E+02  0.51100000000E-03 0. -1.
    9900012    2    1    2    0    0 -0.27970995142E+02  0.11301620216E+02  0.31201281010E+02  0.47787272755E+02  0.20000007798E+02 0.  0.
         12    1    1    2    0    0  0.27970995142E+02 -0.11301620216E+02 -0.31201281010E+02  0.43400727245E+02  0.00000000000E+00 0. -1.
         11    1    3    3    0    0 -0.11824280943E+01 -0.28645918348E+01  0.55310465173E+01  0.63400708526E+01  0.51100000000E-03 0. -1.
        -11    1    3    3    0    0 -0.13645584160E+02  0.13672375616E+02  0.13909173658E+02  0.23803380730E+02  0.51100000000E-03 0.  1.
        -12    1    3    3    0    0 -0.13142982887E+02  0.49383643493E+00  0.11761060835E+02  0.17643821172E+02  0.00000000000E+00 0.  1.
</event>
<event>
 7    1  0.2706925E-010  0.4778727E+02  0.7816164E-02  0.1312668E+00
        -11   -1    0    0    0    0  0.00000000000E+00  0.00000000000E+00  0.45593999997E+02  0.45594000000E+02  0.51100000000E-03 0.  1.
         11   -1    0    0    0    0 -0.00000000000E+00 -0.00000000000E+00 -0.45593999997E+02  0.45594000000E+02  0.51100000000E-03 0. -1.
    9900012    2    1    2    0    0 -0.19639419036E+02  0.18986522863E+02  0.33725778206E+02  0.47787274820E+02  0.20000017215E+02 0.  0.
         12    1    1    2    0    0  0.19639419036E+02 -0.18986522863E+02 -0.33725778206E+02  0.43400725180E+02  0.00000000000E+00 0. -1.
         11    1    3    3    0    0 -0.14796584037E+02  0.19117430472E+02  0.22775994983E+02  0.33213867507E+02  0.51100000000E-03 0. -1.
        -11    1    3    3    0    0  0.23544263553E+01 -0.31866826123E+00  0.33247099789E+01  0.40863883354E+01  0.51100000000E-03 0.  1.
         12    1    3    3    0    0 -0.71972613548E+01  0.18776065259E+00  0.76250732440E+01  0.10487018978E+02  0.00000000000E+00 0. -1.
</event>
<event>
 7    1  0.2706925E-010  0.4778726E+02  0.7816164E-02  0.1312668E+00
        -11   -1    0    0    0    0  0.00000000000E+00  0.00000000000E+00  0.45593999997E+02  0.45594000000E+02  0.51100000000E-03 0.  1.
         11   -1    0    0    0    0 -0.00000000000E+00 -0.00000000000E+00 -0.45593999997E+02  0.45594000000E+02  0.51100000000E-03 0. -1.
    9900012    2    1    2    0    0 -0.10352098827E+02  0.21532617466E+02  0.36232641858E+02  0.47787263819E+02  0.19999967055E+02 0.  0.
         12    1    1    2    0    0  0.10352098827E+02 -0.21532617466E+02 -0.36232641858E+02  0.43400736181E+02  0.00000000000E+00 0. -1.
         11    1    3    3    0    0 -0.39696988589E+01  0.73518628783E+01  0.16616428110E+01  0.85187706803E+01  0.51100000000E-03 0. -1.
        -11    1    3    3    0    0 -0.89958915582E+01  0.12226689855E+02  0.30338584717E+02  0.33924146749E+02  0.51100000000E-03 0.  1.
         12    1    3    3    0    0  0.26134915900E+01  0.19540647329E+01  0.42324143296E+01  0.53443463893E+01  0.00000000000E+00 0. -1.
</event>
<event>
 7    1  0.2706925E-010  0.4778727E+02  0.7816164E-02  0.1312668E+00
        -11   -1    0    0    0    0  0.00000000000E+00  0.00000000000E+00  0.45593999997E+02  0.45594000000E+02  0.51100000000E-03 0.  1.
         11   -1    0    0    0    0 -0.00000000000E+00 -0.00000000000E+00 -0.45593999997E+02  0.45594000000E+02  0.51100000000E-03 0. -1.
    9900012    2    1    2    0    0  0.31839616537E+02 -0.66521113629E+01  0.28733457927E+02  0.47787269922E+02  0.19999994884E+02 0.  0.
         12    1    1    2    0    0 -0.31839616537E+02  0.66521113629E+01 -0.28733457927E+02  0.43400730078E+02  0.00000000000E+00 0. -1.
         11    1    3    3    0    0  0.36631907137E+01 -0.44861781565E+00  0.12112892126E+01  0.38842561665E+01  0.51100000000E-03 0. -1.
        -11    1    3    3    0    0  0.11665300686E+02  0.32577473148E+01  0.23341213443E+01  0.12334515814E+02  0.51100000000E-03 0.  1.
        -12    1    3    3    0    0  0.16511125137E+02 -0.94612408621E+01  0.25188047371E+02  0.31568497941E+02  0.00000000000E+00 0.  1.
</event>
<event>
 7    1  0.2706925E-010  0.4778727E+02  0.7816164E-02  0.1312668E+00
        -11   -1    0    0    0    0  0.00000000000E+00  0.00000000000E+00  0.45593999997E+02  0.45594000000E+02  0.51100000000E-03 0.  1.
         11   -1    0    0    0    0 -0.00000000000E+00 -0.00000000000E+00 -0.45593999997E+02  0.45594000000E+02  0.51100000000E-03 0. -1.
    9900012    2    1    2    0    0 -0.41434215070E+02  0.67142624589E+01  0.11033929259E+02  0.47787273120E+02  0.20000009462E+02 0.  0.
         12    1    1    2    0    0  0.41434215070E+02 -0.67142624589E+01 -0.11033929259E+02  0.43400726880E+02  0.00000000000E+00 0. -1.
         11    1    3    3    0    0 -0.10017083130E+02 -0.11787721812E+01  0.10334301780E+02  0.14440541951E+02  0.51100000000E-03 0. -1.
        -11    1    3    3    0    0 -0.17778465364E+02  0.41623463260E+01  0.42939912377E+01  0.18757327065E+02  0.51100000000E-03 0.  1.
         12    1    3    3    0    0 -0.13638666576E+02  0.37306883141E+01 -0.35943637582E+01  0.14589404103E+02  0.00000000000E+00 0. -1.
</event>
<event>
 7    1  0.2706925E-010  0.4778728E+02  0.7816164E-02  0.1312668E+00
        -11   -1    0    0    0    0  0.00000000000E+00  0.00000000000E+00  0.45593999997E+02  0.45594000000E+02  0.51100000000E-03 0.  1.
         11   -1    0    0    0    0 -0.00000000000E+00 -0.00000000000E+00 -0.45593999997E+02  0.45594000000E+02  0.51100000000E-03 0. -1.
    9900012    2    1    2    0    0  0.17414336620E+02 -0.77228694873E+01  0.38996422184E+02  0.47787276778E+02  0.20000026142E+02 0.  0.
         12    1    1    2    0    0 -0.17414336620E+02  0.77228694873E+01 -0.38996422184E+02  0.43400723222E+02  0.00000000000E+00 0. -1.
         11    1    3    3    0    0  0.21755835359E+00 -0.36096611866E+01  0.79396642711E+00  0.37023463463E+01  0.51100000000E-03 0. -1.
        -11    1    3    3    0    0  0.18071823987E+02 -0.65577946706E+01  0.31577943010E+02  0.36969744091E+02  0.51100000000E-03 0.  1.
        -12    1    3    3    0    0 -0.87504572009E+00  0.24445863699E+01  0.66245127466E+01  0.71151863407E+01  0.00000000000E+00 0.  1.
</event>
<event>
 7    1  0.2706925E-010  0.4778727E+02  0.7816164E-02  0.1312668E+00
        -11   -1    0    0    0    0  0.00000000000E+00  0.00000000000E+00  0.45593999997E+02  0.45594000000E+02  0.51100000000E-03 0.  1.
         11   -1    0    0    0    0 -0.00000000000E+00 -0.00000000000E+00 -0.45593999997E+02  0.45594000000E+02  0.51100000000E-03 0. -1.
    9900012    2    1    2    0    0 -0.13408320614E+02  0.20863915180E+02  0.35616534167E+02  0.47787268159E+02  0.19999986843E+02 0.  0.
         12    1    1    2    0    0  0.13408320614E+02 -0.20863915180E+02 -0.35616534167E+02  0.43400731841E+02  0.00000000000E+00 0. -1.
         11    1    3    3    0    0 -0.38250553232E+01  0.10516628543E+02  0.70791955343E+01  0.13241810066E+02  0.51100000000E-03 0. -1.
        -11    1    3    3    0    0 -0.89351478097E+01  0.22204094962E+01  0.22764572646E+02  0.24555912786E+02  0.51100000000E-03 0.  1.
        -12    1    3    3    0    0 -0.64811748099E+00  0.81268771403E+01  0.57727659859E+01  0.99895453075E+01  0.00000000000E+00 0.  1.
</event>
<event>
 7    1  0.2706925E-010  0.4778727E+02  0.7816164E-02  0.1312668E+00
        -11   -1    0    0    0    0  0.00000000000E+00  0.00000000000E+00  0.45593999997E+02  0.45594000000E+02  0.51100000000E-03 0.  1.
         11   -1    0    0    0    0 -0.00000000000E+00 -0.00000000000E+00 -0.45593999997E+02  0.45594000000E+02  0.51100000000E-03 0. -1.
    9900012    2    1    2    0    0 -0.20147131197E+02  0.24260698118E+02  0.29818362903E+02  0.47787272647E+02  0.20000007305E+02 0.  0.
         12    1    1    2    0    0  0.20147131197E+02 -0.24260698118E+02 -0.29818362903E+02  0.43400727353E+02  0.00000000000E+00 0. -1.
         11    1    3    3    0    0 -0.12057454616E+02  0.12163254732E+02  0.43231772470E+01  0.17663998395E+02  0.51100000000E-03 0. -1.
        -11    1    3    3    0    0 -0.56560963819E+01  0.56775485803E+01  0.79757155473E+01  0.11306547789E+02  0.51100000000E-03 0.  1.
         12    1    3    3    0    0 -0.24335801983E+01  0.64198948048E+01  0.17519470108E+02  0.18816726463E+02  0.00000000000E+00 0. -1.
</event>
<event>
 7    1  0.2706925E-010  0.4778726E+02  0.7816164E-02  0.1312668E+00
        -11   -1    0    0    0    0  0.00000000000E+00  0.00000000000E+00  0.45593999997E+02  0.45594000000E+02  0.51100000000E-03 0.  1.
         11   -1    0    0    0    0 -0.00000000000E+00 -0.00000000000E+00 -0.45593999997E+02  0.45594000000E+02  0.51100000000E-03 0. -1.
    9900012    2    1    2    0    0 -0.18689204272E+02  0.21359771396E+02  0.32834396982E+02  0.47787264804E+02  0.19999971545E+02 0.  0.
         12    1    1    2    0    0  0.18689204272E+02 -0.21359771396E+02 -0.32834396982E+02  0.43400735196E+02  0.00000000000E+00 0. -1.
         11    1    3    3    0    0 -0.24784049849E+01  0.54950084938E+01 -0.13776163863E+01  0.61834809602E+01  0.51100000000E-03 0. -1.
        -11    1    3    3    0    0 -0.15990177171E+02  0.13912404339E+02  0.28189030894E+02  0.35268430975E+02  0.51100000000E-03 0.  1.
         12    1    3    3    0    0 -0.22062211599E+00  0.19523585633E+01  0.60229824742E+01  0.63353528680E+01  0.00000000000E+00 0. -1.
</event>
<event>
 7    1  0.2706925E-010  0.4778729E+02  0.7816164E-02  0.1312668E+00
        -11   -1    0    0    0    0  0.00000000000E+00  0.00000000000E+00  0.45593999997E+02  0.45594000000E+02  0.51100000000E-03 0.  1.
         11   -1    0    0    0    0 -0.00000000000E+00 -0.00000000000E+00 -0.45593999997E+02  0.45594000000E+02  0.51100000000E-03 0. -1.
    9900012    2    1    2    0    0 -0.38773324023E+02  0.14470797712E+02  0.13070858785E+02  0.47787285817E+02  0.20000067352E+02 0.  0.
         12    1    1    2    0    0  0.38773324023E+02 -0.14470797712E+02 -0.13070858785E+02  0.43400714183E+02  0.00000000000E+00 0. -1.
         11    1    3    3    0    0 -0.11461525857E+02  0.88373675622E+01  0.90135209181E+01  0.17050196480E+02  0.51100000000E-03 0.  1.
        -11    1    3    3    0    0 -0.42675558831E+01  0.12425801811E+01 -0.39530408831E+01  0.59483250757E+01  0.51100000000E-03 0. -1.
        -12    1    3    3    0    0 -0.23044242284E+02  0.43908499687E+01  0.80103787504E+01  0.24788764261E+02  0.00000000000E+00 0.  1.
</event>
<event>
 7    1  0.2706925E-010  0.4778727E+02  0.7816164E-02  0.1312668E+00
        -11   -1    0    0    0    0  0.00000000000E+00  0.00000000000E+00  0.45593999997E+02  0.45594000000E+02  0.51100000000E-03 0.  1.
         11   -1    0    0    0    0 -0.00000000000E+00 -0.00000000000E+00 -0.45593999997E+02  0.45594000000E+02  0.51100000000E-03 0. -1.
    9900012    2    1    2    0    0  0.43172986178E+02 -0.90420706406E+00  0.43473384690E+01  0.47787266392E+02  0.19999978787E+02 0.  0.
         12    1    1    2    0    0 -0.43172986178E+02  0.90420706406E+00 -0.43473384690E+01  0.43400733608E+02  0.00000000000E+00 0. -1.
         11    1    3    3    0    0  0.15639289823E+02 -0.26243039110E+01  0.11077614415E+02  0.19343936997E+02  0.51100000000E-03 0. -1.
        -11    1    3    3    0    0  0.16601374899E+02  0.68104444946E+00 -0.47865083239E+01  0.17291041966E+02  0.51100000000E-03 0.  1.
         12    1    3    3    0    0  0.10932321457E+02  0.10390523975E+01 -0.19437676218E+01  0.11152287429E+02  0.00000000000E+00 0. -1.
</event>
<event>
 7    1  0.2706925E-010  0.4778727E+02  0.7816164E-02  0.1312668E+00
        -11   -1    0    0    0    0  0.00000000000E+00  0.00000000000E+00  0.45593999997E+02  0.45594000000E+02  0.51100000000E-03 0.  1.
         11   -1    0    0    0    0 -0.00000000000E+00 -0.00000000000E+00 -0.45593999997E+02  0.45594000000E+02  0.51100000000E-03 0. -1.
    9900012    2    1    2    0    0 -0.33287410344E+02 -0.26723668826E+02  0.78369383889E+01  0.47787265372E+02  0.19999974136E+02 0.  0.
         12    1    1    2    0    0  0.33287410344E+02  0.26723668826E+02 -0.78369383889E+01  0.43400734628E+02  0.00000000000E+00 0. -1.
         11    1    3    3    0    0 -0.65666737419E+01 -0.23415533975E+01 -0.41726670942E+01  0.81249755253E+01  0.51100000000E-03 0. -1.
        -11    1    3    3    0    0 -0.20369129612E+02 -0.12714669276E+02  0.10782032644E+02  0.26321407336E+02  0.51100000000E-03 0.  1.
        -12    1    3    3    0    0 -0.63516069906E+01 -0.11667446152E+02  0.12275728388E+01  0.13340882510E+02  0.00000000000E+00 0.  1.
</event>
<event>
 7    1  0.2706925E-010  0.4778727E+02  0.7816164E-02  0.1312668E+00
        -11   -1    0    0    0    0  0.00000000000E+00  0.00000000000E+00  0.45593999997E+02  0.45594000000E+02  0.51100000000E-03 0.  1.
         11   -1    0    0    0    0 -0.00000000000E+00 -0.00000000000E+00 -0.45593999997E+02  0.45594000000E+02  0.51100000000E-03 0. -1.
    9900012    2    1    2    0    0  0.67596060155E+01  0.81741749072E+00  0.42863300430E+02  0.47787274561E+02  0.20000016033E+02 0.  0.
         12    1    1    2    0    0 -0.67596060155E+01 -0.81741749072E+00 -0.42863300430E+02  0.43400725439E+02  0.00000000000E+00 0. -1.
         11    1    3    3    0    0  0.32907564363E+01 -0.65213398425E+01  0.93346189316E+01  0.11852934747E+02  0.51100000000E-03 0. -1.
        -11    1    3    3    0    0 -0.11833198852E+01  0.75122336950E+01  0.14847075835E+02  0.16681413674E+02  0.51100000000E-03 0.  1.
        -12    1    3    3    0    0  0.46521694644E+01 -0.17347636174E+00  0.18681605664E+02  0.19252926140E+02  0.00000000000E+00 0.  1.
</event>
<event>
 7    1  0.2706925E-010  0.4778727E+02  0.7816164E-02  0.1312668E+00
        -11   -1    0    0    0    0  0.00000000000E+00  0.00000000000E+00  0.45593999997E+02  0.45594000000E+02  0.51100000000E-03 0. -1.
         11   -1    0    0    0    0 -0.00000000000E+00 -0.00000000000E+00 -0.45593999997E+02  0.45594000000E+02  0.51100000000E-03 0.  1.
    9900012    2    1    2    0    0 -0.41855260464E+02 -0.22110856276E+01 -0.11263722766E+02  0.47787272140E+02  0.20000004996E+02 0.  0.
         12    1    1    2    0    0  0.41855260464E+02  0.22110856276E+01  0.11263722766E+02  0.43400727860E+02  0.00000000000E+00 0. -1.
         11    1    3    3    0    0 -0.37125673073E+02 -0.39388858575E+01 -0.14384867922E+02  0.40009434491E+02  0.51100000000E-03 0.  1.
        -11    1    3    3    0    0 -0.96360019550E+00 -0.67137595509E+00  0.30973149888E+01  0.33124962507E+01  0.51100000000E-03 0. -1.
        -12    1    3    3    0    0 -0.37659871962E+01  0.23991761850E+01  0.23830166678E-01  0.44653413985E+01  0.00000000000E+00 0.  1.
</event>
<event>
 7    1  0.2706925E-010  0.4778728E+02  0.7816164E-02  0.1312668E+00
        -11   -1    0    0    0    0  0.00000000000E+00  0.00000000000E+00  0.45593999997E+02  0.45594000000E+02  0.51100000000E-03 0.  1.
         11   -1    0    0    0    0 -0.00000000000E+00 -0.00000000000E+00 -0.45593999997E+02  0.45594000000E+02  0.51100000000E-03 0. -1.
    9900012    2    1    2    0    0  0.33307471237E+02 -0.27605337017E+02  0.34900721737E+01  0.47787275631E+02  0.20000020910E+02 0.  0.
         12    1    1    2    0    0 -0.33307471237E+02  0.27605337017E+02 -0.34900721737E+01  0.43400724369E+02  0.00000000000E+00 0. -1.
         11    1    3    3    0    0  0.20016577472E+02 -0.15683705265E+02 -0.49497127170E+01  0.25906401540E+02  0.51100000000E-03 0. -1.
        -11    1    3    3    0    0  0.43744290128E+01 -0.14960421748E+01 -0.15878298127E+01  0.48882486794E+01  0.51100000000E-03 0.  1.
         12    1    3    3    0    0  0.89164647518E+01 -0.10425589578E+02  0.10027614703E+02  0.16992625411E+02  0.00000000000E+00 0. -1.
</event>
<event>
 7    1  0.2706925E-010  0.4778727E+02  0.7816164E-02  0.1312668E+00
        -11   -1    0    0    0    0  0.00000000000E+00  0.00000000000E+00  0.45593999997E+02  0.45594000000E+02  0.51100000000E-03 0.  1.
         11   -1    0    0    0    0 -0.00000000000E+00 -0.00000000000E+00 -0.45593999997E+02  0.45594000000E+02  0.51100000000E-03 0. -1.
    9900012    2    1    2    0    0  0.29606710865E+02 -0.30880469485E+02  0.73118009471E+01  0.47787272392E+02  0.20000006144E+02 0.  0.
         12    1    1    2    0    0 -0.29606710865E+02  0.30880469485E+02 -0.73118009471E+01  0.43400727608E+02  0.00000000000E+00 0. -1.
         11    1    3    3    0    0  0.25265809805E+02 -0.28899946866E+02  0.63306127780E+01  0.38905587419E+02  0.51100000000E-03 0.  1.
        -11    1    3    3    0    0  0.51757022356E+01  0.11213884997E+01 -0.54786012665E+00  0.53240545431E+01  0.51100000000E-03 0. -1.
        -12    1    3    3    0    0 -0.83480117579E+00 -0.31019111180E+01  0.15290482957E+01  0.35576304302E+01  0.00000000000E+00 0.  1.
</event>
<event>
 7    1  0.3027490E-010  0.4778727E+02  0.7816164E-02  0.1312668E+00
        -11   -1    0    0    0    0  0.00000000000E+00  0.00000000000E+00  0.45593999997E+02  0.45594000000E+02  0.51100000000E-03 0.  1.
         11   -1    0    0    0    0 -0.00000000000E+00 -0.00000000000E+00 -0.45593999997E+02  0.45594000000E+02  0.51100000000E-03 0. -1.
    9900012    2    1    2    0    0  0.17375933780E+02 -0.12483248570E+02  0.37760676229E+02  0.47787271447E+02  0.20000001837E+02 0.  0.
         12    1    1    2    0    0 -0.17375933780E+02  0.12483248570E+02 -0.37760676229E+02  0.43400728553E+02  0.00000000000E+00 0. -1.
         11    1    3    3    0    0 -0.82320186579E-01  0.11359238208E+01 -0.15537157375E+01  0.19264299607E+01  0.51100000000E-03 0. -1.
        -11    1    3    3    0    0  0.10684159276E+02 -0.49796793905E+01  0.26390185554E+02  0.28903120249E+02  0.51100000000E-03 0.  1.
        -12    1    3    3    0    0  0.67740946905E+01 -0.86394930006E+01  0.12924206413E+02  0.16957721238E+02  0.00000000000E+00 0.  1.
</event>
<event>
 7    1  0.2706925E-010  0.4778727E+02  0.7816164E-02  0.1312668E+00
        -11   -1    0    0    0    0  0.00000000000E+00  0.00000000000E+00  0.45593999997E+02  0.45594000000E+02  0.51100000000E-03 0. -1.
         11   -1    0    0    0    0 -0.00000000000E+00 -0.00000000000E+00 -0.45593999997E+02  0.45594000000E+02  0.51100000000E-03 0.  1.
    9900012    2    1    2    0    0 -0.13560989937E+02 -0.30028774573E+02  0.28248815754E+02  0.47787270260E+02  0.19999996424E+02 0.  0.
         12    1    1    2    0    0  0.13560989937E+02  0.30028774573E+02 -0.28248815754E+02  0.43400729740E+02  0.00000000000E+00 0. -1.
         11    1    3    3    0    0 -0.10018788618E+02 -0.88736801118E+01  0.19785354369E+02  0.23886786554E+02  0.51100000000E-03 0. -1.
        -11    1    3    3    0    0 -0.89915636194E-01 -0.11011074125E+02  0.14803178439E+01  0.11110498611E+02  0.51100000000E-03 0.  1.
         12    1    3    3    0    0 -0.34522856831E+01 -0.10144020336E+02  0.69831435412E+01  0.12789985095E+02  0.00000000000E+00 0. -1.
</event>
<event>
 7    1  0.2706925E-010  0.4778727E+02  0.7816164E-02  0.1312668E+00
        -11   -1    0    0    0    0  0.00000000000E+00  0.00000000000E+00  0.45593999997E+02  0.45594000000E+02  0.51100000000E-03 0.  1.
         11   -1    0    0    0    0 -0.00000000000E+00 -0.00000000000E+00 -0.45593999997E+02  0.45594000000E+02  0.51100000000E-03 0. -1.
    9900012    2    1    2    0    0 -0.32960886179E+02 -0.26970208920E+01  0.28105685820E+02  0.47787268268E+02  0.19999987342E+02 0.  0.
         12    1    1    2    0    0  0.32960886179E+02  0.26970208920E+01 -0.28105685820E+02  0.43400731732E+02  0.00000000000E+00 0. -1.
         11    1    3    3    0    0 -0.23503642254E+01  0.70251388820E-02 -0.30716683554E+01  0.38677394032E+01  0.51100000000E-03 0. -1.
        -11    1    3    3    0    0 -0.19259295595E+02 -0.27814710023E+01  0.17768966611E+02  0.26351341948E+02  0.51100000000E-03 0.  1.
         12    1    3    3    0    0 -0.11351226359E+02  0.77424971397E-01  0.13408387565E+02  0.17568186917E+02  0.00000000000E+00 0. -1.
</event>
<event>
 7    1  0.2706925E-010  0.4778727E+02  0.7816164E-02  0.1312668E+00
        -11   -1    0    0    0    0  0.00000000000E+00  0.00000000000E+00  0.45593999997E+02  0.45594000000E+02  0.51100000000E-03 0.  1.
         11   -1    0    0    0    0 -0.00000000000E+00 -0.00000000000E+00 -0.45593999997E+02  0.45594000000E+02  0.51100000000E-03 0. -1.
    9900012    2    1    2    0    0 -0.21111916497E+02  0.37558597850E+02  0.52213064397E+01  0.47787270380E+02  0.19999996969E+02 0.  0.
         12    1    1    2    0    0  0.21111916497E+02 -0.37558597850E+02 -0.52213064397E+01  0.43400729620E+02  0.00000000000E+00 0. -1.
         11    1    3    3    0    0 -0.19523296788E+01  0.11904716664E+02 -0.47660393504E+01  0.12971083277E+02  0.51100000000E-03 0. -1.
        -11    1    3    3    0    0 -0.13432356030E+02  0.23788423785E+02  0.85214867788E+01  0.28617005991E+02  0.51100000000E-03 0.  1.
        -12    1    3    3    0    0 -0.57272307884E+01  0.18654574012E+01  0.14658590114E+01  0.61991811121E+01  0.00000000000E+00 0.  1.
</event>
<event>
 7    1  0.2706925E-010  0.4778725E+02  0.7816164E-02  0.1312668E+00
        -11   -1    0    0    0    0  0.00000000000E+00  0.00000000000E+00  0.45593999997E+02  0.45594000000E+02  0.51100000000E-03 0. -1.
         11   -1    0    0    0    0 -0.00000000000E+00 -0.00000000000E+00 -0.45593999997E+02  0.45594000000E+02  0.51100000000E-03 0.  1.
    9900012    2    1    2    0    0  0.21300020045E+02 -0.37648874971E+02 -0.35349918278E+01  0.47787253374E+02  0.19999919433E+02 0.  0.
         12    1    1    2    0    0 -0.21300020045E+02  0.37648874971E+02  0.35349918278E+01  0.43400746626E+02  0.00000000000E+00 0. -1.
         11    1    3    3    0    0  0.18980842592E+01 -0.59457605654E+01 -0.80214400010E+01  0.10163576758E+02  0.51100000000E-03 0. -1.
        -11    1    3    3    0    0  0.13588403839E+02 -0.21774589095E+02  0.13674203521E+01  0.25703059893E+02  0.51100000000E-03 0.  1.
         12    1    3    3    0    0  0.58135319462E+01 -0.99285253102E+01  0.31190278211E+01  0.11920616724E+02  0.00000000000E+00 0. -1.
</event>
<event>
 7    1  0.2706925E-010  0.4778726E+02  0.7816164E-02  0.1312668E+00
        -11   -1    0    0    0    0  0.00000000000E+00  0.00000000000E+00  0.45593999997E+02  0.45594000000E+02  0.51100000000E-03 0. -1.
         11   -1    0    0    0    0 -0.00000000000E+00 -0.00000000000E+00 -0.45593999997E+02  0.45594000000E+02  0.51100000000E-03 0.  1.
    9900012    2    1    2    0    0 -0.30245821590E+02 -0.23404271874E+02 -0.20519621853E+02  0.47787256382E+02  0.19999933148E+02 0.  0.
         12    1    1    2    0    0  0.30245821590E+02  0.23404271874E+02  0.20519621853E+02  0.43400743618E+02  0.00000000000E+00 0. -1.
         11    1    3    3    0    0 -0.37993878089E+01 -0.42135538434E+01  0.37686725410E+01  0.68111876128E+01  0.51100000000E-03 0. -1.
        -11    1    3    3    0    0 -0.15550540697E+02 -0.89258817155E+01 -0.14833820730E+02  0.23270859848E+02  0.51100000000E-03 0.  1.
         12    1    3    3    0    0 -0.10895893084E+02 -0.10264836315E+02 -0.94544736645E+01  0.17705208921E+02  0.00000000000E+00 0. -1.
</event>
<event>
 7    1  0.2706925E-010  0.4778727E+02  0.7816164E-02  0.1312668E+00
        -11   -1    0    0    0    0  0.00000000000E+00  0.00000000000E+00  0.45593999997E+02  0.45594000000E+02  0.51100000000E-03 0.  1.
         11   -1    0    0    0    0 -0.00000000000E+00 -0.00000000000E+00 -0.45593999997E+02  0.45594000000E+02  0.51100000000E-03 0. -1.
    9900012    2    1    2    0    0  0.48631743446E+01  0.27231486507E+01  0.43041342898E+02  0.47787271875E+02  0.20000003788E+02 0.  0.
         12    1    1    2    0    0 -0.48631743446E+01 -0.27231486507E+01 -0.43041342898E+02  0.43400728125E+02  0.00000000000E+00 0. -1.
         11    1    3    3    0    0 -0.14207017377E+01  0.11807368884E+01  0.13332681365E+02  0.13460049245E+02  0.51100000000E-03 0. -1.
        -11    1    3    3    0    0 -0.49607193765E+01  0.11995215417E+01  0.48460389717E+01  0.70378748666E+01  0.51100000000E-03 0.  1.
        -12    1    3    3    0    0  0.11244595459E+02  0.34289022063E+00  0.24862622561E+02  0.27289347764E+02  0.00000000000E+00 0.  1.
</event>
<event>
 7    1  0.2706925E-010  0.4778727E+02  0.7816164E-02  0.1312668E+00
        -11   -1    0    0    0    0  0.00000000000E+00  0.00000000000E+00  0.45593999997E+02  0.45594000000E+02  0.51100000000E-03 0.  1.
         11   -1    0    0    0    0 -0.00000000000E+00 -0.00000000000E+00 -0.45593999997E+02  0.45594000000E+02  0.51100000000E-03 0. -1.
    9900012    2    1    2    0    0  0.28563730884E+02 -0.28097625597E+01  0.32555211824E+02  0.47787270691E+02  0.19999998388E+02 0.  0.
         12    1    1    2    0    0 -0.28563730884E+02  0.28097625597E+01 -0.32555211824E+02  0.43400729309E+02  0.00000000000E+00 0. -1.
         11    1    3    3    0    0  0.32493861448E+01 -0.40495202718E+00 -0.16575318139E+01  0.36701373868E+01  0.51100000000E-03 0. -1.
        -11    1    3    3    0    0  0.26434589885E+02 -0.24340593861E+01  0.31577363034E+02  0.41253388273E+02  0.51100000000E-03 0.  1.
        -12    1    3    3    0    0 -0.11202451459E+01  0.29248853611E-01  0.26353806032E+01  0.28637450316E+01  0.00000000000E+00 0.  1.
</event>
<event>
 7    1  0.2706925E-010  0.4778727E+02  0.7816164E-02  0.1312668E+00
        -11   -1    0    0    0    0  0.00000000000E+00  0.00000000000E+00  0.45593999997E+02  0.45594000000E+02  0.51100000000E-03 0.  1.
         11   -1    0    0    0    0 -0.00000000000E+00 -0.00000000000E+00 -0.45593999997E+02  0.45594000000E+02  0.51100000000E-03 0. -1.
    9900012    2    1    2    0    0  0.11455155481E+02 -0.21790611420E+01  0.41804953345E+02  0.47787273983E+02  0.20000013400E+02 0.  0.
         12    1    1    2    0    0 -0.11455155481E+02  0.21790611420E+01 -0.41804953345E+02  0.43400726017E+02  0.00000000000E+00 0. -1.
         11    1    3    3    0    0  0.42987973597E+01 -0.26705001232E+01  0.21963544789E+00  0.50655177069E+01  0.51100000000E-03 0. -1.
        -11    1    3    3    0    0  0.56672956831E+01 -0.61420358668E-01  0.40248802624E+02  0.40645886947E+02  0.51100000000E-03 0.  1.
        -12    1    3    3    0    0  0.14890624387E+01  0.55285933981E+00  0.13365152735E+01  0.20758693293E+01  0.00000000000E+00 0.  1.
</event>
<event>
 7    1  0.2706925E-010  0.4778727E+02  0.7816164E-02  0.1312668E+00
        -11   -1    0    0    0    0  0.00000000000E+00  0.00000000000E+00  0.45593999997E+02  0.45594000000E+02  0.51100000000E-03 0.  1.
         11   -1    0    0    0    0 -0.00000000000E+00 -0.00000000000E+00 -0.45593999997E+02  0.45594000000E+02  0.51100000000E-03 0. -1.
    9900012    2    1    2    0    0 -0.40791616076E+02  0.96296245545E+01  0.11266665216E+02  0.47787270095E+02  0.19999995672E+02 0.  0.
         12    1    1    2    0    0  0.40791616076E+02 -0.96296245545E+01 -0.11266665216E+02  0.43400729905E+02  0.00000000000E+00 0. -1.
         11    1    3    3    0    0 -0.15646616891E+01  0.25972290394E+01 -0.36065313098E+01  0.47117760170E+01  0.51100000000E-03 0. -1.
        -11    1    3    3    0    0 -0.11903373783E+02  0.53555197707E+00  0.16367792293E+01  0.12027309336E+02  0.51100000000E-03 0.  1.
         12    1    3    3    0    0 -0.27323580604E+02  0.64968435380E+01  0.13236417296E+02  0.31048184743E+02  0.00000000000E+00 0. -1.
</event>
<event>
 7    1  0.2706925E-010  0.4778727E+02  0.7816164E-02  0.1312668E+00
        -11   -1    0    0    0    0  0.00000000000E+00  0.00000000000E+00  0.45593999997E+02  0.45594000000E+02  0.51100000000E-03 0.  1.
         11   -1    0    0    0    0 -0.00000000000E+00 -0.00000000000E+00 -0.45593999997E+02  0.45594000000E+02  0.51100000000E-03 0. -1.
    9900012    2    1    2    0    0 -0.42954809455E+02  0.48670839739E+01 -0.38496165932E+01  0.47787266024E+02  0.19999977111E+02 0.  0.
         12    1    1    2    0    0  0.42954809455E+02 -0.48670839739E+01  0.38496165932E+01  0.43400733976E+02  0.00000000000E+00 0. -1.
         11    1    3    3    0    0  0.13909853377E+01  0.62821475505E+00 -0.17600833554E+01  0.23296754425E+01  0.51100000000E-03 0. -1.
        -11    1    3    3    0    0 -0.44580994610E+02  0.38934133088E+01 -0.25655274445E+01  0.44824164007E+02  0.51100000000E-03 0.  1.
        -12    1    3    3    0    0  0.23519981765E+00  0.34545591006E+00  0.47599420679E+00  0.63342657421E+00  0.00000000000E+00 0.  1.
</event>
<event>
 7    1  0.2706925E-010  0.4778728E+02  0.7816164E-02  0.1312668E+00
        -11   -1    0    0    0    0  0.00000000000E+00  0.00000000000E+00  0.45593999997E+02  0.45594000000E+02  0.51100000000E-03 0.  1.
         11   -1    0    0    0    0 -0.00000000000E+00 -0.00000000000E+00 -0.45593999997E+02  0.45594000000E+02  0.51100000000E-03 0. -1.
    9900012    2    1    2    0    0 -0.22025409293E+02 -0.36547210353E+02  0.79250026188E+01  0.47787275287E+02  0.20000019342E+02 0.  0.
         12    1    1    2    0    0  0.22025409293E+02  0.36547210353E+02 -0.79250026188E+01  0.43400724713E+02  0.00000000000E+00 0. -1.
         11    1    3    3    0    0 -0.27060729174E+01 -0.11325629078E+02 -0.28236907997E+01  0.11981900293E+02  0.51100000000E-03 0. -1.
        -11    1    3    3    0    0 -0.15221413446E+02 -0.10526893022E+02  0.31891854298E+01  0.18779717995E+02  0.51100000000E-03 0.  1.
        -12    1    3    3    0    0 -0.40979229292E+01 -0.14694688253E+02  0.75595079886E+01  0.17025656998E+02  0.00000000000E+00 0.  1.
</event>
<event>
 7    1  0.2706925E-010  0.4778726E+02  0.7816164E-02  0.1312668E+00
        -11   -1    0    0    0    0  0.00000000000E+00  0.00000000000E+00  0.45593999997E+02  0.45594000000E+02  0.51100000000E-03 0.  1.
         11   -1    0    0    0    0 -0.00000000000E+00 -0.00000000000E+00 -0.45593999997E+02  0.45594000000E+02  0.51100000000E-03 0. -1.
    9900012    2    1    2    0    0  0.14046235413E+02  0.15016161668E+02  0.38220963655E+02  0.47787263794E+02  0.19999966942E+02 0.  0.
         12    1    1    2    0    0 -0.14046235413E+02 -0.15016161668E+02 -0.38220963655E+02  0.43400736206E+02  0.00000000000E+00 0. -1.
         11    1    3    3    0    0  0.14224899955E+01  0.48749532318E+01  0.29730982693E+01  0.58845526915E+01  0.51100000000E-03 0. -1.
        -11    1    3    3    0    0  0.29254873816E+01  0.11014295387E+02  0.11290672883E+02  0.16042209128E+02  0.51100000000E-03 0.  1.
        -12    1    3    3    0    0  0.96982580360E+01 -0.87308695122E+00  0.23957192502E+02  0.25860501974E+02  0.00000000000E+00 0.  1.
</event>
<event>
 7    1  0.2706925E-010  0.4778727E+02  0.7816164E-02  0.1312668E+00
        -11   -1    0    0    0    0  0.00000000000E+00  0.00000000000E+00  0.45593999997E+02  0.45594000000E+02  0.51100000000E-03 0.  1.
         11   -1    0    0    0    0 -0.00000000000E+00 -0.00000000000E+00 -0.45593999997E+02  0.45594000000E+02  0.51100000000E-03 0. -1.
    9900012    2    1    2    0    0 -0.20254116608E+02 -0.29293299092E+01  0.38272877046E+02  0.47787270391E+02  0.19999997019E+02 0.  0.
         12    1    1    2    0    0  0.20254116608E+02  0.29293299092E+01 -0.38272877046E+02  0.43400729609E+02  0.00000000000E+00 0. -1.
         11    1    3    3    0    0 -0.73834353621E+01  0.73057380812E+00  0.26831607151E+01  0.78897533244E+01  0.51100000000E-03 0. -1.
        -11    1    3    3    0    0 -0.95070585652E+01 -0.11595573560E+01  0.34147455230E+02  0.35465158039E+02  0.51100000000E-03 0.  1.
         12    1    3    3    0    0 -0.33636226802E+01 -0.25003463613E+01  0.14422611011E+01  0.44323590271E+01  0.00000000000E+00 0. -1.
</event>
<event>
 7    1  0.2706925E-010  0.4778728E+02  0.7816164E-02  0.1312668E+00
        -11   -1    0    0    0    0  0.00000000000E+00  0.00000000000E+00  0.45593999997E+02  0.45594000000E+02  0.51100000000E-03 0. -1.
         11   -1    0    0    0    0 -0.00000000000E+00 -0.00000000000E+00 -0.45593999997E+02  0.45594000000E+02  0.51100000000E-03 0.  1.
    9900012    2    1    2    0    0  0.26246542550E+02  0.18645979762E+02 -0.29104444760E+02  0.47787282703E+02  0.20000053155E+02 0.  0.
         12    1    1    2    0    0 -0.26246542550E+02 -0.18645979762E+02  0.29104444760E+02  0.43400717297E+02  0.00000000000E+00 0. -1.
         11    1    3    3    0    0  0.25189484326E+02  0.10324584635E+02 -0.22126596251E+02  0.35081240434E+02  0.51100000000E-03 0. -1.
        -11    1    3    3    0    0  0.28230440465E+01  0.26481340484E+01 -0.52414575645E+01  0.65157554657E+01  0.51100000000E-03 0.  1.
         12    1    3    3    0    0 -0.17659858218E+01  0.56732610790E+01 -0.17363909444E+01  0.61902868032E+01  0.00000000000E+00 0. -1.
</event>
<event>
 7    1  0.2706925E-010  0.4778728E+02  0.7816164E-02  0.1312668E+00
        -11   -1    0    0    0    0  0.00000000000E+00  0.00000000000E+00  0.45593999997E+02  0.45594000000E+02  0.51100000000E-03 0.  1.
         11   -1    0    0    0    0 -0.00000000000E+00 -0.00000000000E+00 -0.45593999997E+02  0.45594000000E+02  0.51100000000E-03 0. -1.
    9900012    2    1    2    0    0  0.18997091438E+02 -0.29965234361E+02  0.24996361363E+02  0.47787276102E+02  0.20000023062E+02 0.  0.
         12    1    1    2    0    0 -0.18997091438E+02  0.29965234361E+02 -0.24996361363E+02  0.43400723898E+02  0.00000000000E+00 0. -1.
         11    1    3    3    0    0  0.45611775037E+00 -0.12486005893E+02  0.34734276258E+01  0.12968156627E+02  0.51100000000E-03 0. -1.
        -11    1    3    3    0    0 -0.18664799409E-01 -0.47192298276E+01  0.25157928308E+01  0.53479615153E+01  0.51100000000E-03 0.  1.
         12    1    3    3    0    0  0.18559638487E+02 -0.12759998640E+02  0.19007140906E+02  0.29471157960E+02  0.00000000000E+00 0. -1.
</event>
<event>
 7    1  0.2706925E-010  0.4778727E+02  0.7816164E-02  0.1312668E+00
        -11   -1    0    0    0    0  0.00000000000E+00  0.00000000000E+00  0.45593999997E+02  0.45594000000E+02  0.51100000000E-03 0.  1.
         11   -1    0    0    0    0 -0.00000000000E+00 -0.00000000000E+00 -0.45593999997E+02  0.45594000000E+02  0.51100000000E-03 0. -1.
    9900012    2    1    2    0    0  0.38727434583E+02  0.10488283936E+01  0.19562951892E+02  0.47787270546E+02  0.19999997729E+02 0.  0.
         12    1    1    2    0    0 -0.38727434583E+02 -0.10488283936E+01 -0.19562951892E+02  0.43400729454E+02  0.00000000000E+00 0. -1.
         11    1    3    3    0    0  0.10445149779E+02  0.71082736948E+01  0.25003232421E+01  0.12879453614E+02  0.51100000000E-03 0. -1.
        -11    1    3    3    0    0  0.21807037218E+02 -0.57426322847E+01  0.17297516995E+02  0.28420569879E+02  0.51100000000E-03 0.  1.
        -12    1    3    3    0    0  0.64752475867E+01 -0.31681301652E+00 -0.23488834565E+00  0.64872470534E+01  0.00000000000E+00 0.  1.
</event>
<event>
 7    1  0.2706925E-010  0.4778728E+02  0.7816164E-02  0.1312668E+00
        -11   -1    0    0    0    0  0.00000000000E+00  0.00000000000E+00  0.45593999997E+02  0.45594000000E+02  0.51100000000E-03 0.  1.
         11   -1    0    0    0    0 -0.00000000000E+00 -0.00000000000E+00 -0.45593999997E+02  0.45594000000E+02  0.51100000000E-03 0. -1.
    9900012    2    1    2    0    0  0.30349640676E+02 -0.21140348519E+02  0.22706996294E+02  0.47787277594E+02  0.20000029861E+02 0.  0.
         12    1    1    2    0    0 -0.30349640676E+02  0.21140348519E+02 -0.22706996294E+02  0.43400722406E+02  0.00000000000E+00 0. -1.
         11    1    3    3    0    0  0.18982455095E+02 -0.80364623046E+01  0.14475598906E+02  0.25188515076E+02  0.51100000000E-03 0. -1.
        -11    1    3    3    0    0  0.12030950513E+02 -0.51929025948E+01  0.49191767695E+01  0.13996724901E+02  0.51100000000E-03 0.  1.
         12    1    3    3    0    0 -0.66376493236E+00 -0.79109836200E+01  0.33122206187E+01  0.86020376161E+01  0.00000000000E+00 0. -1.
</event>
<event>
 7    1  0.2706925E-010  0.4778727E+02  0.7816164E-02  0.1312668E+00
        -11   -1    0    0    0    0  0.00000000000E+00  0.00000000000E+00  0.45593999997E+02  0.45594000000E+02  0.51100000000E-03 0.  1.
         11   -1    0    0    0    0 -0.00000000000E+00 -0.00000000000E+00 -0.45593999997E+02  0.45594000000E+02  0.51100000000E-03 0. -1.
    9900012    2    1    2    0    0  0.25409221209E+01  0.40944263482E+02  0.14168066668E+02  0.47787272927E+02  0.20000008584E+02 0.  0.
         12    1    1    2    0    0 -0.25409221209E+01 -0.40944263482E+02 -0.14168066668E+02  0.43400727073E+02  0.00000000000E+00 0. -1.
         11    1    3    3    0    0  0.79236842824E+01  0.26600218785E+02  0.48957935735E+01  0.28183775599E+02  0.51100000000E-03 0. -1.
        -11    1    3    3    0    0 -0.49035210092E+01  0.13275170096E+02  0.10710973261E+02  0.17748228301E+02  0.51100000000E-03 0.  1.
         12    1    3    3    0    0 -0.47924115234E+00  0.10688746019E+01 -0.14387001666E+01  0.18552690279E+01  0.00000000000E+00 0. -1.
</event>
<event>
 7    1  0.3300819E-010  0.4778727E+02  0.7816164E-02  0.1312668E+00
        -11   -1    0    0    0    0  0.00000000000E+00  0.00000000000E+00  0.45593999997E+02  0.45594000000E+02  0.51100000000E-03 0. -1.
         11   -1    0    0    0    0 -0.00000000000E+00 -0.00000000000E+00 -0.45593999997E+02  0.45594000000E+02  0.51100000000E-03 0.  1.
    9900012    2    1    2    0    0  0.23050170056E+02  0.91762152344E+01 -0.35610530395E+02  0.47787272579E+02  0.20000006997E+02 0.  0.
         12    1    1    2    0    0 -0.23050170056E+02 -0.91762152344E+01  0.35610530395E+02  0.43400727421E+02  0.00000000000E+00 0. -1.
         11    1    3    3    0    0 -0.12484048676E+00  0.63204051407E+01 -0.67657935492E+01  0.92595393460E+01  0.51100000000E-03 0. -1.
        -11    1    3    3    0    0  0.21983002270E+02  0.87056382305E+00 -0.21247354252E+02  0.30585296028E+02  0.51100000000E-03 0.  1.
        -12    1    3    3    0    0  0.11920082737E+01  0.19852462707E+01 -0.75973825936E+01  0.79424372049E+01  0.00000000000E+00 0.  1.
</event>
<event>
 7    1  0.2706925E-010  0.4778727E+02  0.7816164E-02  0.1312668E+00
        -11   -1    0    0    0    0  0.00000000000E+00  0.00000000000E+00  0.45593999997E+02  0.45594000000E+02  0.51100000000E-03 0. -1.
         11   -1    0    0    0    0 -0.00000000000E+00 -0.00000000000E+00 -0.45593999997E+02  0.45594000000E+02  0.51100000000E-03 0.  1.
    9900012    2    1    2    0    0 -0.28406197450E+02 -0.25554065320E+02 -0.20583995684E+02  0.47787272054E+02  0.20000004603E+02 0.  0.
         12    1    1    2    0    0  0.28406197450E+02  0.25554065320E+02  0.20583995684E+02  0.43400727946E+02  0.00000000000E+00 0. -1.
         11    1    3    3    0    0 -0.14669023441E+01 -0.11220186375E+02 -0.56895717589E+01  0.12665528486E+02  0.51100000000E-03 0. -1.
        -11    1    3    3    0    0 -0.86390786824E+01 -0.58744813365E+01 -0.71043683310E+00  0.10471290857E+02  0.51100000000E-03 0.  1.
         12    1    3    3    0    0 -0.18300216423E+02 -0.84593976085E+01 -0.14183987092E+02  0.24650452711E+02  0.00000000000E+00 0. -1.
</event>
<event>
 7    1  0.3119520E-010  0.4778727E+02  0.7816164E-02  0.1312668E+00
        -11   -1    0    0    0    0  0.00000000000E+00  0.00000000000E+00  0.45593999997E+02  0.45594000000E+02  0.51100000000E-03 0. -1.
         11   -1    0    0    0    0 -0.00000000000E+00 -0.00000000000E+00 -0.45593999997E+02  0.45594000000E+02  0.51100000000E-03 0.  1.
    9900012    2    1    2    0    0  0.29051227352E+02  0.93797206536E+01 -0.30849149803E+02  0.47787274041E+02  0.20000013664E+02 0.  0.
         12    1    1    2    0    0 -0.29051227352E+02 -0.93797206536E+01  0.30849149803E+02  0.43400725959E+02  0.00000000000E+00 0. -1.
         11    1    3    3    0    0  0.56096017464E+01 -0.27838371617E+01 -0.19669206836E+01  0.65640047480E+01  0.51100000000E-03 0. -1.
        -11    1    3    3    0    0  0.44672549057E+01  0.86230921834E+01 -0.13001069105E+02  0.16227812031E+02  0.51100000000E-03 0.  1.
        -12    1    3    3    0    0  0.18974370700E+02  0.35404656318E+01 -0.15881160014E+02  0.24995457262E+02  0.00000000000E+00 0.  1.
</event>
<event>
 7    1  0.2706925E-010  0.4778727E+02  0.7816164E-02  0.1312668E+00
        -11   -1    0    0    0    0  0.00000000000E+00  0.00000000000E+00  0.45593999997E+02  0.45594000000E+02  0.51100000000E-03 0.  1.
         11   -1    0    0    0    0 -0.00000000000E+00 -0.00000000000E+00 -0.45593999997E+02  0.45594000000E+02  0.51100000000E-03 0. -1.
    9900012    2    1    2    0    0 -0.29503234774E+00 -0.38162571408E+02  0.20667718392E+02  0.47787268623E+02  0.19999988958E+02 0.  0.
         12    1    1    2    0    0  0.29503234774E+00  0.38162571408E+02 -0.20667718392E+02  0.43400731377E+02  0.00000000000E+00 0. -1.
         11    1    3    3    0    0 -0.28786406087E+01 -0.82179971147E+01  0.20440774609E+01  0.89442887509E+01  0.51100000000E-03 0. -1.
        -11    1    3    3    0    0  0.32231243772E+01 -0.25588690658E+02  0.21505892875E+02  0.33580843482E+02  0.51100000000E-03 0.  1.
        -12    1    3    3    0    0 -0.63951611630E+00 -0.43558836356E+01 -0.28822519447E+01  0.52621363896E+01  0.00000000000E+00 0.  1.
</event>
<event>
 7    1  0.2706925E-010  0.4778727E+02  0.7816164E-02  0.1312668E+00
        -11   -1    0    0    0    0  0.00000000000E+00  0.00000000000E+00  0.45593999997E+02  0.45594000000E+02  0.51100000000E-03 0.  1.
         11   -1    0    0    0    0 -0.00000000000E+00 -0.00000000000E+00 -0.45593999997E+02  0.45594000000E+02  0.51100000000E-03 0. -1.
    9900012    2    1    2    0    0 -0.13051000689E+02  0.21835695332E+02  0.35163859036E+02  0.47787271989E+02  0.20000004306E+02 0.  0.
         12    1    1    2    0    0  0.13051000689E+02 -0.21835695332E+02 -0.35163859036E+02  0.43400728011E+02  0.00000000000E+00 0. -1.
         11    1    3    3    0    0 -0.69044402704E+01  0.52546128280E+01  0.95725935770E+00  0.87291807839E+01  0.51100000000E-03 0. -1.
        -11    1    3    3    0    0 -0.44530808236E+01  0.16121129183E+02  0.28063486581E+02  0.32669251817E+02  0.51100000000E-03 0.  1.
        -12    1    3    3    0    0 -0.16934795946E+01  0.45995332099E+00  0.61431130975E+01  0.63888393878E+01  0.00000000000E+00 0.  1.
</event>
<event>
 7    1  0.2706925E-010  0.4778728E+02  0.7816164E-02  0.1312668E+00
        -11   -1    0    0    0    0  0.00000000000E+00  0.00000000000E+00  0.45593999997E+02  0.45594000000E+02  0.51100000000E-03 0.  1.
         11   -1    0    0    0    0 -0.00000000000E+00 -0.00000000000E+00 -0.45593999997E+02  0.45594000000E+02  0.51100000000E-03 0. -1.
    9900012    2    1    2    0    0 -0.23046888283E+02  0.23439377918E+02  0.28338290285E+02  0.47787283497E+02  0.20000056776E+02 0.  0.
         12    1    1    2    0    0  0.23046888283E+02 -0.23439377918E+02 -0.28338290285E+02  0.43400716503E+02  0.00000000000E+00 0. -1.
         11    1    3    3    0    0  0.13715332787E+01  0.95753748454E+00 -0.19471823727E+01  0.25670023418E+01  0.51100000000E-03 0. -1.
        -11    1    3    3    0    0 -0.16259371275E+02  0.12671796498E+02  0.16225641420E+02  0.26233814448E+02  0.51100000000E-03 0.  1.
        -12    1    3    3    0    0 -0.81590502867E+01  0.98100439351E+01  0.14059831238E+02  0.18986466707E+02  0.00000000000E+00 0.  1.
</event>
<event>
 7    1  0.2706925E-010  0.4778727E+02  0.7816164E-02  0.1312668E+00
        -11   -1    0    0    0    0  0.00000000000E+00  0.00000000000E+00  0.45593999997E+02  0.45594000000E+02  0.51100000000E-03 0.  1.
         11   -1    0    0    0    0 -0.00000000000E+00 -0.00000000000E+00 -0.45593999997E+02  0.45594000000E+02  0.51100000000E-03 0. -1.
    9900012    2    1    2    0    0 -0.11118639495E+02  0.11925169767E+02  0.40221755207E+02  0.47787269475E+02  0.19999992845E+02 0.  0.
         12    1    1    2    0    0  0.11118639495E+02 -0.11925169767E+02 -0.40221755207E+02  0.43400730525E+02  0.00000000000E+00 0. -1.
         11    1    3    3    0    0  0.13328542577E+01  0.12197061006E+02  0.17318675526E+02  0.21224545222E+02  0.51100000000E-03 0. -1.
        -11    1    3    3    0    0 -0.60657654247E+01 -0.30075560198E+00  0.61925525237E+01  0.86736192642E+01  0.51100000000E-03 0.  1.
         12    1    3    3    0    0 -0.63857283279E+01  0.28864362605E-01  0.16710527157E+02  0.17889104989E+02  0.00000000000E+00 0. -1.
</event>
<event>
 7    1  0.2706925E-010  0.4778728E+02  0.7816164E-02  0.1312668E+00
        -11   -1    0    0    0    0  0.00000000000E+00  0.00000000000E+00  0.45593999997E+02  0.45594000000E+02  0.51100000000E-03 0. -1.
         11   -1    0    0    0    0 -0.00000000000E+00 -0.00000000000E+00 -0.45593999997E+02  0.45594000000E+02  0.51100000000E-03 0.  1.
    9900012    2    1    2    0    0  0.37337593601E+02 -0.11874088052E+02 -0.18669036315E+02  0.47787276735E+02  0.20000025946E+02 0.  0.
         12    1    1    2    0    0 -0.37337593601E+02  0.11874088052E+02  0.18669036315E+02  0.43400723265E+02  0.00000000000E+00 0. -1.
         11    1    3    3    0    0 -0.45358905107E+00 -0.41224211688E+01  0.79005881753E+00  0.42218825796E+01  0.51100000000E-03 0. -1.
        -11    1    3    3    0    0  0.16719649701E+02 -0.18649024634E+01 -0.59094127292E+01  0.17831032118E+02  0.51100000000E-03 0.  1.
         12    1    3    3    0    0  0.21071532951E+02 -0.58867644202E+01 -0.13549682403E+02  0.25734362037E+02  0.00000000000E+00 0. -1.
</event>
<event>
 7    1  0.2706925E-010  0.4778727E+02  0.7816164E-02  0.1312668E+00
        -11   -1    0    0    0    0  0.00000000000E+00  0.00000000000E+00  0.45593999997E+02  0.45594000000E+02  0.51100000000E-03 0. -1.
         11   -1    0    0    0    0 -0.00000000000E+00 -0.00000000000E+00 -0.45593999997E+02  0.45594000000E+02  0.51100000000E-03 0.  1.
    9900012    2    1    2    0    0  0.22228854570E+02  0.20287510469E+02 -0.31271691459E+02  0.47787265638E+02  0.19999975348E+02 0.  0.
         12    1    1    2    0    0 -0.22228854570E+02 -0.20287510469E+02  0.31271691459E+02  0.43400734362E+02  0.00000000000E+00 0. -1.
         11    1    3    3    0    0 -0.12858079106E+01  0.23637320359E+01  0.15339911770E+01  0.30973634454E+01  0.51100000000E-03 0. -1.
        -11    1    3    3    0    0  0.10478412589E+02  0.40205295745E+01 -0.10761087822E+02  0.15548723415E+02  0.51100000000E-03 0.  1.
         12    1    3    3    0    0  0.13036249891E+02  0.13903248858E+02 -0.22044594814E+02  0.29141178778E+02  0.00000000000E+00 0. -1.
</event>
<event>
 7    1  0.2706925E-010  0.4778727E+02  0.7816164E-02  0.1312668E+00
        -11   -1    0    0    0    0  0.00000000000E+00  0.00000000000E+00  0.45593999997E+02  0.45594000000E+02  0.51100000000E-03 0. -1.
         11   -1    0    0    0    0 -0.00000000000E+00 -0.00000000000E+00 -0.45593999997E+02  0.45594000000E+02  0.51100000000E-03 0.  1.
    9900012    2    1    2    0    0  0.12121169085E+01 -0.43381615604E+02 -0.43534392502E+00  0.47787270466E+02  0.19999997361E+02 0.  0.
         12    1    1    2    0    0 -0.12121169085E+01  0.43381615604E+02  0.43534392502E+00  0.43400729534E+02  0.00000000000E+00 0. -1.
         11    1    3    3    0    0 -0.91226190876E-01 -0.14776403833E+01  0.25053460474E+01  0.29100691398E+01  0.51100000000E-03 0. -1.
        -11    1    3    3    0    0  0.82487775772E+01 -0.17222452463E+02 -0.26450011183E+00  0.19097778953E+02  0.51100000000E-03 0.  1.
        -12    1    3    3    0    0 -0.69454344778E+01 -0.24681522757E+02 -0.26761898606E+01  0.25779422373E+02  0.00000000000E+00 0.  1.
</event>
<event>
 7    1  0.2706925E-010  0.4778728E+02  0.7816164E-02  0.1312668E+00
        -11   -1    0    0    0    0  0.00000000000E+00  0.00000000000E+00  0.45593999997E+02  0.45594000000E+02  0.51100000000E-03 0. -1.
         11   -1    0    0    0    0 -0.00000000000E+00 -0.00000000000E+00 -0.45593999997E+02  0.45594000000E+02  0.51100000000E-03 0.  1.
    9900012    2    1    2    0    0  0.43068589177E+02  0.49030933901E+01 -0.21631325707E+01  0.47787276032E+02  0.20000022738E+02 0.  0.
         12    1    1    2    0    0 -0.43068589177E+02 -0.49030933901E+01  0.21631325707E+01  0.43400723968E+02  0.00000000000E+00 0. -1.
         11    1    3    3    0    0  0.26938347411E+02  0.19765489208E+01  0.36833809294E+01  0.27260752048E+02  0.51100000000E-03 0. -1.
        -11    1    3    3    0    0  0.83647049631E+01  0.60569739528E+01 -0.63759332846E+01  0.12137040335E+02  0.51100000000E-03 0.  1.
        -12    1    3    3    0    0  0.77655368026E+01 -0.31304294835E+01  0.52941978444E+00  0.83894836487E+01  0.00000000000E+00 0.  1.
</event>
<event>
 7    1  0.2706925E-010  0.4778727E+02  0.7816164E-02  0.1312668E+00
        -11   -1    0    0    0    0  0.00000000000E+00  0.00000000000E+00  0.45593999997E+02  0.45594000000E+02  0.51100000000E-03 0.  1.
         11   -1    0    0    0    0 -0.00000000000E+00 -0.00000000000E+00 -0.45593999997E+02  0.45594000000E+02  0.51100000000E-03 0. -1.
    9900012    2    1    2    0    0  0.36193158921E+02  0.27197759274E+01  0.23796664336E+02  0.47787272272E+02  0.20000005597E+02 0.  0.
         12    1    1    2    0    0 -0.36193158921E+02 -0.27197759274E+01 -0.23796664336E+02  0.43400727728E+02  0.00000000000E+00 0. -1.
         11    1    3    3    0    0  0.21412452150E+02  0.21663794619E+01  0.44341247505E+01  0.21973797342E+02  0.51100000000E-03 0. -1.
        -11    1    3    3    0    0  0.15887811913E+02  0.15615115859E+00  0.17841652788E+02  0.23890825123E+02  0.51100000000E-03 0.  1.
         12    1    3    3    0    0 -0.11071051423E+01  0.39724530692E+00  0.15208867982E+01  0.19226498076E+01  0.00000000000E+00 0. -1.
</event>
<event>
 7    1  0.2706925E-010  0.4778727E+02  0.7816164E-02  0.1312668E+00
        -11   -1    0    0    0    0  0.00000000000E+00  0.00000000000E+00  0.45593999997E+02  0.45594000000E+02  0.51100000000E-03 0.  1.
         11   -1    0    0    0    0 -0.00000000000E+00 -0.00000000000E+00 -0.45593999997E+02  0.45594000000E+02  0.51100000000E-03 0. -1.
    9900012    2    1    2    0    0 -0.36420695876E+02  0.14747719063E+02  0.18429891229E+02  0.47787271937E+02  0.20000004071E+02 0.  0.
         12    1    1    2    0    0  0.36420695876E+02 -0.14747719063E+02 -0.18429891229E+02  0.43400728063E+02  0.00000000000E+00 0. -1.
         11    1    3    3    0    0 -0.12826893309E+02 -0.20389476640E+01  0.30896239120E+01  0.13350366127E+02  0.51100000000E-03 0. -1.
        -11    1    3    3    0    0 -0.98895843584E+01  0.83868926827E+01  0.12695447846E+02  0.18147127705E+02  0.51100000000E-03 0.  1.
         12    1    3    3    0    0 -0.13704218209E+02  0.83997740446E+01  0.26448194706E+01  0.16289778106E+02  0.00000000000E+00 0. -1.
</event>
<event>
 7    1  0.2706925E-010  0.4778727E+02  0.7816164E-02  0.1312668E+00
        -11   -1    0    0    0    0  0.00000000000E+00  0.00000000000E+00  0.45593999997E+02  0.45594000000E+02  0.51100000000E-03 0. -1.
         11   -1    0    0    0    0 -0.00000000000E+00 -0.00000000000E+00 -0.45593999997E+02  0.45594000000E+02  0.51100000000E-03 0.  1.
    9900012    2    1    2    0    0 -0.43425608965E+01  0.42551699994E+02 -0.73565009446E+01  0.47787272890E+02  0.20000008414E+02 0.  0.
         12    1    1    2    0    0  0.43425608965E+01 -0.42551699994E+02  0.73565009446E+01  0.43400727110E+02  0.00000000000E+00 0. -1.
         11    1    3    3    0    0  0.21846198474E+01  0.11073980375E+02 -0.77939488108E+01  0.13716823377E+02  0.51100000000E-03 0. -1.
        -11    1    3    3    0    0 -0.29504179047E+00  0.90026963498E+01 -0.47415313250E+01  0.10179278501E+02  0.51100000000E-03 0.  1.
         12    1    3    3    0    0 -0.62321389534E+01  0.22475023269E+02  0.51789791912E+01  0.23891171013E+02  0.00000000000E+00 0. -1.
</event>
<event>
 7    1  0.2706925E-010  0.4778730E+02  0.7816164E-02  0.1312668E+00
        -11   -1    0    0    0    0  0.00000000000E+00  0.00000000000E+00  0.45593999997E+02  0.45594000000E+02  0.51100000000E-03 0. -1.
         11   -1    0    0    0    0 -0.00000000000E+00 -0.00000000000E+00 -0.45593999997E+02  0.45594000000E+02  0.51100000000E-03 0.  1.
    9900012    2    1    2    0    0 -0.12636086664E+02  0.26009570815E+02 -0.32364367463E+02  0.47787300219E+02  0.20000133019E+02 0.  0.
         12    1    1    2    0    0  0.12636086664E+02 -0.26009570815E+02  0.32364367463E+02  0.43400699781E+02  0.00000000000E+00 0. -1.
         11    1    3    3    0    0 -0.61804545144E+01  0.52667641133E+01 -0.43080612986E+01  0.91921822568E+01  0.51100000000E-03 0. -1.
        -11    1    3    3    0    0  0.22277815105E+01  0.94182236800E+01 -0.19972950678E+02  0.22194249408E+02  0.51100000000E-03 0.  1.
        -12    1    3    3    0    0 -0.86834136602E+01  0.11324583021E+02 -0.80833554865E+01  0.16400868554E+02  0.00000000000E+00 0.  1.
</event>
<event>
 7    1  0.2706925E-010  0.4778725E+02  0.7816164E-02  0.1312668E+00
        -11   -1    0    0    0    0  0.00000000000E+00  0.00000000000E+00  0.45593999997E+02  0.45594000000E+02  0.51100000000E-03 0.  1.
         11   -1    0    0    0    0 -0.00000000000E+00 -0.00000000000E+00 -0.45593999997E+02  0.45594000000E+02  0.51100000000E-03 0. -1.
    9900012    2    1    2    0    0  0.20718420015E+02  0.38130076487E+02 -0.68512641922E+00  0.47787250478E+02  0.19999906231E+02 0.  0.
         12    1    1    2    0    0 -0.20718420015E+02 -0.38130076487E+02  0.68512641922E+00  0.43400749522E+02  0.00000000000E+00 0. -1.
         11    1    3    3    0    0  0.15476352795E+02  0.28875936864E+02 -0.19879619090E+01  0.32822084309E+02  0.51100000000E-03 0. -1.
        -11    1    3    3    0    0 -0.23645595000E+01  0.39018844814E+01 -0.21504636929E+01  0.50438416401E+01  0.51100000000E-03 0.  1.
        -12    1    3    3    0    0  0.76066267204E+01  0.53522551419E+01  0.34532991827E+01  0.99213245291E+01  0.00000000000E+00 0.  1.
</event>
<event>
 7    1  0.2706925E-010  0.4778727E+02  0.7816164E-02  0.1312668E+00
        -11   -1    0    0    0    0  0.00000000000E+00  0.00000000000E+00  0.45593999997E+02  0.45594000000E+02  0.51100000000E-03 0.  1.
         11   -1    0    0    0    0 -0.00000000000E+00 -0.00000000000E+00 -0.45593999997E+02  0.45594000000E+02  0.51100000000E-03 0. -1.
    9900012    2    1    2    0    0 -0.58301525104E+01  0.87813271201E+01  0.42101315900E+02  0.47787272071E+02  0.20000004679E+02 0.  0.
         12    1    1    2    0    0  0.58301525104E+01 -0.87813271201E+01 -0.42101315900E+02  0.43400727929E+02  0.00000000000E+00 0. -1.
         11    1    3    3    0    0 -0.23381521292E+01  0.41237913538E+01  0.63223843362E+01  0.79022246529E+01  0.51100000000E-03 0. -1.
        -11    1    3    3    0    0  0.40534610043E+01  0.81447967315E+01  0.15565847930E+02  0.18029528057E+02  0.51100000000E-03 0.  1.
        -12    1    3    3    0    0 -0.75454613855E+01 -0.34872609652E+01  0.20213083634E+02  0.21855519361E+02  0.00000000000E+00 0.  1.
</event>
<event>
 7    1  0.2706925E-010  0.4778729E+02  0.7816164E-02  0.1312668E+00
        -11   -1    0    0    0    0  0.00000000000E+00  0.00000000000E+00  0.45593999997E+02  0.45594000000E+02  0.51100000000E-03 0. -1.
         11   -1    0    0    0    0 -0.00000000000E+00 -0.00000000000E+00 -0.45593999997E+02  0.45594000000E+02  0.51100000000E-03 0.  1.
    9900012    2    1    2    0    0 -0.33760014591E+02  0.24731660177E+02  0.11499063501E+02  0.47787285009E+02  0.20000063671E+02 0.  0.
         12    1    1    2    0    0  0.33760014591E+02 -0.24731660177E+02 -0.11499063501E+02  0.43400714991E+02  0.00000000000E+00 0. -1.
         11    1    3    3    0    0 -0.90405278873E+01  0.53836209108E+01  0.10520605483E+02  0.14879437442E+02  0.51100000000E-03 0. -1.
        -11    1    3    3    0    0 -0.24611896962E+02  0.16798489542E+02 -0.78064416241E+00  0.29808457332E+02  0.51100000000E-03 0.  1.
        -12    1    3    3    0    0 -0.10758974198E+00  0.25495497246E+01  0.17591021805E+01  0.30993902356E+01  0.00000000000E+00 0.  1.
</event>
<event>
 7    1  0.2706925E-010  0.4778727E+02  0.7816164E-02  0.1312668E+00
        -11   -1    0    0    0    0  0.00000000000E+00  0.00000000000E+00  0.45593999997E+02  0.45594000000E+02  0.51100000000E-03 0.  1.
         11   -1    0    0    0    0 -0.00000000000E+00 -0.00000000000E+00 -0.45593999997E+02  0.45594000000E+02  0.51100000000E-03 0. -1.
    9900012    2    1    2    0    0 -0.29617111556E+02  0.31709658913E+02 -0.97346509904E+00  0.47787269596E+02  0.19999993395E+02 0.  0.
         12    1    1    2    0    0  0.29617111556E+02 -0.31709658913E+02  0.97346509904E+00  0.43400730404E+02  0.00000000000E+00 0. -1.
         11    1    3    3    0    0 -0.50705818836E+01  0.15113578830E+02 -0.46149793829E+01  0.16596056781E+02  0.51100000000E-03 0. -1.
        -11    1    3    3    0    0 -0.14869134425E+02  0.15017836710E+02  0.32150694720E+01  0.21376698762E+02  0.51100000000E-03 0.  1.
         12    1    3    3    0    0 -0.96773952474E+01  0.15782433727E+01  0.42644481185E+00  0.98145140529E+01  0.00000000000E+00 0. -1.
</event>
<event>
 7    1  0.2706925E-010  0.4778727E+02  0.7816164E-02  0.1312668E+00
        -11   -1    0    0    0    0  0.00000000000E+00  0.00000000000E+00  0.45593999997E+02  0.45594000000E+02  0.51100000000E-03 0.  1.
         11   -1    0    0    0    0 -0.00000000000E+00 -0.00000000000E+00 -0.45593999997E+02  0.45594000000E+02  0.51100000000E-03 0. -1.
    9900012    2    1    2    0    0  0.23500553724E+01 -0.36438647139E+02  0.23459020049E+02  0.47787269739E+02  0.19999994047E+02 0.  0.
         12    1    1    2    0    0 -0.23500553724E+01  0.36438647139E+02 -0.23459020049E+02  0.43400730261E+02  0.00000000000E+00 0. -1.
         11    1    3    3    0    0 -0.14805314317E+00 -0.20244940625E+02  0.22855178033E+02  0.30532584297E+02  0.51100000000E-03 0. -1.
        -11    1    3    3    0    0  0.46021718113E+00 -0.13434085540E+02 -0.97703404876E+00  0.13477427424E+02  0.51100000000E-03 0.  1.
         12    1    3    3    0    0  0.20378913344E+01 -0.27596209728E+01  0.15808760647E+01  0.37772580182E+01  0.00000000000E+00 0. -1.
</event>
<event>
 7    1  0.2706925E-010  0.4778726E+02  0.7816164E-02  0.1312668E+00
        -11   -1    0    0    0    0  0.00000000000E+00  0.00000000000E+00  0.45593999997E+02  0.45594000000E+02  0.51100000000E-03 0.  1.
         11   -1    0    0    0    0 -0.00000000000E+00 -0.00000000000E+00 -0.45593999997E+02  0.45594000000E+02  0.51100000000E-03 0. -1.
    9900012    2    1    2    0    0  0.71151232660E+01 -0.41233182187E+02  0.11524913329E+02  0.47787263606E+02  0.19999966084E+02 0.  0.
         12    1    1    2    0    0 -0.71151232660E+01  0.41233182187E+02 -0.11524913329E+02  0.43400736394E+02  0.00000000000E+00 0. -1.
         11    1    3    3    0    0 -0.26593904977E+01 -0.44723316570E+01 -0.24516053185E+01  0.57519107406E+01  0.51100000000E-03 0. -1.
        -11    1    3    3    0    0  0.58695152646E+01 -0.24295383363E+02  0.14620924581E+02  0.28956662412E+02  0.51100000000E-03 0.  1.
         12    1    3    3    0    0  0.39049984990E+01 -0.12465467167E+02 -0.64440593292E+00  0.13078690453E+02  0.00000000000E+00 0. -1.
</event>
<event>
 7    1  0.2706925E-010  0.4778727E+02  0.7816164E-02  0.1312668E+00
        -11   -1    0    0    0    0  0.00000000000E+00  0.00000000000E+00  0.45593999997E+02  0.45594000000E+02  0.51100000000E-03 0.  1.
         11   -1    0    0    0    0 -0.00000000000E+00 -0.00000000000E+00 -0.45593999997E+02  0.45594000000E+02  0.51100000000E-03 0. -1.
    9900012    2    1    2    0    0 -0.25488865907E+02  0.96474142123E+01  0.33776744873E+02  0.47787269817E+02  0.19999994404E+02 0.  0.
         12    1    1    2    0    0  0.25488865907E+02 -0.96474142123E+01 -0.33776744873E+02  0.43400730183E+02  0.00000000000E+00 0. -1.
         11    1    3    3    0    0  0.53108018570E+00 -0.13348165923E+01  0.62523771529E+01  0.64152943676E+01  0.51100000000E-03 0. -1.
        -11    1    3    3    0    0 -0.25597136584E+02  0.83433183954E+01  0.20447175032E+02  0.33806971621E+02  0.51100000000E-03 0.  1.
         12    1    3    3    0    0 -0.42280950892E+00  0.26389124091E+01  0.70771926879E+01  0.75650038285E+01  0.00000000000E+00 0. -1.
</event>
<event>
 7    1  0.2706925E-010  0.4778727E+02  0.7816164E-02  0.1312668E+00
        -11   -1    0    0    0    0  0.00000000000E+00  0.00000000000E+00  0.45593999997E+02  0.45594000000E+02  0.51100000000E-03 0.  1.
         11   -1    0    0    0    0 -0.00000000000E+00 -0.00000000000E+00 -0.45593999997E+02  0.45594000000E+02  0.51100000000E-03 0. -1.
    9900012    2    1    2    0    0  0.33866148675E+02 -0.83238563704E+01  0.25834494716E+02  0.47787265810E+02  0.19999976135E+02 0.  0.
         12    1    1    2    0    0 -0.33866148675E+02  0.83238563704E+01 -0.25834494716E+02  0.43400734190E+02  0.00000000000E+00 0. -1.
         11    1    3    3    0    0  0.40331382647E+01 -0.72352256219E+01  0.11292241524E+02  0.14004621128E+02  0.51100000000E-03 0. -1.
        -11    1    3    3    0    0  0.20784769387E+02  0.33628331550E+00  0.12933903881E+02  0.24482761176E+02  0.51100000000E-03 0.  1.
         12    1    3    3    0    0  0.90482410235E+01 -0.14249140641E+01  0.16083493112E+01  0.92998835055E+01  0.00000000000E+00 0. -1.
</event>
<event>
 7    1  0.2706925E-010  0.4778727E+02  0.7816164E-02  0.1312668E+00
        -11   -1    0    0    0    0  0.00000000000E+00  0.00000000000E+00  0.45593999997E+02  0.45594000000E+02  0.51100000000E-03 0. -1.
         11   -1    0    0    0    0 -0.00000000000E+00 -0.00000000000E+00 -0.45593999997E+02  0.45594000000E+02  0.51100000000E-03 0.  1.
    9900012    2    1    2    0    0 -0.18021725268E+02 -0.94608610170E+01 -0.38331878414E+02  0.47787269873E+02  0.19999994661E+02 0.  0.
         12    1    1    2    0    0  0.18021725268E+02  0.94608610170E+01  0.38331878414E+02  0.43400730127E+02  0.00000000000E+00 0. -1.
         11    1    3    3    0    0 -0.24594028649E+01  0.32822354618E+01 -0.81161324540E+01  0.90935877601E+01  0.51100000000E-03 0. -1.
        -11    1    3    3    0    0 -0.16533571991E+02 -0.10590910406E+02 -0.19323965434E+02  0.27548902453E+02  0.51100000000E-03 0.  1.
        -12    1    3    3    0    0  0.97124958826E+00 -0.21521860723E+01 -0.10891780526E+02  0.11144779660E+02  0.00000000000E+00 0.  1.
</event>
<event>
 7    1  0.2706925E-010  0.4778727E+02  0.7816164E-02  0.1312668E+00
        -11   -1    0    0    0    0  0.00000000000E+00  0.00000000000E+00  0.45593999997E+02  0.45594000000E+02  0.51100000000E-03 0.  1.
         11   -1    0    0    0    0 -0.00000000000E+00 -0.00000000000E+00 -0.45593999997E+02  0.45594000000E+02  0.51100000000E-03 0. -1.
    9900012    2    1    2    0    0 -0.38948377521E+02 -0.70341496697E+01  0.17809211857E+02  0.47787269591E+02  0.19999993371E+02 0.  0.
         12    1    1    2    0    0  0.38948377521E+02  0.70341496697E+01 -0.17809211857E+02  0.43400730409E+02  0.00000000000E+00 0. -1.
         11    1    3    3    0    0 -0.17207882499E+02 -0.37742385191E+01 -0.84621789881E+00  0.17637238488E+02  0.51100000000E-03 0. -1.
        -11    1    3    3    0    0 -0.16323336868E+02 -0.58747815605E+01  0.11555395350E+02  0.20844460820E+02  0.51100000000E-03 0.  1.
         12    1    3    3    0    0 -0.54171581539E+01  0.26148704099E+01  0.71000344059E+01  0.93055702829E+01  0.00000000000E+00 0. -1.
</event>
<event>
 7    1  0.2746833E-010  0.4778727E+02  0.7816164E-02  0.1312668E+00
        -11   -1    0    0    0    0  0.00000000000E+00  0.00000000000E+00  0.45593999997E+02  0.45594000000E+02  0.51100000000E-03 0. -1.
         11   -1    0    0    0    0 -0.00000000000E+00 -0.00000000000E+00 -0.45593999997E+02  0.45594000000E+02  0.51100000000E-03 0.  1.
    9900012    2    1    2    0    0  0.37502670458E+02 -0.17420017694E+02  0.13180134506E+02  0.47787271279E+02  0.20000001068E+02 0.  0.
         12    1    1    2    0    0 -0.37502670458E+02  0.17420017694E+02 -0.13180134506E+02  0.43400728721E+02  0.00000000000E+00 0. -1.
         11    1    3    3    0    0 -0.15700376883E+00  0.22671616944E+00 -0.16338087225E+01  0.16569193124E+01  0.51100000000E-03 0. -1.
        -11    1    3    3    0    0  0.35542569399E+02 -0.13076871113E+02  0.10015111335E+02  0.39173731670E+02  0.51100000000E-03 0.  1.
        -12    1    3    3    0    0  0.21171048277E+01 -0.45698627500E+01  0.47988318939E+01  0.69566202966E+01  0.00000000000E+00 0.  1.
</event>
<event>
 7    1  0.2706925E-010  0.4778727E+02  0.7816164E-02  0.1312668E+00
        -11   -1    0    0    0    0  0.00000000000E+00  0.00000000000E+00  0.45593999997E+02  0.45594000000E+02  0.51100000000E-03 0.  1.
         11   -1    0    0    0    0 -0.00000000000E+00 -0.00000000000E+00 -0.45593999997E+02  0.45594000000E+02  0.51100000000E-03 0. -1.
    9900012    2    1    2    0    0 -0.22045580276E+02  0.30481233000E+02 -0.21645096293E+02  0.47787269955E+02  0.19999995034E+02 0.  0.
         12    1    1    2    0    0  0.22045580276E+02 -0.30481233000E+02  0.21645096293E+02  0.43400730045E+02  0.00000000000E+00 0. -1.
         11    1    3    3    0    0  0.12694037452E+01 -0.13137010642E+01 -0.31408731149E+01  0.36334942603E+01  0.51100000000E-03 0. -1.
        -11    1    3    3    0    0 -0.18577374599E+02  0.19594573207E+02 -0.12514229439E+02  0.29760243361E+02  0.51100000000E-03 0.  1.
        -12    1    3    3    0    0 -0.47376094227E+01  0.12200360857E+02 -0.59899937383E+01  0.14393532334E+02  0.00000000000E+00 0.  1.
</event>
<event>
 7    1  0.2706925E-010  0.4778732E+02  0.7816164E-02  0.1312668E+00
        -11   -1    0    0    0    0  0.00000000000E+00  0.00000000000E+00  0.45593999997E+02  0.45594000000E+02  0.51100000000E-03 0.  1.
         11   -1    0    0    0    0 -0.00000000000E+00 -0.00000000000E+00 -0.45593999997E+02  0.45594000000E+02  0.51100000000E-03 0. -1.
    9900012    2    1    2    0    0  0.11474377077E+02 -0.37946834320E+02  0.17663397799E+02  0.47787318139E+02  0.20000214721E+02 0.  0.
         12    1    1    2    0    0 -0.11474377077E+02  0.37946834320E+02 -0.17663397799E+02  0.43400681861E+02  0.00000000000E+00 0. -1.
         11    1    3    3    0    0 -0.12814688234E+01 -0.46581651157E+01  0.71899720399E+01  0.86623531899E+01  0.51100000000E-03 0. -1.
        -11    1    3    3    0    0  0.13424360171E+02 -0.30081664492E+02  0.12544904827E+02  0.35249037179E+02  0.51100000000E-03 0.  1.
        -12    1    3    3    0    0 -0.66851427091E+00 -0.32070047118E+01 -0.20714790677E+01  0.38759277702E+01  0.00000000000E+00 0.  1.
</event>
<event>
 7    1  0.2706925E-010  0.4778727E+02  0.7816164E-02  0.1312668E+00
        -11   -1    0    0    0    0  0.00000000000E+00  0.00000000000E+00  0.45593999997E+02  0.45594000000E+02  0.51100000000E-03 0. -1.
         11   -1    0    0    0    0 -0.00000000000E+00 -0.00000000000E+00 -0.45593999997E+02  0.45594000000E+02  0.51100000000E-03 0.  1.
    9900012    2    1    2    0    0  0.25560654693E+01  0.29718189154E+02 -0.31526481322E+02  0.47787271184E+02  0.20000000635E+02 0.  0.
         12    1    1    2    0    0 -0.25560654693E+01 -0.29718189154E+02  0.31526481322E+02  0.43400728816E+02  0.00000000000E+00 0. -1.
         11    1    3    3    0    0 -0.55449993765E+01  0.66366664319E+01 -0.57065546159E+01  0.10361328354E+02  0.51100000000E-03 0. -1.
        -11    1    3    3    0    0  0.41245207314E+01  0.22718017372E+02 -0.22375786395E+02  0.32152695091E+02  0.51100000000E-03 0.  1.
         12    1    3    3    0    0  0.39765441145E+01  0.36350535018E+00 -0.34441403107E+01  0.52732477387E+01  0.00000000000E+00 0. -1.
</event>
<event>
 7    1  0.2706925E-010  0.4778726E+02  0.7816164E-02  0.1312668E+00
        -11   -1    0    0    0    0  0.00000000000E+00  0.00000000000E+00  0.45593999997E+02  0.45594000000E+02  0.51100000000E-03 0.  1.
         11   -1    0    0    0    0 -0.00000000000E+00 -0.00000000000E+00 -0.45593999997E+02  0.45594000000E+02  0.51100000000E-03 0. -1.
    9900012    2    1    2    0    0  0.69288913840E+01  0.10450138291E+02  0.41550078532E+02  0.47787263231E+02  0.19999964375E+02 0.  0.
         12    1    1    2    0    0 -0.69288913840E+01 -0.10450138291E+02 -0.41550078532E+02  0.43400736769E+02  0.00000000000E+00 0. -1.
         11    1    3    3    0    0 -0.30652992338E+01  0.40726385994E+01  0.30461267241E+02  0.30884806083E+02  0.51100000000E-03 0.  1.
        -11    1    3    3    0    0  0.97024224544E+01  0.42218815669E+01  0.92304821020E+01  0.14041477328E+02  0.51100000000E-03 0. -1.
        -12    1    3    3    0    0  0.29176816341E+00  0.21556181248E+01  0.18583291882E+01  0.28609798204E+01  0.00000000000E+00 0.  1.
</event>
<event>
 7    1  0.2706925E-010  0.4778727E+02  0.7816164E-02  0.1312668E+00
        -11   -1    0    0    0    0  0.00000000000E+00  0.00000000000E+00  0.45593999997E+02  0.45594000000E+02  0.51100000000E-03 0. -1.
         11   -1    0    0    0    0 -0.00000000000E+00 -0.00000000000E+00 -0.45593999997E+02  0.45594000000E+02  0.51100000000E-03 0.  1.
    9900012    2    1    2    0    0 -0.25324519380E+02 -0.34478969763E+02  0.73138578210E+01  0.47787272426E+02  0.20000006298E+02 0.  0.
         12    1    1    2    0    0  0.25324519380E+02  0.34478969763E+02 -0.73138578210E+01  0.43400727574E+02  0.00000000000E+00 0. -1.
         11    1    3    3    0    0 -0.28249466997E+01 -0.59557799083E+01 -0.96806925632E+00  0.66624917649E+01  0.51100000000E-03 0. -1.
        -11    1    3    3    0    0 -0.80712504880E+01 -0.22154208993E+02  0.92392352425E+01  0.25324247840E+02  0.51100000000E-03 0.  1.
        -12    1    3    3    0    0 -0.14428322192E+02 -0.63689808622E+01 -0.95730816518E+00  0.15800532821E+02  0.00000000000E+00 0.  1.
</event>
<event>
 7    1  0.2706925E-010  0.4778729E+02  0.7816164E-02  0.1312668E+00
        -11   -1    0    0    0    0  0.00000000000E+00  0.00000000000E+00  0.45593999997E+02  0.45594000000E+02  0.51100000000E-03 0.  1.
         11   -1    0    0    0    0 -0.00000000000E+00 -0.00000000000E+00 -0.45593999997E+02  0.45594000000E+02  0.51100000000E-03 0. -1.
    9900012    2    1    2    0    0 -0.12248458254E+02 -0.32456848032E+02  0.26079679729E+02  0.47787292534E+02  0.20000097980E+02 0.  0.
         12    1    1    2    0    0  0.12248458254E+02  0.32456848032E+02 -0.26079679729E+02  0.43400707466E+02  0.00000000000E+00 0. -1.
         11    1    3    3    0    0 -0.13596506212E+02 -0.21395154215E+02  0.11824338691E+02  0.27971996547E+02  0.51100000000E-03 0. -1.
        -11    1    3    3    0    0  0.10573680388E+00 -0.12118732568E+02  0.12274638241E+02  0.17249394294E+02  0.51100000000E-03 0.  1.
         12    1    3    3    0    0  0.12423111546E+01  0.10570387511E+01  0.19807027978E+01  0.25659016933E+01  0.00000000000E+00 0. -1.
</event>
<event>
 7    1  0.2706925E-010  0.4778727E+02  0.7816164E-02  0.1312668E+00
        -11   -1    0    0    0    0  0.00000000000E+00  0.00000000000E+00  0.45593999997E+02  0.45594000000E+02  0.51100000000E-03 0. -1.
         11   -1    0    0    0    0 -0.00000000000E+00 -0.00000000000E+00 -0.45593999997E+02  0.45594000000E+02  0.51100000000E-03 0.  1.
    9900012    2    1    2    0    0  0.38547358866E+02 -0.95467261445E+01  0.17509551904E+02  0.47787271164E+02  0.20000000546E+02 0.  0.
         12    1    1    2    0    0 -0.38547358866E+02  0.95467261445E+01 -0.17509551904E+02  0.43400728836E+02  0.00000000000E+00 0. -1.
         11    1    3    3    0    0 -0.11507541442E+01 -0.22996879021E+01 -0.13694388338E+01  0.29134451304E+01  0.51100000000E-03 0. -1.
        -11    1    3    3    0    0  0.20810885375E+02 -0.34179664764E+01  0.69325315437E+01  0.22199897269E+02  0.51100000000E-03 0.  1.
         12    1    3    3    0    0  0.18887227635E+02 -0.38290717660E+01  0.11946459194E+02  0.22673928764E+02  0.00000000000E+00 0. -1.
</event>
<event>
 7    1  0.2706925E-010  0.4778727E+02  0.7816164E-02  0.1312668E+00
        -11   -1    0    0    0    0  0.00000000000E+00  0.00000000000E+00  0.45593999997E+02  0.45594000000E+02  0.51100000000E-03 0.  1.
         11   -1    0    0    0    0 -0.00000000000E+00 -0.00000000000E+00 -0.45593999997E+02  0.45594000000E+02  0.51100000000E-03 0. -1.
    9900012    2    1    2    0    0  0.36245235427E+01  0.90000350353E+01  0.42302310253E+02  0.47787271270E+02  0.20000001030E+02 0.  0.
         12    1    1    2    0    0 -0.36245235427E+01 -0.90000350353E+01 -0.42302310253E+02  0.43400728730E+02  0.00000000000E+00 0. -1.
         11    1    3    3    0    0  0.77049311089E+01  0.16540929428E+01  0.22377474201E+02  0.23724530316E+02  0.51100000000E-03 0.  1.
        -11    1    3    3    0    0  0.27617898426E+01  0.57479658875E+00  0.93334984306E+01  0.97504906271E+01  0.51100000000E-03 0. -1.
         12    1    3    3    0    0 -0.68421974088E+01  0.67711455038E+01  0.10591337621E+02  0.14312250327E+02  0.00000000000E+00 0. -1.
</event>
<event>
 7    1  0.2706925E-010  0.4778727E+02  0.7816164E-02  0.1312668E+00
        -11   -1    0    0    0    0  0.00000000000E+00  0.00000000000E+00  0.45593999997E+02  0.45594000000E+02  0.51100000000E-03 0. -1.
         11   -1    0    0    0    0 -0.00000000000E+00 -0.00000000000E+00 -0.45593999997E+02  0.45594000000E+02  0.51100000000E-03 0.  1.
    9900012    2    1    2    0    0 -0.33646859986E+01  0.10443349166E+02 -0.41990931303E+02  0.47787274599E+02  0.20000016205E+02 0.  0.
         12    1    1    2    0    0  0.33646859986E+01 -0.10443349166E+02  0.41990931303E+02  0.43400725401E+02  0.00000000000E+00 0. -1.
         11    1    3    3    0    0 -0.26013938213E+01 -0.15775096986E+00 -0.10797240354E+01  0.28209819985E+01  0.51100000000E-03 0. -1.
        -11    1    3    3    0    0  0.64570462276E+01  0.68369279017E+01 -0.29391732644E+02  0.30859536244E+02  0.51100000000E-03 0.  1.
        -12    1    3    3    0    0 -0.72203384049E+01  0.37641722342E+01 -0.11519474624E+02  0.14106756356E+02  0.00000000000E+00 0.  1.
</event>
<event>
 7    1  0.2706925E-010  0.4778727E+02  0.7816164E-02  0.1312668E+00
        -11   -1    0    0    0    0  0.00000000000E+00  0.00000000000E+00  0.45593999997E+02  0.45594000000E+02  0.51100000000E-03 0.  1.
         11   -1    0    0    0    0 -0.00000000000E+00 -0.00000000000E+00 -0.45593999997E+02  0.45594000000E+02  0.51100000000E-03 0. -1.
    9900012    2    1    2    0    0  0.11536052036E+02 -0.20199094229E+02  0.36640677320E+02  0.47787272601E+02  0.20000007097E+02 0.  0.
         12    1    1    2    0    0 -0.11536052036E+02  0.20199094229E+02 -0.36640677320E+02  0.43400727399E+02  0.00000000000E+00 0. -1.
         11    1    3    3    0    0  0.38104371952E+01 -0.14087615863E+02  0.92664888101E+01  0.17287225557E+02  0.51100000000E-03 0. -1.
        -11    1    3    3    0    0  0.35265450068E+01 -0.31047538222E+01  0.29770591800E+01  0.55622744992E+01  0.51100000000E-03 0.  1.
         12    1    3    3    0    0  0.41990698341E+01 -0.30067245443E+01  0.24397129330E+02  0.24937772545E+02  0.00000000000E+00 0. -1.
</event>
<event>
 7    1  0.2706925E-010  0.4778728E+02  0.7816164E-02  0.1312668E+00
        -11   -1    0    0    0    0  0.00000000000E+00  0.00000000000E+00  0.45593999997E+02  0.45594000000E+02  0.51100000000E-03 0. -1.
         11   -1    0    0    0    0 -0.00000000000E+00 -0.00000000000E+00 -0.45593999997E+02  0.45594000000E+02  0.51100000000E-03 0.  1.
    9900012    2    1    2    0    0  0.32887941180E+02 -0.26370178213E+02  0.10325682483E+02  0.47787277739E+02  0.20000030522E+02 0.  0.
         12    1    1    2    0    0 -0.32887941180E+02  0.26370178213E+02 -0.10325682483E+02  0.43400722261E+02  0.00000000000E+00 0. -1.
         11    1    3    3    0    0  0.25940384412E+01 -0.92996495571E+01 -0.99741019290E-02  0.96546681487E+01  0.51100000000E-03 0. -1.
        -11    1    3    3    0    0  0.27424082122E+02 -0.17776811596E+02  0.11909689435E+02  0.34784134508E+02  0.51100000000E-03 0.  1.
         12    1    3    3    0    0  0.28698206165E+01  0.70628293991E+00 -0.15740328500E+01  0.33484750820E+01  0.00000000000E+00 0. -1.
</event>
<event>
 7    1  0.2706925E-010  0.4778727E+02  0.7816164E-02  0.1312668E+00
        -11   -1    0    0    0    0  0.00000000000E+00  0.00000000000E+00  0.45593999997E+02  0.45594000000E+02  0.51100000000E-03 0.  1.
         11   -1    0    0    0    0 -0.00000000000E+00 -0.00000000000E+00 -0.45593999997E+02  0.45594000000E+02  0.51100000000E-03 0. -1.
    9900012    2    1    2    0    0 -0.19791625923E+02  0.24889553654E+02  0.29536843347E+02  0.47787268984E+02  0.19999990607E+02 0.  0.
         12    1    1    2    0    0  0.19791625923E+02 -0.24889553654E+02 -0.29536843347E+02  0.43400731016E+02  0.00000000000E+00 0. -1.
         11    1    3    3    0    0 -0.39341914431E+00  0.10863166086E+02  0.32556619872E+01  0.11347356135E+02  0.51100000000E-03 0. -1.
        -11    1    3    3    0    0 -0.19991028654E+02  0.14177424474E+02  0.24942710690E+02  0.34968262871E+02  0.51100000000E-03 0.  1.
        -12    1    3    3    0    0  0.59282187619E+00 -0.15103690506E+00  0.13384706704E+01  0.14716499785E+01  0.00000000000E+00 0.  1.
</event>
<event>
 7    1  0.2706925E-010  0.4778727E+02  0.7816164E-02  0.1312668E+00
        -11   -1    0    0    0    0  0.00000000000E+00  0.00000000000E+00  0.45593999997E+02  0.45594000000E+02  0.51100000000E-03 0.  1.
         11   -1    0    0    0    0 -0.00000000000E+00 -0.00000000000E+00 -0.45593999997E+02  0.45594000000E+02  0.51100000000E-03 0. -1.
    9900012    2    1    2    0    0  0.36234954946E+02 -0.20431165186E+02  0.12378167309E+02  0.47787268477E+02  0.19999988294E+02 0.  0.
         12    1    1    2    0    0 -0.36234954946E+02  0.20431165186E+02 -0.12378167309E+02  0.43400731523E+02  0.00000000000E+00 0. -1.
         11    1    3    3    0    0  0.34812157725E+01  0.28293448038E+01  0.99021428996E+00  0.45939721239E+01  0.51100000000E-03 0. -1.
        -11    1    3    3    0    0  0.32150233816E+02 -0.19020225861E+02  0.10682497723E+02  0.38852571139E+02  0.51100000000E-03 0.  1.
         12    1    3    3    0    0  0.60350535713E+00 -0.42402841292E+01  0.70545529641E+00  0.43407252145E+01  0.00000000000E+00 0. -1.
</event>
<event>
 7    1  0.2706925E-010  0.4778725E+02  0.7816164E-02  0.1312668E+00
        -11   -1    0    0    0    0  0.00000000000E+00  0.00000000000E+00  0.45593999997E+02  0.45594000000E+02  0.51100000000E-03 0.  1.
         11   -1    0    0    0    0 -0.00000000000E+00 -0.00000000000E+00 -0.45593999997E+02  0.45594000000E+02  0.51100000000E-03 0. -1.
    9900012    2    1    2    0    0  0.30656216668E+02  0.23421046758E+02  0.19881560250E+02  0.47787245518E+02  0.19999883615E+02 0.  0.
         12    1    1    2    0    0 -0.30656216668E+02 -0.23421046758E+02 -0.19881560250E+02  0.43400754482E+02  0.00000000000E+00 0. -1.
         11    1    3    3    0    0  0.10652459777E+01 -0.70344445722E+00  0.38602639938E+01  0.40658604822E+01  0.51100000000E-03 0. -1.
        -11    1    3    3    0    0  0.30627934078E+02  0.24794425475E+02  0.15853485140E+02  0.42475485541E+02  0.51100000000E-03 0.  1.
        -12    1    3    3    0    0 -0.10369633881E+01 -0.66993426045E+00  0.16781111626E+00  0.12458994953E+01  0.00000000000E+00 0.  1.
</event>
<event>
 7    1  0.2706925E-010  0.4778727E+02  0.7816164E-02  0.1312668E+00
        -11   -1    0    0    0    0  0.00000000000E+00  0.00000000000E+00  0.45593999997E+02  0.45594000000E+02  0.51100000000E-03 0.  1.
         11   -1    0    0    0    0 -0.00000000000E+00 -0.00000000000E+00 -0.45593999997E+02  0.45594000000E+02  0.51100000000E-03 0. -1.
    9900012    2    1    2    0    0  0.21862566114E+02 -0.36992451891E+02  0.61000149155E+01  0.47787268717E+02  0.19999989386E+02 0.  0.
         12    1    1    2    0    0 -0.21862566114E+02  0.36992451891E+02 -0.61000149155E+01  0.43400731283E+02  0.00000000000E+00 0. -1.
         11    1    3    3    0    0  0.15286788503E+02 -0.28331816596E+02  0.10174863052E+02  0.33762487657E+02  0.51100000000E-03 0. -1.
        -11    1    3    3    0    0  0.53425660054E+01 -0.79402846254E+01  0.14331491362E+00  0.95713985854E+01  0.51100000000E-03 0.  1.
         12    1    3    3    0    0  0.12332116052E+01 -0.72035066918E+00 -0.42181630499E+01  0.44533824746E+01  0.00000000000E+00 0. -1.
</event>
<event>
 7    1  0.2706925E-010  0.4778727E+02  0.7816164E-02  0.1312668E+00
        -11   -1    0    0    0    0  0.00000000000E+00  0.00000000000E+00  0.45593999997E+02  0.45594000000E+02  0.51100000000E-03 0.  1.
         11   -1    0    0    0    0 -0.00000000000E+00 -0.00000000000E+00 -0.45593999997E+02  0.45594000000E+02  0.51100000000E-03 0. -1.
    9900012    2    1    2    0    0 -0.36695179014E+02 -0.30405887720E+01  0.22974812074E+02  0.47787270366E+02  0.19999996905E+02 0.  0.
         12    1    1    2    0    0  0.36695179014E+02  0.30405887720E+01 -0.22974812074E+02  0.43400729634E+02  0.00000000000E+00 0. -1.
         11    1    3    3    0    0 -0.98806586642E+01  0.31290263821E+01  0.77096984470E+01  0.12917339979E+02  0.51100000000E-03 0. -1.
        -11    1    3    3    0    0 -0.13230696320E+02 -0.26052017986E+01  0.15854913050E+02  0.20813857634E+02  0.51100000000E-03 0.  1.
        -12    1    3    3    0    0 -0.13583824030E+02 -0.35644133554E+01 -0.58979942342E+00  0.14056072752E+02  0.00000000000E+00 0.  1.
</event>
<event>
 7    1  0.2706925E-010  0.4778727E+02  0.7816164E-02  0.1312668E+00
        -11   -1    0    0    0    0  0.00000000000E+00  0.00000000000E+00  0.45593999997E+02  0.45594000000E+02  0.51100000000E-03 0.  1.
         11   -1    0    0    0    0 -0.00000000000E+00 -0.00000000000E+00 -0.45593999997E+02  0.45594000000E+02  0.51100000000E-03 0. -1.
    9900012    2    1    2    0    0  0.22453692961E+02 -0.33923687408E+02  0.15120792607E+02  0.47787271158E+02  0.20000000518E+02 0.  0.
         12    1    1    2    0    0 -0.22453692961E+02  0.33923687408E+02 -0.15120792607E+02  0.43400728842E+02  0.00000000000E+00 0. -1.
         11    1    3    3    0    0  0.13944881758E+02 -0.11358117037E+02  0.38798966552E+00  0.17989360359E+02  0.51100000000E-03 0. -1.
        -11    1    3    3    0    0  0.87519603712E+01 -0.23353397604E+02  0.13630185514E+02  0.28421117983E+02  0.51100000000E-03 0.  1.
         12    1    3    3    0    0 -0.24314916809E+00  0.78782723324E+00  0.11026174275E+01  0.13767928162E+01  0.00000000000E+00 0. -1.
</event>
<event>
 7    1  0.2706925E-010  0.4778728E+02  0.7816164E-02  0.1312668E+00
        -11   -1    0    0    0    0  0.00000000000E+00  0.00000000000E+00  0.45593999997E+02  0.45594000000E+02  0.51100000000E-03 0. -1.
         11   -1    0    0    0    0 -0.00000000000E+00 -0.00000000000E+00 -0.45593999997E+02  0.45594000000E+02  0.51100000000E-03 0.  1.
    9900012    2    1    2    0    0  0.42871392645E+02 -0.62807304435E+01 -0.24937778720E+01  0.47787276385E+02  0.20000024351E+02 0.  0.
         12    1    1    2    0    0 -0.42871392645E+02  0.62807304435E+01  0.24937778720E+01  0.43400723615E+02  0.00000000000E+00 0. -1.
         11    1    3    3    0    0  0.36539635175E+01 -0.14818650435E+01 -0.17541594066E-01  0.39430548263E+01  0.51100000000E-03 0. -1.
        -11    1    3    3    0    0  0.11739849398E+02 -0.10434121860E+02 -0.28221275889E+00  0.15709061308E+02  0.51100000000E-03 0.  1.
        -12    1    3    3    0    0  0.27477579730E+02  0.56352564599E+01 -0.21940235190E+01  0.28135160251E+02  0.00000000000E+00 0.  1.
</event>
<event>
 7    1  0.2706925E-010  0.4778727E+02  0.7816164E-02  0.1312668E+00
        -11   -1    0    0    0    0  0.00000000000E+00  0.00000000000E+00  0.45593999997E+02  0.45594000000E+02  0.51100000000E-03 0. -1.
         11   -1    0    0    0    0 -0.00000000000E+00 -0.00000000000E+00 -0.45593999997E+02  0.45594000000E+02  0.51100000000E-03 0.  1.
    9900012    2    1    2    0    0 -0.18749985564E+02  0.31073467437E+02 -0.23801282089E+02  0.47787269980E+02  0.19999995148E+02 0.  0.
         12    1    1    2    0    0  0.18749985564E+02 -0.31073467437E+02  0.23801282089E+02  0.43400730020E+02  0.00000000000E+00 0. -1.
         11    1    3    3    0    0 -0.18076270215E+00  0.61236102610E+01 -0.11349398415E+02  0.12897291283E+02  0.51100000000E-03 0. -1.
        -11    1    3    3    0    0  0.57901983473E+00  0.38900241137E+01 -0.28257862749E+01  0.48427905082E+01  0.51100000000E-03 0.  1.
         12    1    3    3    0    0 -0.19148242696E+02  0.21059833062E+02 -0.96260973989E+01  0.30047188189E+02  0.00000000000E+00 0. -1.
</event>
<event>
 7    1  0.2706925E-010  0.4778727E+02  0.7816164E-02  0.1312668E+00
        -11   -1    0    0    0    0  0.00000000000E+00  0.00000000000E+00  0.45593999997E+02  0.45594000000E+02  0.51100000000E-03 0.  1.
         11   -1    0    0    0    0 -0.00000000000E+00 -0.00000000000E+00 -0.45593999997E+02  0.45594000000E+02  0.51100000000E-03 0. -1.
    9900012    2    1    2    0    0 -0.15200790943E+02 -0.37861270301E+02  0.14801463266E+02  0.47787272484E+02  0.20000006561E+02 0.  0.
         12    1    1    2    0    0  0.15200790943E+02  0.37861270301E+02 -0.14801463266E+02  0.43400727516E+02  0.00000000000E+00 0. -1.
         11    1    3    3    0    0  0.24159177953E+01 -0.94835388091E+01  0.60466381089E+01  0.11503738515E+02  0.51100000000E-03 0. -1.
        -11    1    3    3    0    0 -0.12249482473E+02 -0.14070642153E+02 -0.33902990511E-01  0.18655667802E+02  0.51100000000E-03 0.  1.
        -12    1    3    3    0    0 -0.53672262662E+01 -0.14307089339E+02  0.87887281480E+01  0.17627866167E+02  0.00000000000E+00 0.  1.
</event>
<event>
 7    1  0.2706925E-010  0.4778728E+02  0.7816164E-02  0.1312668E+00
        -11   -1    0    0    0    0  0.00000000000E+00  0.00000000000E+00  0.45593999997E+02  0.45594000000E+02  0.51100000000E-03 0.  1.
         11   -1    0    0    0    0 -0.00000000000E+00 -0.00000000000E+00 -0.45593999997E+02  0.45594000000E+02  0.51100000000E-03 0. -1.
    9900012    2    1    2    0    0  0.15905813745E+02  0.97625214645E+01  0.39183164920E+02  0.47787283999E+02  0.20000059066E+02 0.  0.
         12    1    1    2    0    0 -0.15905813745E+02 -0.97625214645E+01 -0.39183164920E+02  0.43400716001E+02  0.00000000000E+00 0. -1.
         11    1    3    3    0    0  0.97243252681E+01  0.15506726261E+02  0.25132546431E+02  0.31091252011E+02  0.51100000000E-03 0. -1.
        -11    1    3    3    0    0  0.31806229963E+01 -0.44594824120E+01  0.67064765021E+01  0.86591092707E+01  0.51100000000E-03 0.  1.
         12    1    3    3    0    0  0.30008654806E+01 -0.12847223847E+01  0.73441419870E+01  0.80369227173E+01  0.00000000000E+00 0. -1.
</event>
<event>
 7    1  0.2706925E-010  0.4778727E+02  0.7816164E-02  0.1312668E+00
        -11   -1    0    0    0    0  0.00000000000E+00  0.00000000000E+00  0.45593999997E+02  0.45594000000E+02  0.51100000000E-03 0. -1.
         11   -1    0    0    0    0 -0.00000000000E+00 -0.00000000000E+00 -0.45593999997E+02  0.45594000000E+02  0.51100000000E-03 0.  1.
    9900012    2    1    2    0    0  0.23080345507E+02 -0.34676933799E+02 -0.12183230372E+02  0.47787272025E+02  0.20000004472E+02 0.  0.
         12    1    1    2    0    0 -0.23080345507E+02  0.34676933799E+02  0.12183230372E+02  0.43400727975E+02  0.00000000000E+00 0. -1.
         11    1    3    3    0    0  0.12370857867E+02 -0.74075057161E+01 -0.10071023118E+02  0.17587915516E+02  0.51100000000E-03 0. -1.
        -11    1    3    3    0    0  0.95243001142E+01 -0.16133594177E+02  0.32734814994E+00  0.18737991109E+02  0.51100000000E-03 0.  1.
         12    1    3    3    0    0  0.11851875256E+01 -0.11135833906E+02 -0.24395554036E+01  0.11461365399E+02  0.00000000000E+00 0. -1.
</event>
<event>
 7    1  0.2706925E-010  0.4778726E+02  0.7816164E-02  0.1312668E+00
        -11   -1    0    0    0    0  0.00000000000E+00  0.00000000000E+00  0.45593999997E+02  0.45594000000E+02  0.51100000000E-03 0.  1.
         11   -1    0    0    0    0 -0.00000000000E+00 -0.00000000000E+00 -0.45593999997E+02  0.45594000000E+02  0.51100000000E-03 0. -1.
    9900012    2    1    2    0    0  0.12048620492E+02  0.40254978303E+02  0.10862381287E+02  0.47787264279E+02  0.19999969152E+02 0.  0.
         12    1    1    2    0    0 -0.12048620492E+02 -0.40254978303E+02 -0.10862381287E+02  0.43400735721E+02  0.00000000000E+00 0. -1.
         11    1    3    3    0    0 -0.12424944273E+01 -0.51939544256E+00  0.27282599889E+01  0.30425263936E+01  0.51100000000E-03 0. -1.
        -11    1    3    3    0    0  0.62860141023E+01  0.31829537298E+02  0.78467051902E+01  0.33379697429E+02  0.51100000000E-03 0.  1.
        -12    1    3    3    0    0  0.70051008173E+01  0.89448364479E+01  0.28741610748E+00  0.11365040456E+02  0.00000000000E+00 0.  1.
</event>
<event>
 7    1  0.2706925E-010  0.4778727E+02  0.7816164E-02  0.1312668E+00
        -11   -1    0    0    0    0  0.00000000000E+00  0.00000000000E+00  0.45593999997E+02  0.45594000000E+02  0.51100000000E-03 0.  1.
         11   -1    0    0    0    0 -0.00000000000E+00 -0.00000000000E+00 -0.45593999997E+02  0.45594000000E+02  0.51100000000E-03 0. -1.
    9900012    2    1    2    0    0  0.71811349806E+01  0.21151412214E+02  0.37211183070E+02  0.47787273235E+02  0.20000009989E+02 0.  0.
         12    1    1    2    0    0 -0.71811349806E+01 -0.21151412214E+02 -0.37211183070E+02  0.43400726765E+02  0.00000000000E+00 0. -1.
         11    1    3    3    0    0  0.36603353758E+01  0.94421169048E+00 -0.62160799377E+00  0.38309251544E+01  0.51100000000E-03 0. -1.
        -11    1    3    3    0    0 -0.14726181665E+01  0.15265257147E+02  0.25119727539E+02  0.29431231574E+02  0.51100000000E-03 0.  1.
        -12    1    3    3    0    0  0.49934177713E+01  0.49419433765E+01  0.12713063524E+02  0.14525116507E+02  0.00000000000E+00 0.  1.
</event>
<event>
 7    1  0.2706925E-010  0.4778727E+02  0.7816164E-02  0.1312668E+00
        -11   -1    0    0    0    0  0.00000000000E+00  0.00000000000E+00  0.45593999997E+02  0.45594000000E+02  0.51100000000E-03 0.  1.
         11   -1    0    0    0    0 -0.00000000000E+00 -0.00000000000E+00 -0.45593999997E+02  0.45594000000E+02  0.51100000000E-03 0. -1.
    9900012    2    1    2    0    0  0.34650225596E+02  0.26103879031E+02  0.12541336151E+01  0.47787268607E+02  0.19999988887E+02 0.  0.
         12    1    1    2    0    0 -0.34650225596E+02 -0.26103879031E+02 -0.12541336151E+01  0.43400731393E+02  0.00000000000E+00 0. -1.
         11    1    3    3    0    0  0.24097842309E+00  0.37262295366E+01  0.17960906704E+00  0.37383307556E+01  0.51100000000E-03 0.  1.
        -11    1    3    3    0    0  0.90834191863E+01  0.82481571243E+01 -0.67601732766E+01  0.14008588189E+02  0.51100000000E-03 0. -1.
        -12    1    3    3    0    0  0.25325827987E+02  0.14129492370E+02  0.78346978247E+01  0.30040349662E+02  0.00000000000E+00 0.  1.
</event>
<event>
 7    1  0.2706925E-010  0.4778727E+02  0.7816164E-02  0.1312668E+00
        -11   -1    0    0    0    0  0.00000000000E+00  0.00000000000E+00  0.45593999997E+02  0.45594000000E+02  0.51100000000E-03 0.  1.
         11   -1    0    0    0    0 -0.00000000000E+00 -0.00000000000E+00 -0.45593999997E+02  0.45594000000E+02  0.51100000000E-03 0. -1.
    9900012    2    1    2    0    0  0.80644203480E+01 -0.16766945144E+02  0.39210430860E+02  0.47787271743E+02  0.20000003184E+02 0.  0.
         12    1    1    2    0    0 -0.80644203480E+01  0.16766945144E+02 -0.39210430860E+02  0.43400728257E+02  0.00000000000E+00 0. -1.
         11    1    3    3    0    0 -0.38653203667E+01 -0.19109431588E+01  0.63121014731E+01  0.76442809054E+01  0.51100000000E-03 0. -1.
        -11    1    3    3    0    0  0.11556387112E+02 -0.41517351780E+01  0.18247525000E+02  0.21994525614E+02  0.51100000000E-03 0.  1.
        -12    1    3    3    0    0  0.37335360249E+00 -0.10704266807E+02  0.14650804387E+02  0.18148465224E+02  0.00000000000E+00 0.  1.
</event>
<event>
 7    1  0.2706925E-010  0.4778727E+02  0.7816164E-02  0.1312668E+00
        -11   -1    0    0    0    0  0.00000000000E+00  0.00000000000E+00  0.45593999997E+02  0.45594000000E+02  0.51100000000E-03 0. -1.
         11   -1    0    0    0    0 -0.00000000000E+00 -0.00000000000E+00 -0.45593999997E+02  0.45594000000E+02  0.51100000000E-03 0.  1.
    9900012    2    1    2    0    0  0.55724460816E+01  0.38263417228E+02  0.19709945057E+02  0.47787272040E+02  0.20000004541E+02 0.  0.
         12    1    1    2    0    0 -0.55724460816E+01 -0.38263417228E+02 -0.19709945057E+02  0.43400727960E+02  0.00000000000E+00 0. -1.
         11    1    3    3    0    0 -0.45825116114E+01  0.34267823072E+01  0.54139228480E+01  0.78773606313E+01  0.51100000000E-03 0. -1.
        -11    1    3    3    0    0  0.68505568486E+01  0.20875254487E+02  0.12942019557E+02  0.25499063699E+02  0.51100000000E-03 0.  1.
        -12    1    3    3    0    0  0.33044008444E+01  0.13961380433E+02  0.13540026520E+01  0.14410847710E+02  0.00000000000E+00 0.  1.
</event>
<event>
 7    1  0.2706925E-010  0.4778728E+02  0.7816164E-02  0.1312668E+00
        -11   -1    0    0    0    0  0.00000000000E+00  0.00000000000E+00  0.45593999997E+02  0.45594000000E+02  0.51100000000E-03 0.  1.
         11   -1    0    0    0    0 -0.00000000000E+00 -0.00000000000E+00 -0.45593999997E+02  0.45594000000E+02  0.51100000000E-03 0. -1.
    9900012    2    1    2    0    0 -0.20544857811E+02  0.12541786736E+02  0.36114187228E+02  0.47787284382E+02  0.20000060811E+02 0.  0.
         12    1    1    2    0    0  0.20544857811E+02 -0.12541786736E+02 -0.36114187228E+02  0.43400715618E+02  0.00000000000E+00 0. -1.
         11    1    3    3    0    0  0.28940101640E+01  0.15358726595E+01  0.29621842200E+01  0.44168693970E+01  0.51100000000E-03 0. -1.
        -11    1    3    3    0    0 -0.17389042095E+02  0.82515972630E+01  0.16185898217E+02  0.25148577370E+02  0.51100000000E-03 0.  1.
        -12    1    3    3    0    0 -0.60498258794E+01  0.27543168136E+01  0.16966104791E+02  0.18221837615E+02  0.00000000000E+00 0.  1.
</event>
<event>
 7    1  0.2706925E-010  0.4778727E+02  0.7816164E-02  0.1312668E+00
        -11   -1    0    0    0    0  0.00000000000E+00  0.00000000000E+00  0.45593999997E+02  0.45594000000E+02  0.51100000000E-03 0.  1.
         11   -1    0    0    0    0 -0.00000000000E+00 -0.00000000000E+00 -0.45593999997E+02  0.45594000000E+02  0.51100000000E-03 0. -1.
    9900012    2    1    2    0    0 -0.20184727484E+02  0.62981237822E+01  0.37901634412E+02  0.47787268694E+02  0.19999989283E+02 0.  0.
         12    1    1    2    0    0  0.20184727484E+02 -0.62981237822E+01 -0.37901634412E+02  0.43400731306E+02  0.00000000000E+00 0. -1.
         11    1    3    3    0    0 -0.21434733707E+01  0.77756811713E+01  0.39879884060E+01  0.89977634752E+01  0.51100000000E-03 0. -1.
        -11    1    3    3    0    0 -0.48917681650E+01 -0.22963514990E+01  0.12914276236E+02  0.13999327017E+02  0.51100000000E-03 0.  1.
         12    1    3    3    0    0 -0.13149485948E+02  0.81879410997E+00  0.20999369770E+02  0.24790178201E+02  0.00000000000E+00 0. -1.
</event>
<event>
 7    1  0.2706925E-010  0.4778728E+02  0.7816164E-02  0.1312668E+00
        -11   -1    0    0    0    0  0.00000000000E+00  0.00000000000E+00  0.45593999997E+02  0.45594000000E+02  0.51100000000E-03 0.  1.
         11   -1    0    0    0    0 -0.00000000000E+00 -0.00000000000E+00 -0.45593999997E+02  0.45594000000E+02  0.51100000000E-03 0. -1.
    9900012    2    1    2    0    0  0.10345899457E+02 -0.30949166110E+02  0.28613526824E+02  0.47787280700E+02  0.20000044021E+02 0.  0.
         12    1    1    2    0    0 -0.10345899457E+02  0.30949166110E+02 -0.28613526824E+02  0.43400719300E+02  0.00000000000E+00 0. -1.
         11    1    3    3    0    0 -0.13992607541E+01  0.14177411075E+01  0.29500069122E+01  0.35595591790E+01  0.51100000000E-03 0. -1.
        -11    1    3    3    0    0  0.11076879617E+02 -0.24801551888E+02  0.24431326513E+02  0.36533600336E+02  0.51100000000E-03 0.  1.
        -12    1    3    3    0    0  0.66828059451E+00 -0.75653553301E+01  0.12321933985E+01  0.76941211841E+01  0.00000000000E+00 0.  1.
</event>
<event>
 7    1  0.2706925E-010  0.4778728E+02  0.7816164E-02  0.1312668E+00
        -11   -1    0    0    0    0  0.00000000000E+00  0.00000000000E+00  0.45593999997E+02  0.45594000000E+02  0.51100000000E-03 0.  1.
         11   -1    0    0    0    0 -0.00000000000E+00 -0.00000000000E+00 -0.45593999997E+02  0.45594000000E+02  0.51100000000E-03 0. -1.
    9900012    2    1    2    0    0 -0.27303673205E+02 -0.24208435751E+02  0.23496464928E+02  0.47787276549E+02  0.20000025097E+02 0.  0.
         12    1    1    2    0    0  0.27303673205E+02  0.24208435751E+02 -0.23496464928E+02  0.43400723451E+02  0.00000000000E+00 0. -1.
         11    1    3    3    0    0 -0.48261891728E+01 -0.10996806577E+02  0.14445803860E+02  0.18785715484E+02  0.51100000000E-03 0. -1.
        -11    1    3    3    0    0 -0.51702484266E+01  0.84658976086E+00  0.13295271651E+01  0.54051665802E+01  0.51100000000E-03 0.  1.
         12    1    3    3    0    0 -0.17307235606E+02 -0.14058218934E+02  0.77211339020E+01  0.23596394484E+02  0.00000000000E+00 0. -1.
</event>
<event>
 7    1  0.2706925E-010  0.4778727E+02  0.7816164E-02  0.1312668E+00
        -11   -1    0    0    0    0  0.00000000000E+00  0.00000000000E+00  0.45593999997E+02  0.45594000000E+02  0.51100000000E-03 0. -1.
         11   -1    0    0    0    0 -0.00000000000E+00 -0.00000000000E+00 -0.45593999997E+02  0.45594000000E+02  0.51100000000E-03 0.  1.
    9900012    2    1    2    0    0  0.28629238352E+02 -0.27884769766E+02 -0.16924236612E+02  0.47787268919E+02  0.19999990308E+02 0.  0.
         12    1    1    2    0    0 -0.28629238352E+02  0.27884769766E+02  0.16924236612E+02  0.43400731081E+02  0.00000000000E+00 0. -1.
         11    1    3    3    0    0  0.18192202629E+02 -0.54206598904E+01 -0.89582623472E+01  0.20990241892E+02  0.51100000000E-03 0. -1.
        -11    1    3    3    0    0  0.50465244165E+01 -0.10868042806E+02 -0.50786450620E+00  0.11993318545E+02  0.51100000000E-03 0.  1.
         12    1    3    3    0    0  0.53905113059E+01 -0.11596067070E+02 -0.74581097583E+01  0.14803708481E+02  0.00000000000E+00 0. -1.
</event>
<event>
 7    1  0.3815235E-010  0.4778727E+02  0.7816164E-02  0.1312668E+00
        -11   -1    0    0    0    0  0.00000000000E+00  0.00000000000E+00  0.45593999997E+02  0.45594000000E+02  0.51100000000E-03 0.  1.
         11   -1    0    0    0    0 -0.00000000000E+00 -0.00000000000E+00 -0.45593999997E+02  0.45594000000E+02  0.51100000000E-03 0. -1.
    9900012    2    1    2    0    0  0.27098219056E+02  0.28570873217E+02  0.18248702924E+02  0.47787269236E+02  0.19999991756E+02 0.  0.
         12    1    1    2    0    0 -0.27098219056E+02 -0.28570873217E+02 -0.18248702924E+02  0.43400730764E+02  0.00000000000E+00 0. -1.
         11    1    3    3    0    0  0.10094243184E+01  0.72628871266E+01 -0.12414783188E+01  0.74370515357E+01  0.51100000000E-03 0. -1.
        -11    1    3    3    0    0  0.20900958680E+02  0.10942332873E+02  0.11309433882E+02  0.26162721905E+02  0.51100000000E-03 0.  1.
        -12    1    3    3    0    0  0.51878360578E+01  0.10365653217E+02  0.81807473611E+01  0.14187495796E+02  0.00000000000E+00 0.  1.
</event>
<event>
 7    1  0.2706925E-010  0.4778727E+02  0.7816164E-02  0.1312668E+00
        -11   -1    0    0    0    0  0.00000000000E+00  0.00000000000E+00  0.45593999997E+02  0.45594000000E+02  0.51100000000E-03 0.  1.
         11   -1    0    0    0    0 -0.00000000000E+00 -0.00000000000E+00 -0.45593999997E+02  0.45594000000E+02  0.51100000000E-03 0. -1.
    9900012    2    1    2    0    0 -0.38548596242E+01 -0.29764714171E+02  0.31350040598E+02  0.47787271920E+02  0.20000003991E+02 0.  0.
         12    1    1    2    0    0  0.38548596242E+01  0.29764714171E+02 -0.31350040598E+02  0.43400728080E+02  0.00000000000E+00 0. -1.
         11    1    3    3    0    0 -0.72943550792E+01 -0.99686110505E+01  0.16310765994E+02  0.20460251950E+02  0.51100000000E-03 0. -1.
        -11    1    3    3    0    0  0.46284064518E+01 -0.15617080955E+02  0.16048663413E+02  0.22866459311E+02  0.51100000000E-03 0.  1.
         12    1    3    3    0    0 -0.11889109968E+01 -0.41790221657E+01 -0.10093888090E+01  0.44605606584E+01  0.00000000000E+00 0. -1.
</event>
<event>
 7    1  0.2706925E-010  0.4778727E+02  0.7816164E-02  0.1312668E+00
        -11   -1    0    0    0    0  0.00000000000E+00  0.00000000000E+00  0.45593999997E+02  0.45594000000E+02  0.51100000000E-03 0.  1.
         11   -1    0    0    0    0 -0.00000000000E+00 -0.00000000000E+00 -0.45593999997E+02  0.45594000000E+02  0.51100000000E-03 0. -1.
    9900012    2    1    2    0    0  0.29734169686E+02  0.28339443531E+02  0.14013509969E+02  0.47787269957E+02  0.19999995044E+02 0.  0.
         12    1    1    2    0    0 -0.29734169686E+02 -0.28339443531E+02 -0.14013509969E+02  0.43400730043E+02  0.00000000000E+00 0. -1.
         11    1    3    3    0    0  0.18843527696E+01  0.96900358602E+01 -0.16111518977E+01  0.10002169316E+02  0.51100000000E-03 0. -1.
        -11    1    3    3    0    0  0.26795295373E+02  0.17615846931E+02  0.12665175467E+02  0.34477711454E+02  0.51100000000E-03 0.  1.
         12    1    3    3    0    0  0.10545215437E+01  0.10335607403E+01  0.29594863994E+01  0.33073891877E+01  0.00000000000E+00 0. -1.
</event>
<event>
 7    1  0.2706925E-010  0.4778727E+02  0.7816164E-02  0.1312668E+00
        -11   -1    0    0    0    0  0.00000000000E+00  0.00000000000E+00  0.45593999997E+02  0.45594000000E+02  0.51100000000E-03 0.  1.
         11   -1    0    0    0    0 -0.00000000000E+00 -0.00000000000E+00 -0.45593999997E+02  0.45594000000E+02  0.51100000000E-03 0. -1.
    9900012    2    1    2    0    0  0.34818535579E+01  0.36447779187E+02  0.23303631887E+02  0.47787272230E+02  0.20000005404E+02 0.  0.
         12    1    1    2    0    0 -0.34818535579E+01 -0.36447779187E+02 -0.23303631887E+02  0.43400727770E+02  0.00000000000E+00 0. -1.
         11    1    3    3    0    0  0.21552650773E+01  0.33300817506E+02  0.14251658961E+02  0.36286352772E+02  0.51100000000E-03 0. -1.
        -11    1    3    3    0    0 -0.69708780956E+00  0.30214488450E+01  0.89487200217E+01  0.94707272596E+01  0.51100000000E-03 0.  1.
        -12    1    3    3    0    0  0.20236762901E+01  0.12551283651E+00  0.10325290448E+00  0.20301921982E+01  0.00000000000E+00 0.  1.
</event>
<event>
 7    1  0.2706925E-010  0.4778727E+02  0.7816164E-02  0.1312668E+00
        -11   -1    0    0    0    0  0.00000000000E+00  0.00000000000E+00  0.45593999997E+02  0.45594000000E+02  0.51100000000E-03 0.  1.
         11   -1    0    0    0    0 -0.00000000000E+00 -0.00000000000E+00 -0.45593999997E+02  0.45594000000E+02  0.51100000000E-03 0. -1.
    9900012    2    1    2    0    0 -0.27931257199E+02 -0.20583693513E+02  0.26072584146E+02  0.47787271764E+02  0.20000003282E+02 0.  0.
         12    1    1    2    0    0  0.27931257199E+02  0.20583693513E+02 -0.26072584146E+02  0.43400728236E+02  0.00000000000E+00 0. -1.
         11    1    3    3    0    0  0.72676154471E+00 -0.35467636121E+01 -0.59037317414E+00  0.36682768719E+01  0.51100000000E-03 0. -1.
        -11    1    3    3    0    0 -0.24624888329E+02 -0.18337734499E+02  0.21723138274E+02  0.37610535340E+02  0.51100000000E-03 0.  1.
        -12    1    3    3    0    0 -0.40331304142E+01  0.13008045985E+01  0.49398190457E+01  0.65084595524E+01  0.00000000000E+00 0.  1.
</event>
<event>
 7    1  0.2706925E-010  0.4778727E+02  0.7816164E-02  0.1312668E+00
        -11   -1    0    0    0    0  0.00000000000E+00  0.00000000000E+00  0.45593999997E+02  0.45594000000E+02  0.51100000000E-03 0. -1.
         11   -1    0    0    0    0 -0.00000000000E+00 -0.00000000000E+00 -0.45593999997E+02  0.45594000000E+02  0.51100000000E-03 0.  1.
    9900012    2    1    2    0    0  0.13913012078E+02 -0.12161018203E+02 -0.39270361156E+02  0.47787268046E+02  0.19999986331E+02 0.  0.
         12    1    1    2    0    0 -0.13913012078E+02  0.12161018203E+02  0.39270361156E+02  0.43400731954E+02  0.00000000000E+00 0. -1.
         11    1    3    3    0    0 -0.12377625745E+01 -0.11690703182E+02 -0.19711633397E+02  0.22951102120E+02  0.51100000000E-03 0. -1.
        -11    1    3    3    0    0  0.84314896635E+01 -0.80278765027E-01 -0.12545555143E+02  0.15115800234E+02  0.51100000000E-03 0.  1.
         12    1    3    3    0    0  0.67192849894E+01 -0.39003625610E+00 -0.70131726158E+01  0.97203656922E+01  0.00000000000E+00 0. -1.
</event>
<event>
 7    1  0.2706925E-010  0.4778727E+02  0.7816164E-02  0.1312668E+00
        -11   -1    0    0    0    0  0.00000000000E+00  0.00000000000E+00  0.45593999997E+02  0.45594000000E+02  0.51100000000E-03 0.  1.
         11   -1    0    0    0    0 -0.00000000000E+00 -0.00000000000E+00 -0.45593999997E+02  0.45594000000E+02  0.51100000000E-03 0. -1.
    9900012    2    1    2    0    0  0.41675561684E+02 -0.36172211047E+01  0.11562293879E+02  0.47787269938E+02  0.19999994954E+02 0.  0.
         12    1    1    2    0    0 -0.41675561684E+02  0.36172211047E+01 -0.11562293879E+02  0.43400730062E+02  0.00000000000E+00 0. -1.
         11    1    3    3    0    0 -0.66874048918E+00  0.19428778455E+01 -0.19729034589E+01  0.28485674441E+01  0.51100000000E-03 0. -1.
        -11    1    3    3    0    0  0.31454872562E+02 -0.35220161837E+01  0.11493391034E+02  0.33673604553E+02  0.51100000000E-03 0.  1.
         12    1    3    3    0    0  0.10889429612E+02 -0.20380827665E+01  0.20418063041E+01  0.11265097941E+02  0.00000000000E+00 0. -1.
</event>
<event>
 7    1  0.2706925E-010  0.4778727E+02  0.7816164E-02  0.1312668E+00
        -11   -1    0    0    0    0  0.00000000000E+00  0.00000000000E+00  0.45593999997E+02  0.45594000000E+02  0.51100000000E-03 0.  1.
         11   -1    0    0    0    0 -0.00000000000E+00 -0.00000000000E+00 -0.45593999997E+02  0.45594000000E+02  0.51100000000E-03 0. -1.
    9900012    2    1    2    0    0 -0.14819485152E+02  0.15796771800E+02  0.37609417834E+02  0.47787269024E+02  0.19999990789E+02 0.  0.
         12    1    1    2    0    0  0.14819485152E+02 -0.15796771800E+02 -0.37609417834E+02  0.43400730976E+02  0.00000000000E+00 0. -1.
         11    1    3    3    0    0 -0.72702657209E+01  0.89036232561E+01  0.26532695576E+02  0.28915656754E+02  0.51100000000E-03 0. -1.
        -11    1    3    3    0    0 -0.57377978983E+01 -0.19019227263E+01  0.28094523789E+01  0.66657826029E+01  0.51100000000E-03 0.  1.
         12    1    3    3    0    0 -0.18114215326E+01  0.87950712700E+01  0.82672698788E+01  0.12205829667E+02  0.00000000000E+00 0. -1.
</event>
<event>
 7    1  0.2706925E-010  0.4778727E+02  0.7816164E-02  0.1312668E+00
        -11   -1    0    0    0    0  0.00000000000E+00  0.00000000000E+00  0.45593999997E+02  0.45594000000E+02  0.51100000000E-03 0.  1.
         11   -1    0    0    0    0 -0.00000000000E+00 -0.00000000000E+00 -0.45593999997E+02  0.45594000000E+02  0.51100000000E-03 0. -1.
    9900012    2    1    2    0    0  0.80862367409E-01 -0.40371285388E+02  0.15930346215E+02  0.47787272435E+02  0.20000006340E+02 0.  0.
         12    1    1    2    0    0 -0.80862367409E-01  0.40371285388E+02 -0.15930346215E+02  0.43400727565E+02  0.00000000000E+00 0. -1.
         11    1    3    3    0    0  0.14684620530E+01 -0.77448865390E+01  0.11149883450E+02  0.13655019206E+02  0.51100000000E-03 0. -1.
        -11    1    3    3    0    0 -0.45381690852E+01 -0.10401532675E+02  0.15339646815E+01  0.11451633444E+02  0.51100000000E-03 0.  1.
         12    1    3    3    0    0  0.31505693996E+01 -0.22224866174E+02  0.32464980832E+01  0.22680619784E+02  0.00000000000E+00 0. -1.
</event>
<event>
 7    1  0.2706925E-010  0.4778727E+02  0.7816164E-02  0.1312668E+00
        -11   -1    0    0    0    0  0.00000000000E+00  0.00000000000E+00  0.45593999997E+02  0.45594000000E+02  0.51100000000E-03 0.  1.
         11   -1    0    0    0    0 -0.00000000000E+00 -0.00000000000E+00 -0.45593999997E+02  0.45594000000E+02  0.51100000000E-03 0. -1.
    9900012    2    1    2    0    0 -0.28694521936E+02  0.18752659269E+02  0.26619262603E+02  0.47787274657E+02  0.20000016470E+02 0.  0.
         12    1    1    2    0    0  0.28694521936E+02 -0.18752659269E+02 -0.26619262603E+02  0.43400725343E+02  0.00000000000E+00 0. -1.
         11    1    3    3    0    0 -0.51034330425E+01  0.87911820736E+01  0.53196535957E+00  0.10179042120E+02  0.51100000000E-03 0. -1.
        -11    1    3    3    0    0 -0.82965917502E+01  0.12347046723E+01  0.13752985690E+02  0.16109082716E+02  0.51100000000E-03 0.  1.
         12    1    3    3    0    0 -0.15294497143E+02  0.87267725235E+01  0.12334311553E+02  0.21499149821E+02  0.00000000000E+00 0. -1.
</event>
<event>
 7    1  0.2706925E-010  0.4778727E+02  0.7816164E-02  0.1312668E+00
        -11   -1    0    0    0    0  0.00000000000E+00  0.00000000000E+00  0.45593999997E+02  0.45594000000E+02  0.51100000000E-03 0. -1.
         11   -1    0    0    0    0 -0.00000000000E+00 -0.00000000000E+00 -0.45593999997E+02  0.45594000000E+02  0.51100000000E-03 0.  1.
    9900012    2    1    2    0    0  0.32634813158E+02  0.13513185395E+02 -0.25218758105E+02  0.47787274548E+02  0.20000015974E+02 0.  0.
         12    1    1    2    0    0 -0.32634813158E+02 -0.13513185395E+02  0.25218758105E+02  0.43400725452E+02  0.00000000000E+00 0. -1.
         11    1    3    3    0    0  0.17431651652E+02 -0.25963028011E+01 -0.66344891042E+01  0.18831349221E+02  0.51100000000E-03 0. -1.
        -11    1    3    3    0    0  0.12819661123E+02  0.14347517719E+02 -0.16180518699E+02  0.25139692950E+02  0.51100000000E-03 0.  1.
         12    1    3    3    0    0  0.23835003843E+01  0.17619704776E+01 -0.24037503013E+01  0.38162323772E+01  0.00000000000E+00 0. -1.
</event>
<event>
 7    1  0.2706925E-010  0.4778727E+02  0.7816164E-02  0.1312668E+00
        -11   -1    0    0    0    0  0.00000000000E+00  0.00000000000E+00  0.45593999997E+02  0.45594000000E+02  0.51100000000E-03 0.  1.
         11   -1    0    0    0    0 -0.00000000000E+00 -0.00000000000E+00 -0.45593999997E+02  0.45594000000E+02  0.51100000000E-03 0. -1.
    9900012    2    1    2    0    0  0.26173955297E+02 -0.25435053869E+02  0.23486276236E+02  0.47787273363E+02  0.20000010571E+02 0.  0.
         12    1    1    2    0    0 -0.26173955297E+02  0.25435053869E+02 -0.23486276236E+02  0.43400726637E+02  0.00000000000E+00 0. -1.
         11    1    3    3    0    0  0.13356932933E+01  0.14447907062E+01  0.13797170032E+01  0.24031471092E+01  0.51100000000E-03 0. -1.
        -11    1    3    3    0    0  0.74103901979E+01 -0.11317001464E+02  0.16535786217E+02  0.21364003162E+02  0.51100000000E-03 0.  1.
        -12    1    3    3    0    0  0.17427871805E+02 -0.15562843111E+02  0.55707730160E+01  0.24020123092E+02  0.00000000000E+00 0.  1.
</event>
<event>
 7    1  0.2706925E-010  0.4778727E+02  0.7816164E-02  0.1312668E+00
        -11   -1    0    0    0    0  0.00000000000E+00  0.00000000000E+00  0.45593999997E+02  0.45594000000E+02  0.51100000000E-03 0.  1.
         11   -1    0    0    0    0 -0.00000000000E+00 -0.00000000000E+00 -0.45593999997E+02  0.45594000000E+02  0.51100000000E-03 0. -1.
    9900012    2    1    2    0    0  0.10725067406E+02 -0.37451973999E+02  0.19129702749E+02  0.47787274723E+02  0.20000016774E+02 0.  0.
         12    1    1    2    0    0 -0.10725067406E+02  0.37451973999E+02 -0.19129702749E+02  0.43400725277E+02  0.00000000000E+00 0. -1.
         11    1    3    3    0    0  0.46312734442E+01 -0.26175181946E+01 -0.14961025320E+01  0.55261576399E+01  0.51100000000E-03 0. -1.
        -11    1    3    3    0    0  0.26975628958E+01 -0.16859849347E+02  0.15984625028E+02  0.23388877765E+02  0.51100000000E-03 0.  1.
         12    1    3    3    0    0  0.33962310662E+01 -0.17974606457E+02  0.46411802534E+01  0.18872239318E+02  0.00000000000E+00 0. -1.
</event>
<event>
 7    1  0.2706925E-010  0.4778728E+02  0.7816164E-02  0.1312668E+00
        -11   -1    0    0    0    0  0.00000000000E+00  0.00000000000E+00  0.45593999997E+02  0.45594000000E+02  0.51100000000E-03 0.  1.
         11   -1    0    0    0    0 -0.00000000000E+00 -0.00000000000E+00 -0.45593999997E+02  0.45594000000E+02  0.51100000000E-03 0. -1.
    9900012    2    1    2    0    0  0.21063365839E+02  0.25327264517E+02  0.28257501687E+02  0.47787284453E+02  0.20000061135E+02 0.  0.
         12    1    1    2    0    0 -0.21063365839E+02 -0.25327264517E+02 -0.28257501687E+02  0.43400715547E+02  0.00000000000E+00 0. -1.
         11    1    3    3    0    0  0.58844497422E+01  0.18171785019E+02  0.17434816696E+02  0.25861425967E+02  0.51100000000E-03 0. -1.
        -11    1    3    3    0    0  0.12487426430E+02  0.33260427523E+01  0.37703483133E+01  0.13461571450E+02  0.51100000000E-03 0.  1.
        -12    1    3    3    0    0  0.26914896664E+01  0.38294367456E+01  0.70523366785E+01  0.84642870368E+01  0.00000000000E+00 0.  1.
</event>
<event>
 7    1  0.2706925E-010  0.4778727E+02  0.7816164E-02  0.1312668E+00
        -11   -1    0    0    0    0  0.00000000000E+00  0.00000000000E+00  0.45593999997E+02  0.45594000000E+02  0.51100000000E-03 0.  1.
         11   -1    0    0    0    0 -0.00000000000E+00 -0.00000000000E+00 -0.45593999997E+02  0.45594000000E+02  0.51100000000E-03 0. -1.
    9900012    2    1    2    0    0 -0.14400707514E+01  0.27235273330E+02  0.33760763043E+02  0.47787273757E+02  0.20000012368E+02 0.  0.
         12    1    1    2    0    0  0.14400707514E+01 -0.27235273330E+02 -0.33760763043E+02  0.43400726243E+02  0.00000000000E+00 0. -1.
         11    1    3    3    0    0  0.45574419874E+01  0.81521784024E+01  0.20912903130E+02  0.22903663631E+02  0.51100000000E-03 0. -1.
        -11    1    3    3    0    0 -0.73862809730E+01  0.12186679822E+02  0.91638589762E+01  0.16942509357E+02  0.51100000000E-03 0.  1.
         12    1    3    3    0    0  0.13887682341E+01  0.68964151056E+01  0.36840009373E+01  0.79411007690E+01  0.00000000000E+00 0. -1.
</event>
<event>
 7    1  0.2706925E-010  0.4778727E+02  0.7816164E-02  0.1312668E+00
        -11   -1    0    0    0    0  0.00000000000E+00  0.00000000000E+00  0.45593999997E+02  0.45594000000E+02  0.51100000000E-03 0. -1.
         11   -1    0    0    0    0 -0.00000000000E+00 -0.00000000000E+00 -0.45593999997E+02  0.45594000000E+02  0.51100000000E-03 0.  1.
    9900012    2    1    2    0    0 -0.25655472421E+02  0.32475415752E+02  0.13067806524E+02  0.47787268891E+02  0.19999990181E+02 0.  0.
         12    1    1    2    0    0  0.25655472421E+02 -0.32475415752E+02 -0.13067806524E+02  0.43400731109E+02  0.00000000000E+00 0. -1.
         11    1    3    3    0    0 -0.15797433327E+02  0.69142535122E+01 -0.31946617297E+00  0.17247256601E+02  0.51100000000E-03 0. -1.
        -11    1    3    3    0    0 -0.31504709106E+01  0.10492964929E+02  0.53722092183E+01  0.12201983941E+02  0.51100000000E-03 0.  1.
         12    1    3    3    0    0 -0.67075681831E+01  0.15068197311E+02  0.80150634791E+01  0.18338028349E+02  0.00000000000E+00 0. -1.
</event>
<event>
 7    1  0.2706925E-010  0.4778728E+02  0.7816164E-02  0.1312668E+00
        -11   -1    0    0    0    0  0.00000000000E+00  0.00000000000E+00  0.45593999997E+02  0.45594000000E+02  0.51100000000E-03 0. -1.
         11   -1    0    0    0    0 -0.00000000000E+00 -0.00000000000E+00 -0.45593999997E+02  0.45594000000E+02  0.51100000000E-03 0.  1.
    9900012    2    1    2    0    0 -0.11511470649E+02 -0.32397308085E+02 -0.26486277486E+02  0.47787280851E+02  0.20000044710E+02 0.  0.
         12    1    1    2    0    0  0.11511470649E+02  0.32397308085E+02  0.26486277486E+02  0.43400719149E+02  0.00000000000E+00 0. -1.
         11    1    3    3    0    0  0.36249267298E+01 -0.75645155823E+01 -0.56014093712E+01  0.10086514611E+02  0.51100000000E-03 0. -1.
        -11    1    3    3    0    0 -0.13053210881E+02 -0.10687867463E+02 -0.90754417908E+01  0.19156734303E+02  0.51100000000E-03 0.  1.
        -12    1    3    3    0    0 -0.20831864979E+01 -0.14144925040E+02 -0.11809426324E+02  0.18544031937E+02  0.00000000000E+00 0.  1.
</event>
<event>
 7    1  0.2706925E-010  0.4778727E+02  0.7816164E-02  0.1312668E+00
        -11   -1    0    0    0    0  0.00000000000E+00  0.00000000000E+00  0.45593999997E+02  0.45594000000E+02  0.51100000000E-03 0.  1.
         11   -1    0    0    0    0 -0.00000000000E+00 -0.00000000000E+00 -0.45593999997E+02  0.45594000000E+02  0.51100000000E-03 0. -1.
    9900012    2    1    2    0    0 -0.38291089643E+02  0.20300196775E+02 -0.23060491460E+01  0.47787269616E+02  0.19999993489E+02 0.  0.
         12    1    1    2    0    0  0.38291089643E+02 -0.20300196775E+02  0.23060491460E+01  0.43400730384E+02  0.00000000000E+00 0. -1.
         11    1    3    3    0    0 -0.38406600441E+01  0.83267416105E+01  0.31990594422E+01  0.97118112109E+01  0.51100000000E-03 0. -1.
        -11    1    3    3    0    0 -0.30614094866E+02  0.75877839946E+01 -0.28397577787E+01  0.31667988489E+02  0.51100000000E-03 0.  1.
         12    1    3    3    0    0 -0.38363347331E+01  0.43856711698E+01 -0.26653508095E+01  0.64074699165E+01  0.00000000000E+00 0. -1.
</event>
<event>
 7    1  0.2706925E-010  0.4778727E+02  0.7816164E-02  0.1312668E+00
        -11   -1    0    0    0    0  0.00000000000E+00  0.00000000000E+00  0.45593999997E+02  0.45594000000E+02  0.51100000000E-03 0. -1.
         11   -1    0    0    0    0 -0.00000000000E+00 -0.00000000000E+00 -0.45593999997E+02  0.45594000000E+02  0.51100000000E-03 0.  1.
    9900012    2    1    2    0    0 -0.13776133239E+02 -0.18818488059E+02 -0.36601997056E+02  0.47787268113E+02  0.19999986632E+02 0.  0.
         12    1    1    2    0    0  0.13776133239E+02  0.18818488059E+02  0.36601997056E+02  0.43400731887E+02  0.00000000000E+00 0. -1.
         11    1    3    3    0    0  0.22308077678E+01 -0.51796311776E+01 -0.71764599406E+01  0.91272482147E+01  0.51100000000E-03 0.  1.
        -11    1    3    3    0    0 -0.12721755976E+02 -0.11088321936E+02 -0.11904558829E+02  0.20652178569E+02  0.51100000000E-03 0. -1.
        -12    1    3    3    0    0 -0.32851850307E+01 -0.25505349452E+01 -0.17520978286E+02  0.18007841328E+02  0.00000000000E+00 0.  1.
</event>
<event>
 7    1  0.2706925E-010  0.4778728E+02  0.7816164E-02  0.1312668E+00
        -11   -1    0    0    0    0  0.00000000000E+00  0.00000000000E+00  0.45593999997E+02  0.45594000000E+02  0.51100000000E-03 0.  1.
         11   -1    0    0    0    0 -0.00000000000E+00 -0.00000000000E+00 -0.45593999997E+02  0.45594000000E+02  0.51100000000E-03 0. -1.
    9900012    2    1    2    0    0 -0.15690087156E+00  0.21894329256E+02  0.37473142194E+02  0.47787278148E+02  0.20000032386E+02 0.  0.
         12    1    1    2    0    0  0.15690087156E+00 -0.21894329256E+02 -0.37473142194E+02  0.43400721852E+02  0.00000000000E+00 0. -1.
         11    1    3    3    0    0  0.16454217105E+01 -0.25582943325E+01  0.12117448234E+01  0.32742339983E+01  0.51100000000E-03 0. -1.
        -11    1    3    3    0    0 -0.13644938678E+01  0.11321000810E+02  0.23864642264E+02  0.26448970746E+02  0.51100000000E-03 0.  1.
         12    1    3    3    0    0 -0.43782871427E+00  0.13131622778E+02  0.12396755106E+02  0.18064073404E+02  0.00000000000E+00 0. -1.
</event>
<event>
 7    1  0.2706925E-010  0.4778727E+02  0.7816164E-02  0.1312668E+00
        -11   -1    0    0    0    0  0.00000000000E+00  0.00000000000E+00  0.45593999997E+02  0.45594000000E+02  0.51100000000E-03 0.  1.
         11   -1    0    0    0    0 -0.00000000000E+00 -0.00000000000E+00 -0.45593999997E+02  0.45594000000E+02  0.51100000000E-03 0. -1.
    9900012    2    1    2    0    0 -0.22374168698E+02 -0.60820970680E+01  0.36688252708E+02  0.47787271706E+02  0.20000003015E+02 0.  0.
         12    1    1    2    0    0  0.22374168698E+02  0.60820970680E+01 -0.36688252708E+02  0.43400728294E+02  0.00000000000E+00 0. -1.
         11    1    3    3    0    0 -0.10207780209E+02 -0.96160819230E+01  0.26003513340E+02  0.29544043641E+02  0.51100000000E-03 0. -1.
        -11    1    3    3    0    0 -0.50885691858E+01  0.43944556754E+01  0.83932011772E+01  0.10754097047E+02  0.51100000000E-03 0.  1.
         12    1    3    3    0    0 -0.70778193030E+01 -0.86047082039E+00  0.22915381913E+01  0.74891310177E+01  0.00000000000E+00 0. -1.
</event>
<event>
 7    1  0.2706925E-010  0.4778727E+02  0.7816164E-02  0.1312668E+00
        -11   -1    0    0    0    0  0.00000000000E+00  0.00000000000E+00  0.45593999997E+02  0.45594000000E+02  0.51100000000E-03 0. -1.
         11   -1    0    0    0    0 -0.00000000000E+00 -0.00000000000E+00 -0.45593999997E+02  0.45594000000E+02  0.51100000000E-03 0.  1.
    9900012    2    1    2    0    0 -0.14577903527E+02  0.39106495128E+02 -0.11907561463E+02  0.47787271291E+02  0.20000001126E+02 0.  0.
         12    1    1    2    0    0  0.14577903527E+02 -0.39106495128E+02  0.11907561463E+02  0.43400728709E+02  0.00000000000E+00 0. -1.
         11    1    3    3    0    0  0.65644915313E+00  0.10022752476E+02  0.29756870601E+01  0.10475743717E+02  0.51100000000E-03 0. -1.
        -11    1    3    3    0    0 -0.11972652344E+02  0.28225633556E+02 -0.12185716988E+02  0.32992764246E+02  0.51100000000E-03 0.  1.
         12    1    3    3    0    0 -0.32617003361E+01  0.85810909522E+00 -0.26975315349E+01  0.43187633281E+01  0.00000000000E+00 0. -1.
</event>
<event>
 7    1  0.2706925E-010  0.4778727E+02  0.7816164E-02  0.1312668E+00
        -11   -1    0    0    0    0  0.00000000000E+00  0.00000000000E+00  0.45593999997E+02  0.45594000000E+02  0.51100000000E-03 0.  1.
         11   -1    0    0    0    0 -0.00000000000E+00 -0.00000000000E+00 -0.45593999997E+02  0.45594000000E+02  0.51100000000E-03 0. -1.
    9900012    2    1    2    0    0  0.24502964026E+02 -0.35752213207E+02 -0.22376842348E+01  0.47787271596E+02  0.20000002515E+02 0.  0.
         12    1    1    2    0    0 -0.24502964026E+02  0.35752213207E+02  0.22376842348E+01  0.43400728404E+02  0.00000000000E+00 0. -1.
         11    1    3    3    0    0  0.62609668185E+01  0.24183269446E-01  0.10860539787E+01  0.63545105114E+01  0.51100000000E-03 0. -1.
        -11    1    3    3    0    0  0.11377267934E+02 -0.20709889364E+02 -0.66458562984E+01  0.24546061788E+02  0.51100000000E-03 0.  1.
         12    1    3    3    0    0  0.68647292735E+01 -0.15066507112E+02  0.33221180848E+01  0.16886699296E+02  0.00000000000E+00 0. -1.
</event>
<event>
 7    1  0.2706925E-010  0.4778726E+02  0.7816164E-02  0.1312668E+00
        -11   -1    0    0    0    0  0.00000000000E+00  0.00000000000E+00  0.45593999997E+02  0.45594000000E+02  0.51100000000E-03 0. -1.
         11   -1    0    0    0    0 -0.00000000000E+00 -0.00000000000E+00 -0.45593999997E+02  0.45594000000E+02  0.51100000000E-03 0.  1.
    9900012    2    1    2    0    0 -0.92085661438E-01 -0.14591213190E+02 -0.40874351247E+02  0.47787256089E+02  0.19999931813E+02 0.  0.
         12    1    1    2    0    0  0.92085661438E-01  0.14591213190E+02  0.40874351247E+02  0.43400743911E+02  0.00000000000E+00 0. -1.
         11    1    3    3    0    0 -0.11917234247E+00 -0.13208188281E+02 -0.33774644738E+02  0.36265645826E+02  0.51100000000E-03 0.  1.
        -11    1    3    3    0    0  0.90751501714E+00  0.35839948792E+01 -0.15136622135E+01  0.39949688807E+01  0.51100000000E-03 0. -1.
         12    1    3    3    0    0 -0.88042833610E+00 -0.49670197878E+01 -0.55860442953E+01  0.75266413822E+01  0.00000000000E+00 0. -1.
</event>
<event>
 7    1  0.2706925E-010  0.4778727E+02  0.7816164E-02  0.1312668E+00
        -11   -1    0    0    0    0  0.00000000000E+00  0.00000000000E+00  0.45593999997E+02  0.45594000000E+02  0.51100000000E-03 0. -1.
         11   -1    0    0    0    0 -0.00000000000E+00 -0.00000000000E+00 -0.45593999997E+02  0.45594000000E+02  0.51100000000E-03 0.  1.
    9900012    2    1    2    0    0  0.23501806130E+02  0.36244906709E+02  0.41946378722E+01  0.47787272580E+02  0.20000007001E+02 0.  0.
         12    1    1    2    0    0 -0.23501806130E+02 -0.36244906709E+02 -0.41946378722E+01  0.43400727420E+02  0.00000000000E+00 0. -1.
         11    1    3    3    0    0  0.28951584421E+01  0.33302553595E-01  0.52854676074E+01  0.60265429190E+01  0.51100000000E-03 0. -1.
        -11    1    3    3    0    0  0.11119128085E+02  0.18709726320E+02  0.67250461087E+00  0.21774781998E+02  0.51100000000E-03 0.  1.
         12    1    3    3    0    0  0.94875196030E+01  0.17501877835E+02 -0.17633343460E+01  0.19985947663E+02  0.00000000000E+00 0. -1.
</event>
<event>
 7    1  0.2706925E-010  0.4778727E+02  0.7816164E-02  0.1312668E+00
        -11   -1    0    0    0    0  0.00000000000E+00  0.00000000000E+00  0.45593999997E+02  0.45594000000E+02  0.51100000000E-03 0.  1.
         11   -1    0    0    0    0 -0.00000000000E+00 -0.00000000000E+00 -0.45593999997E+02  0.45594000000E+02  0.51100000000E-03 0. -1.
    9900012    2    1    2    0    0 -0.29916425823E+02  0.28930225146E+02  0.12315564184E+02  0.47787267492E+02  0.19999983805E+02 0.  0.
         12    1    1    2    0    0  0.29916425823E+02 -0.28930225146E+02 -0.12315564184E+02  0.43400732508E+02  0.00000000000E+00 0. -1.
         11    1    3    3    0    0 -0.91274433098E+01 -0.12156234247E+01  0.70425612408E+00  0.92349303535E+01  0.51100000000E-03 0. -1.
        -11    1    3    3    0    0 -0.18217834336E+02  0.25543664079E+02  0.88381753532E+01  0.32595729879E+02  0.51100000000E-03 0.  1.
         12    1    3    3    0    0 -0.25711481770E+01  0.46021844918E+01  0.27731327069E+01  0.59566072604E+01  0.00000000000E+00 0. -1.
</event>
<event>
 7    1  0.2706925E-010  0.4778727E+02  0.7816164E-02  0.1312668E+00
        -11   -1    0    0    0    0  0.00000000000E+00  0.00000000000E+00  0.45593999997E+02  0.45594000000E+02  0.51100000000E-03 0. -1.
         11   -1    0    0    0    0 -0.00000000000E+00 -0.00000000000E+00 -0.45593999997E+02  0.45594000000E+02  0.51100000000E-03 0.  1.
    9900012    2    1    2    0    0 -0.34095762024E+02 -0.16781848751E+02 -0.20963576774E+02  0.47787274353E+02  0.20000015087E+02 0.  0.
         12    1    1    2    0    0  0.34095762024E+02  0.16781848751E+02  0.20963576774E+02  0.43400725647E+02  0.00000000000E+00 0. -1.
         11    1    3    3    0    0 -0.21100828165E+02 -0.13753260452E+02 -0.63558041354E+01  0.25976785189E+02  0.51100000000E-03 0. -1.
        -11    1    3    3    0    0 -0.11979599841E+02  0.62593498225E+00 -0.13005221692E+02  0.17692891185E+02  0.51100000000E-03 0.  1.
        -12    1    3    3    0    0 -0.10153340177E+01 -0.36545232814E+01 -0.16025509465E+01  0.41175979791E+01  0.00000000000E+00 0.  1.
</event>
<event>
 7    1  0.2706925E-010  0.4778727E+02  0.7816164E-02  0.1312668E+00
        -11   -1    0    0    0    0  0.00000000000E+00  0.00000000000E+00  0.45593999997E+02  0.45594000000E+02  0.51100000000E-03 0.  1.
         11   -1    0    0    0    0 -0.00000000000E+00 -0.00000000000E+00 -0.45593999997E+02  0.45594000000E+02  0.51100000000E-03 0. -1.
    9900012    2    1    2    0    0  0.17095669199E+02  0.33327674086E+02  0.21923220377E+02  0.47787270087E+02  0.19999995633E+02 0.  0.
         12    1    1    2    0    0 -0.17095669199E+02 -0.33327674086E+02 -0.21923220377E+02  0.43400729913E+02  0.00000000000E+00 0. -1.
         11    1    3    3    0    0  0.21830470786E+01  0.17276685212E+01  0.18196290822E+01  0.33258958679E+01  0.51100000000E-03 0. -1.
        -11    1    3    3    0    0  0.11886063383E+02  0.10690202294E+02  0.16598423627E+02  0.23044882187E+02  0.51100000000E-03 0.  1.
        -12    1    3    3    0    0  0.30265587374E+01  0.20909803270E+02  0.35051676676E+01  0.21416492032E+02  0.00000000000E+00 0.  1.
</event>
<event>
 7    1  0.2706925E-010  0.4778727E+02  0.7816164E-02  0.1312668E+00
        -11   -1    0    0    0    0  0.00000000000E+00  0.00000000000E+00  0.45593999997E+02  0.45594000000E+02  0.51100000000E-03 0.  1.
         11   -1    0    0    0    0 -0.00000000000E+00 -0.00000000000E+00 -0.45593999997E+02  0.45594000000E+02  0.51100000000E-03 0. -1.
    9900012    2    1    2    0    0  0.16182339116E+02  0.38508256917E+02 -0.11784290827E+02  0.47787268896E+02  0.19999990204E+02 0.  0.
         12    1    1    2    0    0 -0.16182339116E+02 -0.38508256917E+02  0.11784290827E+02  0.43400731104E+02  0.00000000000E+00 0. -1.
         11    1    3    3    0    0  0.42366767323E+01  0.44529650881E+01 -0.85629302193E+01  0.10540498186E+02  0.51100000000E-03 0. -1.
        -11    1    3    3    0    0  0.10131465010E+02  0.21917370711E+02 -0.55000855159E+01  0.24764261811E+02  0.51100000000E-03 0.  1.
         12    1    3    3    0    0  0.18141973741E+01  0.12137921118E+02  0.22787249084E+01  0.12482508898E+02  0.00000000000E+00 0. -1.
</event>
<event>
 7    1  0.2706925E-010  0.4778727E+02  0.7816164E-02  0.1312668E+00
        -11   -1    0    0    0    0  0.00000000000E+00  0.00000000000E+00  0.45593999997E+02  0.45594000000E+02  0.51100000000E-03 0.  1.
         11   -1    0    0    0    0 -0.00000000000E+00 -0.00000000000E+00 -0.45593999997E+02  0.45594000000E+02  0.51100000000E-03 0. -1.
    9900012    2    1    2    0    0  0.27579843872E+02 -0.33279778757E+02 -0.39283317839E+01  0.47787271288E+02  0.20000001110E+02 0.  0.
         12    1    1    2    0    0 -0.27579843872E+02  0.33279778757E+02  0.39283317839E+01  0.43400728712E+02  0.00000000000E+00 0. -1.
         11    1    3    3    0    0  0.32831745599E+00  0.16514308197E+01  0.14702927140E+01  0.22353471833E+01  0.51100000000E-03 0. -1.
        -11    1    3    3    0    0  0.20151917851E+02 -0.22664677826E+02  0.15862987529E+00  0.30328412054E+02  0.51100000000E-03 0.  1.
         12    1    3    3    0    0  0.70996085650E+01 -0.12266531751E+02 -0.55572543732E+01  0.15223512050E+02  0.00000000000E+00 0. -1.
</event>
<event>
 7    1  0.2706925E-010  0.4778728E+02  0.7816164E-02  0.1312668E+00
        -11   -1    0    0    0    0  0.00000000000E+00  0.00000000000E+00  0.45593999997E+02  0.45594000000E+02  0.51100000000E-03 0.  1.
         11   -1    0    0    0    0 -0.00000000000E+00 -0.00000000000E+00 -0.45593999997E+02  0.45594000000E+02  0.51100000000E-03 0. -1.
    9900012    2    1    2    0    0  0.57961456945E+01  0.38431398572E+02  0.19314632892E+02  0.47787277139E+02  0.20000027785E+02 0.  0.
         12    1    1    2    0    0 -0.57961456945E+01 -0.38431398572E+02 -0.19314632892E+02  0.43400722861E+02  0.00000000000E+00 0. -1.
         11    1    3    3    0    0 -0.18404980767E+01  0.37673028615E+01  0.97361538281E+00  0.43044083444E+01  0.51100000000E-03 0. -1.
        -11    1    3    3    0    0 -0.25577930386E+01  0.86520321366E+01 -0.15933924247E+01  0.91618155953E+01  0.51100000000E-03 0.  1.
        -12    1    3    3    0    0  0.10194436810E+02  0.26012063574E+02  0.19934409934E+02  0.34321053199E+02  0.00000000000E+00 0.  1.
</event>
<event>
 7    1  0.2706925E-010  0.4778727E+02  0.7816164E-02  0.1312668E+00
        -11   -1    0    0    0    0  0.00000000000E+00  0.00000000000E+00  0.45593999997E+02  0.45594000000E+02  0.51100000000E-03 0.  1.
         11   -1    0    0    0    0 -0.00000000000E+00 -0.00000000000E+00 -0.45593999997E+02  0.45594000000E+02  0.51100000000E-03 0. -1.
    9900012    2    1    2    0    0  0.39378534897E+02  0.94371142974E+01  0.15617140371E+02  0.47787271777E+02  0.20000003341E+02 0.  0.
         12    1    1    2    0    0 -0.39378534897E+02 -0.94371142974E+01 -0.15617140371E+02  0.43400728223E+02  0.00000000000E+00 0. -1.
         11    1    3    3    0    0  0.68702889611E+01  0.88568640523E+01  0.90874148710E+00  0.11245920265E+02  0.51100000000E-03 0. -1.
        -11    1    3    3    0    0  0.11597512444E+02  0.23445685964E+01  0.87833665736E+01  0.14735902599E+02  0.51100000000E-03 0.  1.
         12    1    3    3    0    0  0.20910733492E+02 -0.17643183512E+01  0.59250323104E+01  0.21805448913E+02  0.00000000000E+00 0. -1.
</event>
<event>
 7    1  0.2706925E-010  0.4778726E+02  0.7816164E-02  0.1312668E+00
        -11   -1    0    0    0    0  0.00000000000E+00  0.00000000000E+00  0.45593999997E+02  0.45594000000E+02  0.51100000000E-03 0.  1.
         11   -1    0    0    0    0 -0.00000000000E+00 -0.00000000000E+00 -0.45593999997E+02  0.45594000000E+02  0.51100000000E-03 0. -1.
    9900012    2    1    2    0    0  0.12147373929E+02 -0.26114244060E+02  0.32467083469E+02  0.47787263311E+02  0.19999964740E+02 0.  0.
         12    1    1    2    0    0 -0.12147373929E+02  0.26114244060E+02 -0.32467083469E+02  0.43400736689E+02  0.00000000000E+00 0. -1.
         11    1    3    3    0    0  0.98260605014E+01 -0.26257918112E+01  0.11925163019E+02  0.15673409358E+02  0.51100000000E-03 0. -1.
        -11    1    3    3    0    0  0.25481802963E+01 -0.63292050485E+01  0.95416875267E+01  0.11730126192E+02  0.51100000000E-03 0.  1.
         12    1    3    3    0    0 -0.22686686881E+00 -0.17159247200E+02  0.11000232922E+02  0.20383727760E+02  0.00000000000E+00 0. -1.
</event>
<event>
 7    1  0.2706925E-010  0.4778728E+02  0.7816164E-02  0.1312668E+00
        -11   -1    0    0    0    0  0.00000000000E+00  0.00000000000E+00  0.45593999997E+02  0.45594000000E+02  0.51100000000E-03 0. -1.
         11   -1    0    0    0    0 -0.00000000000E+00 -0.00000000000E+00 -0.45593999997E+02  0.45594000000E+02  0.51100000000E-03 0.  1.
    9900012    2    1    2    0    0 -0.10044703500E+02  0.69897675798E+01 -0.41639761110E+02  0.47787278525E+02  0.20000034108E+02 0.  0.
         12    1    1    2    0    0  0.10044703500E+02 -0.69897675798E+01  0.41639761110E+02  0.43400721475E+02  0.00000000000E+00 0. -1.
         11    1    3    3    0    0 -0.38124572098E+01 -0.54397418913E-01 -0.30669340612E+01  0.48932477816E+01  0.51100000000E-03 0. -1.
        -11    1    3    3    0    0  0.35874500877E+01  0.81236663500E+01 -0.17864126539E+02  0.19949706022E+02  0.51100000000E-03 0.  1.
        -12    1    3    3    0    0 -0.98196963778E+01 -0.10795013513E+01 -0.20708700510E+02  0.22944324722E+02  0.00000000000E+00 0.  1.
</event>
<event>
 7    1  0.2706925E-010  0.4778727E+02  0.7816164E-02  0.1312668E+00
        -11   -1    0    0    0    0  0.00000000000E+00  0.00000000000E+00  0.45593999997E+02  0.45594000000E+02  0.51100000000E-03 0. -1.
         11   -1    0    0    0    0 -0.00000000000E+00 -0.00000000000E+00 -0.45593999997E+02  0.45594000000E+02  0.51100000000E-03 0.  1.
    9900012    2    1    2    0    0  0.39525699028E+02 -0.17758705068E+02  0.24435302619E+01  0.47787270404E+02  0.19999997079E+02 0.  0.
         12    1    1    2    0    0 -0.39525699028E+02  0.17758705068E+02 -0.24435302619E+01  0.43400729596E+02  0.00000000000E+00 0. -1.
         11    1    3    3    0    0  0.19537997724E+02 -0.15637923229E+02  0.53798995166E+01  0.25597291205E+02  0.51100000000E-03 0. -1.
        -11    1    3    3    0    0  0.10343335562E+02 -0.48841915623E+01  0.84231633719E+00  0.11469499328E+02  0.51100000000E-03 0.  1.
         12    1    3    3    0    0  0.96443657416E+01  0.27634097225E+01 -0.37786855919E+01  0.10720479871E+02  0.00000000000E+00 0. -1.
</event>
<event>
 7    1  0.2706925E-010  0.4778727E+02  0.7816164E-02  0.1312668E+00
        -11   -1    0    0    0    0  0.00000000000E+00  0.00000000000E+00  0.45593999997E+02  0.45594000000E+02  0.51100000000E-03 0.  1.
         11   -1    0    0    0    0 -0.00000000000E+00 -0.00000000000E+00 -0.45593999997E+02  0.45594000000E+02  0.51100000000E-03 0. -1.
    9900012    2    1    2    0    0 -0.22744420981E+02  0.14315707169E+02  0.34078956611E+02  0.47787269116E+02  0.19999991209E+02 0.  0.
         12    1    1    2    0    0  0.22744420981E+02 -0.14315707169E+02 -0.34078956611E+02  0.43400730884E+02  0.00000000000E+00 0. -1.
         11    1    3    3    0    0 -0.15512123418E+02  0.45438522869E+01  0.15619238220E+02  0.22477392406E+02  0.51100000000E-03 0. -1.
        -11    1    3    3    0    0 -0.10576358233E+02  0.70128005661E+01  0.11588085793E+02  0.17184948585E+02  0.51100000000E-03 0.  1.
         12    1    3    3    0    0  0.33440606698E+01  0.27590543163E+01  0.68716325983E+01  0.81249281258E+01  0.00000000000E+00 0. -1.
</event>
<event>
 7    1  0.2706925E-010  0.4778727E+02  0.7816164E-02  0.1312668E+00
        -11   -1    0    0    0    0  0.00000000000E+00  0.00000000000E+00  0.45593999997E+02  0.45594000000E+02  0.51100000000E-03 0.  1.
         11   -1    0    0    0    0 -0.00000000000E+00 -0.00000000000E+00 -0.45593999997E+02  0.45594000000E+02  0.51100000000E-03 0. -1.
    9900012    2    1    2    0    0  0.13863389089E+02 -0.40723569229E+02  0.57463474056E+01  0.47787272399E+02  0.20000006176E+02 0.  0.
         12    1    1    2    0    0 -0.13863389089E+02  0.40723569229E+02 -0.57463474056E+01  0.43400727601E+02  0.00000000000E+00 0. -1.
         11    1    3    3    0    0 -0.12236822959E+01 -0.30566435209E+01 -0.24654680992E+01  0.41132713483E+01  0.51100000000E-03 0. -1.
        -11    1    3    3    0    0  0.70354260312E+01 -0.30645788669E+02  0.96598154885E+01  0.32893367388E+02  0.51100000000E-03 0.  1.
        -12    1    3    3    0    0  0.80516453533E+01 -0.70211370392E+01 -0.14479999836E+01  0.10780633663E+02  0.00000000000E+00 0.  1.
</event>
<event>
 7    1  0.2706925E-010  0.4778726E+02  0.7816164E-02  0.1312668E+00
        -11   -1    0    0    0    0  0.00000000000E+00  0.00000000000E+00  0.45593999997E+02  0.45594000000E+02  0.51100000000E-03 0.  1.
         11   -1    0    0    0    0 -0.00000000000E+00 -0.00000000000E+00 -0.45593999997E+02  0.45594000000E+02  0.51100000000E-03 0. -1.
    9900012    2    1    2    0    0  0.63471771878E+01  0.41933298007E+02 -0.92160548195E+01  0.47787264909E+02  0.19999972025E+02 0.  0.
         12    1    1    2    0    0 -0.63471771878E+01 -0.41933298007E+02  0.92160548195E+01  0.43400735091E+02  0.00000000000E+00 0. -1.
         11    1    3    3    0    0 -0.47588681590E+01  0.11879574165E+02 -0.66165520838E+01  0.14406591208E+02  0.51100000000E-03 0. -1.
        -11    1    3    3    0    0 -0.15603056814E+01  0.41923620237E+01 -0.79934937022E-01  0.44740186647E+01  0.51100000000E-03 0.  1.
         12    1    3    3    0    0  0.12666351028E+02  0.25861361818E+02 -0.25195677987E+01  0.28906655036E+02  0.00000000000E+00 0. -1.
</event>
<event>
 7    1  0.2706925E-010  0.4778727E+02  0.7816164E-02  0.1312668E+00
        -11   -1    0    0    0    0  0.00000000000E+00  0.00000000000E+00  0.45593999997E+02  0.45594000000E+02  0.51100000000E-03 0.  1.
         11   -1    0    0    0    0 -0.00000000000E+00 -0.00000000000E+00 -0.45593999997E+02  0.45594000000E+02  0.51100000000E-03 0. -1.
    9900012    2    1    2    0    0  0.34133708027E+02 -0.22416805347E+02  0.14696936251E+02  0.47787272808E+02  0.20000008040E+02 0.  0.
         12    1    1    2    0    0 -0.34133708027E+02  0.22416805347E+02 -0.14696936251E+02  0.43400727192E+02  0.00000000000E+00 0. -1.
         11    1    3    3    0    0  0.12542315644E+02 -0.19658412110E+01 -0.21173891035E+01  0.12870802239E+02  0.51100000000E-03 0. -1.
        -11    1    3    3    0    0  0.10719665132E+02 -0.96109497609E+01  0.12239693499E+02  0.18896869398E+02  0.51100000000E-03 0.  1.
         12    1    3    3    0    0  0.10871727251E+02 -0.10840014375E+02  0.45746318561E+01  0.16019601171E+02  0.00000000000E+00 0. -1.
</event>
<event>
 7    1  0.2706925E-010  0.4778727E+02  0.7816164E-02  0.1312668E+00
        -11   -1    0    0    0    0  0.00000000000E+00  0.00000000000E+00  0.45593999997E+02  0.45594000000E+02  0.51100000000E-03 0.  1.
         11   -1    0    0    0    0 -0.00000000000E+00 -0.00000000000E+00 -0.45593999997E+02  0.45594000000E+02  0.51100000000E-03 0. -1.
    9900012    2    1    2    0    0  0.15266612968E+01 -0.20033048884E+02  0.38470376235E+02  0.47787267403E+02  0.19999983396E+02 0.  0.
         12    1    1    2    0    0 -0.15266612968E+01  0.20033048884E+02 -0.38470376235E+02  0.43400732597E+02  0.00000000000E+00 0. -1.
         11    1    3    3    0    0 -0.12442639490E+01 -0.17305761288E+02  0.13174635664E+02  0.21785513344E+02  0.51100000000E-03 0. -1.
        -11    1    3    3    0    0  0.39357087864E+01 -0.25882174759E+01  0.17705057896E+02  0.18320964732E+02  0.51100000000E-03 0.  1.
         12    1    3    3    0    0 -0.11647835406E+01 -0.13907011968E+00  0.75906826760E+01  0.76807893268E+01  0.00000000000E+00 0. -1.
</event>
<event>
 7    1  0.2706925E-010  0.4778726E+02  0.7816164E-02  0.1312668E+00
        -11   -1    0    0    0    0  0.00000000000E+00  0.00000000000E+00  0.45593999997E+02  0.45594000000E+02  0.51100000000E-03 0.  1.
         11   -1    0    0    0    0 -0.00000000000E+00 -0.00000000000E+00 -0.45593999997E+02  0.45594000000E+02  0.51100000000E-03 0. -1.
    9900012    2    1    2    0    0  0.18535575406E+02  0.20044457004E+02  0.33738347095E+02  0.47787264097E+02  0.19999968323E+02 0.  0.
         12    1    1    2    0    0 -0.18535575406E+02 -0.20044457004E+02 -0.33738347095E+02  0.43400735903E+02  0.00000000000E+00 0. -1.
         11    1    3    3    0    0  0.75258293145E+01 -0.14134778926E+01  0.40560702267E+01  0.86653177997E+01  0.51100000000E-03 0. -1.
        -11    1    3    3    0    0  0.65081953118E+01  0.19531669644E+02  0.23824828137E+02  0.31487539778E+02  0.51100000000E-03 0.  1.
        -12    1    3    3    0    0  0.45015507798E+01  0.19262652527E+01  0.58574487317E+01  0.76344065187E+01  0.00000000000E+00 0.  1.
</event>
<event>
 7    1  0.2706925E-010  0.4778727E+02  0.7816164E-02  0.1312668E+00
        -11   -1    0    0    0    0  0.00000000000E+00  0.00000000000E+00  0.45593999997E+02  0.45594000000E+02  0.51100000000E-03 0.  1.
         11   -1    0    0    0    0 -0.00000000000E+00 -0.00000000000E+00 -0.45593999997E+02  0.45594000000E+02  0.51100000000E-03 0. -1.
    9900012    2    1    2    0    0 -0.12201868948E+02 -0.30331151469E+02  0.28543984395E+02  0.47787269587E+02  0.19999993355E+02 0.  0.
         12    1    1    2    0    0  0.12201868948E+02  0.30331151469E+02 -0.28543984395E+02  0.43400730413E+02  0.00000000000E+00 0. -1.
         11    1    3    3    0    0 -0.39049289678E+01 -0.44002053937E+00 -0.43824866410E+00  0.39540043591E+01  0.51100000000E-03 0. -1.
        -11    1    3    3    0    0 -0.97677231182E+01 -0.29413570642E+02  0.25921575644E+02  0.40404141334E+02  0.51100000000E-03 0.  1.
        -12    1    3    3    0    0  0.14707831383E+01 -0.47756028793E+00  0.30606574149E+01  0.34291238939E+01  0.00000000000E+00 0.  1.
</event>
<event>
 7    1  0.2706925E-010  0.4778727E+02  0.7816164E-02  0.1312668E+00
        -11   -1    0    0    0    0  0.00000000000E+00  0.00000000000E+00  0.45593999997E+02  0.45594000000E+02  0.51100000000E-03 0.  1.
         11   -1    0    0    0    0 -0.00000000000E+00 -0.00000000000E+00 -0.45593999997E+02  0.45594000000E+02  0.51100000000E-03 0. -1.
    9900012    2    1    2    0    0 -0.41106257754E+02  0.83785638478E+01  0.11122001764E+02  0.47787266344E+02  0.19999978567E+02 0.  0.
         12    1    1    2    0    0  0.41106257754E+02 -0.83785638478E+01 -0.11122001764E+02  0.43400733656E+02  0.00000000000E+00 0. -1.
         11    1    3    3    0    0  0.18966848527E+00 -0.14364336378E+01 -0.76931272979E+00  0.16404749518E+01  0.51100000000E-03 0. -1.
        -11    1    3    3    0    0 -0.28006788893E+02  0.75534749500E+01  0.14479255593E+02  0.32420426443E+02  0.51100000000E-03 0.  1.
        -12    1    3    3    0    0 -0.13289137346E+02  0.22615225356E+01 -0.25879410999E+01  0.13726364949E+02  0.00000000000E+00 0.  1.
</event>
<event>
 7    1  0.2706925E-010  0.4778727E+02  0.7816164E-02  0.1312668E+00
        -11   -1    0    0    0    0  0.00000000000E+00  0.00000000000E+00  0.45593999997E+02  0.45594000000E+02  0.51100000000E-03 0.  1.
         11   -1    0    0    0    0 -0.00000000000E+00 -0.00000000000E+00 -0.45593999997E+02  0.45594000000E+02  0.51100000000E-03 0. -1.
    9900012    2    1    2    0    0 -0.11198556224E+02  0.22486929661E+02  0.35391434087E+02  0.47787271045E+02  0.20000000005E+02 0.  0.
         12    1    1    2    0    0  0.11198556224E+02 -0.22486929661E+02 -0.35391434087E+02  0.43400728955E+02  0.00000000000E+00 0. -1.
         11    1    3    3    0    0 -0.82519171783E+01  0.10804107314E+01  0.11377914254E+02  0.14096749891E+02  0.51100000000E-03 0. -1.
        -11    1    3    3    0    0  0.28260319032E+00  0.12766551192E+02  0.75925330535E+01  0.14856353938E+02  0.51100000000E-03 0.  1.
         12    1    3    3    0    0 -0.32292422357E+01  0.86399677374E+01  0.16420986779E+02  0.18834167216E+02  0.00000000000E+00 0. -1.
</event>
<event>
 7    1  0.2706925E-010  0.4778728E+02  0.7816164E-02  0.1312668E+00
        -11   -1    0    0    0    0  0.00000000000E+00  0.00000000000E+00  0.45593999997E+02  0.45594000000E+02  0.51100000000E-03 0. -1.
         11   -1    0    0    0    0 -0.00000000000E+00 -0.00000000000E+00 -0.45593999997E+02  0.45594000000E+02  0.51100000000E-03 0.  1.
    9900012    2    1    2    0    0  0.67494357060E+01  0.35307420515E+02 -0.24319829445E+02  0.47787275006E+02  0.20000018063E+02 0.  0.
         12    1    1    2    0    0 -0.67494357060E+01 -0.35307420515E+02  0.24319829445E+02  0.43400724994E+02  0.00000000000E+00 0. -1.
         11    1    3    3    0    0  0.31667222110E+01  0.20960065728E+01  0.16590507407E+01  0.41441311196E+01  0.51100000000E-03 0. -1.
        -11    1    3    3    0    0 -0.16097584653E+01  0.33035829275E+01  0.21396938934E-01  0.36749749068E+01  0.51100000000E-03 0.  1.
         12    1    3    3    0    0  0.51924719603E+01  0.29907831014E+02 -0.26000277125E+02  0.39968168980E+02  0.00000000000E+00 0. -1.
</event>
<event>
 7    1  0.2706925E-010  0.4778727E+02  0.7816164E-02  0.1312668E+00
        -11   -1    0    0    0    0  0.00000000000E+00  0.00000000000E+00  0.45593999997E+02  0.45594000000E+02  0.51100000000E-03 0.  1.
         11   -1    0    0    0    0 -0.00000000000E+00 -0.00000000000E+00 -0.45593999997E+02  0.45594000000E+02  0.51100000000E-03 0. -1.
    9900012    2    1    2    0    0 -0.27189337652E+01 -0.25075692619E+02  0.35319121863E+02  0.47787270394E+02  0.19999997035E+02 0.  0.
         12    1    1    2    0    0  0.27189337652E+01  0.25075692619E+02 -0.35319121863E+02  0.43400729606E+02  0.00000000000E+00 0. -1.
         11    1    3    3    0    0  0.38864296654E+01  0.13637274769E+01  0.44654895591E+01  0.60749226694E+01  0.51100000000E-03 0. -1.
        -11    1    3    3    0    0 -0.33093613060E+01 -0.22393206858E+02  0.22901834401E+02  0.32200956583E+02  0.51100000000E-03 0.  1.
         12    1    3    3    0    0 -0.32960021246E+01 -0.40462132375E+01  0.79517979029E+01  0.95113911421E+01  0.00000000000E+00 0. -1.
</event>
<event>
 7    1  0.2706925E-010  0.4778727E+02  0.7816164E-02  0.1312668E+00
        -11   -1    0    0    0    0  0.00000000000E+00  0.00000000000E+00  0.45593999997E+02  0.45594000000E+02  0.51100000000E-03 0. -1.
         11   -1    0    0    0    0 -0.00000000000E+00 -0.00000000000E+00 -0.45593999997E+02  0.45594000000E+02  0.51100000000E-03 0.  1.
    9900012    2    1    2    0    0 -0.37619417736E+02  0.21370287623E+02 -0.34224888482E+01  0.47787271736E+02  0.20000003155E+02 0.  0.
         12    1    1    2    0    0  0.37619417736E+02 -0.21370287623E+02  0.34224888482E+01  0.43400728264E+02  0.00000000000E+00 0. -1.
         11    1    3    3    0    0 -0.23741416837E+01  0.81519766233E+01  0.34229163875E+01  0.91546506465E+01  0.51100000000E-03 0. -1.
        -11    1    3    3    0    0 -0.25531498398E+02  0.79020290566E+01 -0.67210375420E+01  0.27558516280E+02  0.51100000000E-03 0.  1.
         12    1    3    3    0    0 -0.97137776550E+01  0.53162819428E+01 -0.12436769368E+00  0.11074104810E+02  0.00000000000E+00 0. -1.
</event>
<event>
 7    1  0.2706925E-010  0.4778729E+02  0.7816164E-02  0.1312668E+00
        -11   -1    0    0    0    0  0.00000000000E+00  0.00000000000E+00  0.45593999997E+02  0.45594000000E+02  0.51100000000E-03 0. -1.
         11   -1    0    0    0    0 -0.00000000000E+00 -0.00000000000E+00 -0.45593999997E+02  0.45594000000E+02  0.51100000000E-03 0.  1.
    9900012    2    1    2    0    0  0.39610804477E+02  0.17691589114E+02  0.12700833795E+01  0.47787294147E+02  0.20000105336E+02 0.  0.
         12    1    1    2    0    0 -0.39610804477E+02 -0.17691589114E+02 -0.12700833795E+01  0.43400705853E+02  0.00000000000E+00 0. -1.
         11    1    3    3    0    0  0.11303369551E+02  0.26140398450E+00  0.37258271841E+01  0.11904464865E+02  0.51100000000E-03 0. -1.
        -11    1    3    3    0    0  0.61824097421E+01  0.58862196840E+01 -0.63314271228E+01  0.10628110936E+02  0.51100000000E-03 0.  1.
        -12    1    3    3    0    0  0.22125025184E+02  0.11543965445E+02  0.38756833182E+01  0.25254718347E+02  0.00000000000E+00 0.  1.
</event>
<event>
 7    1  0.2706925E-010  0.4778726E+02  0.7816164E-02  0.1312668E+00
        -11   -1    0    0    0    0  0.00000000000E+00  0.00000000000E+00  0.45593999997E+02  0.45594000000E+02  0.51100000000E-03 0. -1.
         11   -1    0    0    0    0 -0.00000000000E+00 -0.00000000000E+00 -0.45593999997E+02  0.45594000000E+02  0.51100000000E-03 0.  1.
    9900012    2    1    2    0    0  0.84904784855E+01  0.42429542014E+02 -0.33571207978E+01  0.47787256683E+02  0.19999934521E+02 0.  0.
         12    1    1    2    0    0 -0.84904784855E+01 -0.42429542014E+02  0.33571207978E+01  0.43400743317E+02  0.00000000000E+00 0. -1.
         11    1    3    3    0    0 -0.45834451717E+01  0.11118688700E+02 -0.28427659854E+01  0.12357771917E+02  0.51100000000E-03 0.  1.
        -11    1    3    3    0    0  0.13534691905E+02  0.25387877763E+02  0.22873397095E+01  0.28861118230E+02  0.51100000000E-03 0. -1.
         12    1    3    3    0    0 -0.46076824809E+00  0.59229755508E+01 -0.28016945219E+01  0.65683665358E+01  0.00000000000E+00 0. -1.
</event>
<event>
 7    1  0.2706925E-010  0.4778727E+02  0.7816164E-02  0.1312668E+00
        -11   -1    0    0    0    0  0.00000000000E+00  0.00000000000E+00  0.45593999997E+02  0.45594000000E+02  0.51100000000E-03 0.  1.
         11   -1    0    0    0    0 -0.00000000000E+00 -0.00000000000E+00 -0.45593999997E+02  0.45594000000E+02  0.51100000000E-03 0. -1.
    9900012    2    1    2    0    0  0.20504812905E+02  0.29802358372E+02  0.23979066755E+02  0.47787267757E+02  0.19999985010E+02 0.  0.
         12    1    1    2    0    0 -0.20504812905E+02 -0.29802358372E+02 -0.23979066755E+02  0.43400732243E+02  0.00000000000E+00 0. -1.
         11    1    3    3    0    0 -0.73087043102E+00  0.22671611488E+01  0.63750306869E+00  0.24658876060E+01  0.51100000000E-03 0. -1.
        -11    1    3    3    0    0  0.19770554561E+01  0.28987989607E-01  0.82928627937E+01  0.85253247537E+01  0.51100000000E-03 0.  1.
        -12    1    3    3    0    0  0.19258627879E+02  0.27506209234E+02  0.15048700893E+02  0.36796055397E+02  0.00000000000E+00 0.  1.
</event>
<event>
 7    1  0.2706925E-010  0.4778727E+02  0.7816164E-02  0.1312668E+00
        -11   -1    0    0    0    0  0.00000000000E+00  0.00000000000E+00  0.45593999997E+02  0.45594000000E+02  0.51100000000E-03 0.  1.
         11   -1    0    0    0    0 -0.00000000000E+00 -0.00000000000E+00 -0.45593999997E+02  0.45594000000E+02  0.51100000000E-03 0. -1.
    9900012    2    1    2    0    0  0.10792513479E+02 -0.36446421077E+02  0.20947633890E+02  0.47787270489E+02  0.19999997467E+02 0.  0.
         12    1    1    2    0    0 -0.10792513479E+02  0.36446421077E+02 -0.20947633890E+02  0.43400729511E+02  0.00000000000E+00 0. -1.
         11    1    3    3    0    0  0.35659064289E+01 -0.10445259920E+02  0.58365345191E+00  0.11052592233E+02  0.51100000000E-03 0. -1.
        -11    1    3    3    0    0  0.10938890013E+02 -0.23938323327E+02  0.17811201091E+02  0.31779577137E+02  0.51100000000E-03 0.  1.
        -12    1    3    3    0    0 -0.37122829624E+01 -0.20628378294E+01  0.25527793469E+01  0.49551011188E+01  0.00000000000E+00 0.  1.
</event>
<event>
 7    1  0.2706925E-010  0.4778727E+02  0.7816164E-02  0.1312668E+00
        -11   -1    0    0    0    0  0.00000000000E+00  0.00000000000E+00  0.45593999997E+02  0.45594000000E+02  0.51100000000E-03 0. -1.
         11   -1    0    0    0    0 -0.00000000000E+00 -0.00000000000E+00 -0.45593999997E+02  0.45594000000E+02  0.51100000000E-03 0.  1.
    9900012    2    1    2    0    0 -0.14490607219E+02  0.40369484452E+02  0.66295086843E+01  0.47787270076E+02  0.19999995586E+02 0.  0.
         12    1    1    2    0    0  0.14490607219E+02 -0.40369484452E+02 -0.66295086843E+01  0.43400729924E+02  0.00000000000E+00 0. -1.
         11    1    3    3    0    0 -0.41283833280E+01  0.11522417577E+01 -0.10212098603E+01  0.44061411474E+01  0.51100000000E-03 0. -1.
        -11    1    3    3    0    0  0.61360245804E+00  0.23025064140E+02  0.56603507158E+01  0.23718550906E+02  0.51100000000E-03 0.  1.
        -12    1    3    3    0    0 -0.10975826349E+02  0.16192178555E+02  0.19903678288E+01  0.19662578022E+02  0.00000000000E+00 0.  1.
</event>
<event>
 7    1  0.2706925E-010  0.4778727E+02  0.7816164E-02  0.1312668E+00
        -11   -1    0    0    0    0  0.00000000000E+00  0.00000000000E+00  0.45593999997E+02  0.45594000000E+02  0.51100000000E-03 0.  1.
         11   -1    0    0    0    0 -0.00000000000E+00 -0.00000000000E+00 -0.45593999997E+02  0.45594000000E+02  0.51100000000E-03 0. -1.
    9900012    2    1    2    0    0  0.78961358664E+01 -0.41814337831E+02  0.85343701505E+01  0.47787270931E+02  0.19999999484E+02 0.  0.
         12    1    1    2    0    0 -0.78961358664E+01  0.41814337831E+02 -0.85343701505E+01  0.43400729069E+02  0.00000000000E+00 0. -1.
         11    1    3    3    0    0 -0.20029937133E+01 -0.77062367407E+01 -0.43179873670E+01  0.90577637242E+01  0.51100000000E-03 0. -1.
        -11    1    3    3    0    0  0.36017325799E+01 -0.25967615439E+02  0.98902697950E+01  0.28019760279E+02  0.51100000000E-03 0.  1.
        -12    1    3    3    0    0  0.62973969998E+01 -0.81404856504E+01  0.29620877225E+01  0.10709746929E+02  0.00000000000E+00 0.  1.
</event>
<event>
 7    1  0.2706925E-010  0.4778727E+02  0.7816164E-02  0.1312668E+00
        -11   -1    0    0    0    0  0.00000000000E+00  0.00000000000E+00  0.45593999997E+02  0.45594000000E+02  0.51100000000E-03 0.  1.
         11   -1    0    0    0    0 -0.00000000000E+00 -0.00000000000E+00 -0.45593999997E+02  0.45594000000E+02  0.51100000000E-03 0. -1.
    9900012    2    1    2    0    0 -0.12005200447E+02  0.41011554024E+02  0.75862360770E+01  0.47787269833E+02  0.19999994476E+02 0.  0.
         12    1    1    2    0    0  0.12005200447E+02 -0.41011554024E+02 -0.75862360770E+01  0.43400730167E+02  0.00000000000E+00 0. -1.
         11    1    3    3    0    0 -0.85608435658E+00  0.18650632830E+02  0.74780382639E+01  0.20112186404E+02  0.51100000000E-03 0.  1.
        -11    1    3    3    0    0 -0.61514654648E+01  0.19865593936E+02 -0.34093855709E+01  0.21073828794E+02  0.51100000000E-03 0. -1.
        -12    1    3    3    0    0 -0.49976506253E+01  0.24953272570E+01  0.35175833840E+01  0.66012546349E+01  0.00000000000E+00 0.  1.
</event>
<event>
 7    1  0.2706925E-010  0.4778726E+02  0.7816164E-02  0.1312668E+00
        -11   -1    0    0    0    0  0.00000000000E+00  0.00000000000E+00  0.45593999997E+02  0.45594000000E+02  0.51100000000E-03 0.  1.
         11   -1    0    0    0    0 -0.00000000000E+00 -0.00000000000E+00 -0.45593999997E+02  0.45594000000E+02  0.51100000000E-03 0. -1.
    9900012    2    1    2    0    0 -0.11721621765E+02 -0.25464531488E+02  0.33132840801E+02  0.47787263598E+02  0.19999966048E+02 0.  0.
         12    1    1    2    0    0  0.11721621765E+02  0.25464531488E+02 -0.33132840801E+02  0.43400736402E+02  0.00000000000E+00 0. -1.
         11    1    3    3    0    0 -0.10095079276E+02 -0.41153444781E+01  0.74842818844E+01  0.13223507906E+02  0.51100000000E-03 0. -1.
        -11    1    3    3    0    0 -0.91308550674E+00 -0.19404927633E+02  0.17467649773E+02  0.26124772352E+02  0.51100000000E-03 0.  1.
         12    1    3    3    0    0 -0.71345698165E+00 -0.19442593769E+01  0.81809091440E+01  0.84389833399E+01  0.00000000000E+00 0. -1.
</event>
<event>
 7    1  0.2706925E-010  0.4778727E+02  0.7816164E-02  0.1312668E+00
        -11   -1    0    0    0    0  0.00000000000E+00  0.00000000000E+00  0.45593999997E+02  0.45594000000E+02  0.51100000000E-03 0.  1.
         11   -1    0    0    0    0 -0.00000000000E+00 -0.00000000000E+00 -0.45593999997E+02  0.45594000000E+02  0.51100000000E-03 0. -1.
    9900012    2    1    2    0    0 -0.30592556160E+02 -0.30704972613E+02 -0.22189394009E+01  0.47787268120E+02  0.19999986668E+02 0.  0.
         12    1    1    2    0    0  0.30592556160E+02  0.30704972613E+02  0.22189394009E+01  0.43400731880E+02  0.00000000000E+00 0. -1.
         11    1    3    3    0    0 -0.29482094912E+01 -0.12545426063E+02  0.13899121866E+01  0.12961925415E+02  0.51100000000E-03 0. -1.
        -11    1    3    3    0    0 -0.30369437776E+01 -0.69356223396E+01 -0.12821272122E+01  0.76791754242E+01  0.51100000000E-03 0.  1.
         12    1    3    3    0    0 -0.24607402892E+02 -0.11223924211E+02 -0.23267243754E+01  0.27146167281E+02  0.00000000000E+00 0. -1.
</event>
<event>
 7    1  0.2706925E-010  0.4778728E+02  0.7816164E-02  0.1312668E+00
        -11   -1    0    0    0    0  0.00000000000E+00  0.00000000000E+00  0.45593999997E+02  0.45594000000E+02  0.51100000000E-03 0. -1.
         11   -1    0    0    0    0 -0.00000000000E+00 -0.00000000000E+00 -0.45593999997E+02  0.45594000000E+02  0.51100000000E-03 0.  1.
    9900012    2    1    2    0    0 -0.20627050440E+02 -0.31603555956E+02 -0.21432737978E+02  0.47787283230E+02  0.20000055557E+02 0.  0.
         12    1    1    2    0    0  0.20627050440E+02  0.31603555956E+02  0.21432737978E+02  0.43400716770E+02  0.00000000000E+00 0. -1.
         11    1    3    3    0    0 -0.11629069827E+02 -0.25582078645E+02 -0.13332401684E+02  0.31103552012E+02  0.51100000000E-03 0. -1.
        -11    1    3    3    0    0 -0.52893783827E+01  0.12901990859E+01 -0.43796988872E+00  0.54620467996E+01  0.51100000000E-03 0.  1.
        -12    1    3    3    0    0 -0.37086022305E+01 -0.73116763968E+01 -0.76623664055E+01  0.11221684418E+02  0.00000000000E+00 0.  1.
</event>
<event>
 7    1  0.2706925E-010  0.4778727E+02  0.7816164E-02  0.1312668E+00
        -11   -1    0    0    0    0  0.00000000000E+00  0.00000000000E+00  0.45593999997E+02  0.45594000000E+02  0.51100000000E-03 0.  1.
         11   -1    0    0    0    0 -0.00000000000E+00 -0.00000000000E+00 -0.45593999997E+02  0.45594000000E+02  0.51100000000E-03 0. -1.
    9900012    2    1    2    0    0  0.25316600775E+02  0.66509390138E+00  0.35245577464E+02  0.47787270104E+02  0.19999995714E+02 0.  0.
         12    1    1    2    0    0 -0.25316600775E+02 -0.66509390138E+00 -0.35245577464E+02  0.43400729896E+02  0.00000000000E+00 0. -1.
         11    1    3    3    0    0  0.16336548303E+02 -0.56080464933E+01  0.21765164136E+02  0.27785884295E+02  0.51100000000E-03 0.  1.
        -11    1    3    3    0    0  0.76837023189E+01 -0.20080604672E+00  0.46779371463E+01  0.89979275724E+01  0.51100000000E-03 0. -1.
         12    1    3    3    0    0  0.12963501535E+01  0.64739464414E+01  0.88024761813E+01  0.11003458237E+02  0.00000000000E+00 0. -1.
</event>
<event>
 7    1  0.2706925E-010  0.4778727E+02  0.7816164E-02  0.1312668E+00
        -11   -1    0    0    0    0  0.00000000000E+00  0.00000000000E+00  0.45593999997E+02  0.45594000000E+02  0.51100000000E-03 0.  1.
         11   -1    0    0    0    0 -0.00000000000E+00 -0.00000000000E+00 -0.45593999997E+02  0.45594000000E+02  0.51100000000E-03 0. -1.
    9900012    2    1    2    0    0  0.13997870829E+02  0.94749567025E+01  0.39973843212E+02  0.47787270359E+02  0.19999996873E+02 0.  0.
         12    1    1    2    0    0 -0.13997870829E+02 -0.94749567025E+01 -0.39973843212E+02  0.43400729641E+02  0.00000000000E+00 0. -1.
         11    1    3    3    0    0  0.94971759887E+01  0.71994130154E-01  0.10544301967E+02  0.14190977385E+02  0.51100000000E-03 0. -1.
        -11    1    3    3    0    0  0.31575007374E+01  0.11578277364E+02  0.16421631038E+02  0.20339525163E+02  0.51100000000E-03 0.  1.
        -12    1    3    3    0    0  0.13431941028E+01 -0.21753147916E+01  0.13007910207E+02  0.13256767811E+02  0.00000000000E+00 0.  1.
</event>
<event>
 7    1  0.2706925E-010  0.4778727E+02  0.7816164E-02  0.1312668E+00
        -11   -1    0    0    0    0  0.00000000000E+00  0.00000000000E+00  0.45593999997E+02  0.45594000000E+02  0.51100000000E-03 0. -1.
         11   -1    0    0    0    0 -0.00000000000E+00 -0.00000000000E+00 -0.45593999997E+02  0.45594000000E+02  0.51100000000E-03 0.  1.
    9900012    2    1    2    0    0  0.20851207676E+02 -0.19651988920E+02 -0.32598312154E+02  0.47787268608E+02  0.19999988892E+02 0.  0.
         12    1    1    2    0    0 -0.20851207676E+02  0.19651988920E+02  0.32598312154E+02  0.43400731392E+02  0.00000000000E+00 0. -1.
         11    1    3    3    0    0  0.17869826294E+02 -0.90763898747E+01 -0.18693885475E+02  0.27407533624E+02  0.51100000000E-03 0. -1.
        -11    1    3    3    0    0  0.32810997065E+01 -0.12484036646E+02 -0.11436182177E+02  0.17245377622E+02  0.51100000000E-03 0.  1.
         12    1    3    3    0    0 -0.29971832514E+00  0.19084376012E+01 -0.24682445017E+01  0.31343573619E+01  0.00000000000E+00 0. -1.
</event>
<event>
 7    1  0.2706925E-010  0.4778727E+02  0.7816164E-02  0.1312668E+00
        -11   -1    0    0    0    0  0.00000000000E+00  0.00000000000E+00  0.45593999997E+02  0.45594000000E+02  0.51100000000E-03 0.  1.
         11   -1    0    0    0    0 -0.00000000000E+00 -0.00000000000E+00 -0.45593999997E+02  0.45594000000E+02  0.51100000000E-03 0. -1.
    9900012    2    1    2    0    0 -0.55197899927E+01  0.35238742240E+02  0.24726235742E+02  0.47787265326E+02  0.19999973928E+02 0.  0.
         12    1    1    2    0    0  0.55197899927E+01 -0.35238742240E+02 -0.24726235742E+02  0.43400734674E+02  0.00000000000E+00 0. -1.
         11    1    3    3    0    0  0.26738969498E+01  0.71808906054E+01  0.20555446643E+01  0.79334846640E+01  0.51100000000E-03 0. -1.
        -11    1    3    3    0    0 -0.63397715927E+01  0.11561647969E+02  0.18534379330E+02  0.22746156269E+02  0.51100000000E-03 0.  1.
        -12    1    3    3    0    0 -0.18539153498E+01  0.16496203666E+02  0.41363117484E+01  0.17107624393E+02  0.00000000000E+00 0.  1.
</event>
<event>
 7    1  0.2706925E-010  0.4778728E+02  0.7816164E-02  0.1312668E+00
        -11   -1    0    0    0    0  0.00000000000E+00  0.00000000000E+00  0.45593999997E+02  0.45594000000E+02  0.51100000000E-03 0. -1.
         11   -1    0    0    0    0 -0.00000000000E+00 -0.00000000000E+00 -0.45593999997E+02  0.45594000000E+02  0.51100000000E-03 0.  1.
    9900012    2    1    2    0    0 -0.41193604825E+02 -0.49470413786E+01 -0.12737209159E+02  0.47787276572E+02  0.20000025203E+02 0.  0.
         12    1    1    2    0    0  0.41193604825E+02  0.49470413786E+01  0.12737209159E+02  0.43400723428E+02  0.00000000000E+00 0. -1.
         11    1    3    3    0    0 -0.31159176412E-01 -0.13749189164E+01  0.69571298112E-01  0.13770306270E+01  0.51100000000E-03 0. -1.
        -11    1    3    3    0    0 -0.85216311337E+01  0.75353167147E+00 -0.10299089826E+02  0.13388698916E+02  0.51100000000E-03 0.  1.
        -12    1    3    3    0    0 -0.32640814515E+02 -0.43256541337E+01 -0.25076906310E+01  0.33021547029E+02  0.00000000000E+00 0.  1.
</event>
<event>
 7    1  0.2706925E-010  0.4778727E+02  0.7816164E-02  0.1312668E+00
        -11   -1    0    0    0    0  0.00000000000E+00  0.00000000000E+00  0.45593999997E+02  0.45594000000E+02  0.51100000000E-03 0.  1.
         11   -1    0    0    0    0 -0.00000000000E+00 -0.00000000000E+00 -0.45593999997E+02  0.45594000000E+02  0.51100000000E-03 0. -1.
    9900012    2    1    2    0    0 -0.19872753052E+02 -0.36703842963E+02  0.11896419277E+02  0.47787271968E+02  0.20000004210E+02 0.  0.
         12    1    1    2    0    0  0.19872753052E+02  0.36703842963E+02 -0.11896419277E+02  0.43400728032E+02  0.00000000000E+00 0. -1.
         11    1    3    3    0    0 -0.15789942648E+02 -0.11081873841E+02  0.21710905976E+00  0.19291898643E+02  0.51100000000E-03 0. -1.
        -11    1    3    3    0    0 -0.12910006238E+01 -0.12342872999E+02  0.60174850236E+01  0.13792147141E+02  0.51100000000E-03 0.  1.
         12    1    3    3    0    0 -0.27918097803E+01 -0.13279096123E+02  0.56618251933E+01  0.14703226184E+02  0.00000000000E+00 0. -1.
</event>
<event>
 7    1  0.2706925E-010  0.4778727E+02  0.7816164E-02  0.1312668E+00
        -11   -1    0    0    0    0  0.00000000000E+00  0.00000000000E+00  0.45593999997E+02  0.45594000000E+02  0.51100000000E-03 0. -1.
         11   -1    0    0    0    0 -0.00000000000E+00 -0.00000000000E+00 -0.45593999997E+02  0.45594000000E+02  0.51100000000E-03 0.  1.
    9900012    2    1    2    0    0  0.29931889744E+02  0.29708686153E+02  0.10251804970E+02  0.47787267728E+02  0.19999984880E+02 0.  0.
         12    1    1    2    0    0 -0.29931889744E+02 -0.29708686153E+02 -0.10251804970E+02  0.43400732272E+02  0.00000000000E+00 0. -1.
         11    1    3    3    0    0  0.14908857955E+01 -0.21075573429E+01 -0.10251798295E+01  0.27776847109E+01  0.51100000000E-03 0. -1.
        -11    1    3    3    0    0  0.25762842831E+02  0.27831020669E+02  0.69711235230E+01  0.38560165270E+02  0.51100000000E-03 0.  1.
         12    1    3    3    0    0  0.26781611173E+01  0.39852228275E+01  0.43058612761E+01  0.64494177477E+01  0.00000000000E+00 0. -1.
</event>
<event>
 7    1  0.2706925E-010  0.4778727E+02  0.7816164E-02  0.1312668E+00
        -11   -1    0    0    0    0  0.00000000000E+00  0.00000000000E+00  0.45593999997E+02  0.45594000000E+02  0.51100000000E-03 0.  1.
         11   -1    0    0    0    0 -0.00000000000E+00 -0.00000000000E+00 -0.45593999997E+02  0.45594000000E+02  0.51100000000E-03 0. -1.
    9900012    2    1    2    0    0  0.26106422896E+02 -0.33389302670E+02  0.93398284145E+01  0.47787271388E+02  0.20000001567E+02 0.  0.
         12    1    1    2    0    0 -0.26106422896E+02  0.33389302670E+02 -0.93398284145E+01  0.43400728612E+02  0.00000000000E+00 0. -1.
         11    1    3    3    0    0  0.24308318518E+02 -0.26287970687E+02  0.12487982337E+02  0.37919671084E+02  0.51100000000E-03 0. -1.
        -11    1    3    3    0    0 -0.11926585705E+01 -0.58694309265E+01 -0.12539562271E+01  0.61192369089E+01  0.51100000000E-03 0.  1.
         12    1    3    3    0    0  0.29907629491E+01 -0.12319010566E+01 -0.18941976958E+01  0.37483633950E+01  0.00000000000E+00 0. -1.
</event>
<event>
 7    1  0.2706925E-010  0.4778727E+02  0.7816164E-02  0.1312668E+00
        -11   -1    0    0    0    0  0.00000000000E+00  0.00000000000E+00  0.45593999997E+02  0.45594000000E+02  0.51100000000E-03 0.  1.
         11   -1    0    0    0    0 -0.00000000000E+00 -0.00000000000E+00 -0.45593999997E+02  0.45594000000E+02  0.51100000000E-03 0. -1.
    9900012    2    1    2    0    0  0.39009971638E+02  0.18997665737E+02  0.96637953246E+00  0.47787273278E+02  0.20000010183E+02 0.  0.
         12    1    1    2    0    0 -0.39009971638E+02 -0.18997665737E+02 -0.96637953246E+00  0.43400726722E+02  0.00000000000E+00 0. -1.
         11    1    3    3    0    0  0.28828665073E+02  0.17543827046E+02  0.57155383648E+01  0.34227842123E+02  0.51100000000E-03 0. -1.
        -11    1    3    3    0    0  0.57204072276E+01 -0.20808038873E+01  0.91513724777E-01  0.60877893105E+01  0.51100000000E-03 0.  1.
         12    1    3    3    0    0  0.44608993369E+01  0.35346425785E+01 -0.48406725571E+01  0.74716418448E+01  0.00000000000E+00 0. -1.
</event>
<event>
 7    1  0.2706925E-010  0.4778727E+02  0.7816164E-02  0.1312668E+00
        -11   -1    0    0    0    0  0.00000000000E+00  0.00000000000E+00  0.45593999997E+02  0.45594000000E+02  0.51100000000E-03 0.  1.
         11   -1    0    0    0    0 -0.00000000000E+00 -0.00000000000E+00 -0.45593999997E+02  0.45594000000E+02  0.51100000000E-03 0. -1.
    9900012    2    1    2    0    0 -0.36761654068E+02  0.77727050002E+01  0.21720705298E+02  0.47787271994E+02  0.20000004327E+02 0.  0.
         12    1    1    2    0    0  0.36761654068E+02 -0.77727050002E+01 -0.21720705298E+02  0.43400728006E+02  0.00000000000E+00 0. -1.
         11    1    3    3    0    0 -0.13197367715E+02 -0.43779733514E+00  0.12922371991E+01  0.13267707351E+02  0.51100000000E-03 0. -1.
        -11    1    3    3    0    0 -0.24224991279E+02  0.97029929456E+01  0.18474151058E+02  0.31973309684E+02  0.51100000000E-03 0.  1.
        -12    1    3    3    0    0  0.66070492528E+00 -0.14924906103E+01  0.19543170412E+01  0.25462549593E+01  0.00000000000E+00 0.  1.
</event>
<event>
 7    1  0.2706925E-010  0.4778727E+02  0.7816164E-02  0.1312668E+00
        -11   -1    0    0    0    0  0.00000000000E+00  0.00000000000E+00  0.45593999997E+02  0.45594000000E+02  0.51100000000E-03 0. -1.
         11   -1    0    0    0    0 -0.00000000000E+00 -0.00000000000E+00 -0.45593999997E+02  0.45594000000E+02  0.51100000000E-03 0.  1.
    9900012    2    1    2    0    0  0.34681953896E+02 -0.24471429231E+02 -0.90517726476E+01  0.47787270021E+02  0.19999995333E+02 0.  0.
         12    1    1    2    0    0 -0.34681953896E+02  0.24471429231E+02  0.90517726476E+01  0.43400729979E+02  0.00000000000E+00 0. -1.
         11    1    3    3    0    0  0.73244588683E+01 -0.10787455611E+02  0.13573682363E+00  0.13039759239E+02  0.51100000000E-03 0. -1.
        -11    1    3    3    0    0  0.23699655427E+02 -0.52335226309E+01 -0.59773505899E+01  0.24995842591E+02  0.51100000000E-03 0.  1.
        -12    1    3    3    0    0  0.36578396013E+01 -0.84504509885E+01 -0.32101588813E+01  0.97516681907E+01  0.00000000000E+00 0.  1.
</event>
<event>
 7    1  0.2706925E-010  0.4778727E+02  0.7816164E-02  0.1312668E+00
        -11   -1    0    0    0    0  0.00000000000E+00  0.00000000000E+00  0.45593999997E+02  0.45594000000E+02  0.51100000000E-03 0.  1.
         11   -1    0    0    0    0 -0.00000000000E+00 -0.00000000000E+00 -0.45593999997E+02  0.45594000000E+02  0.51100000000E-03 0. -1.
    9900012    2    1    2    0    0  0.11765444989E+02  0.21933300328E+02  0.35554575335E+02  0.47787272053E+02  0.20000004600E+02 0.  0.
         12    1    1    2    0    0 -0.11765444989E+02 -0.21933300328E+02 -0.35554575335E+02  0.43400727947E+02  0.00000000000E+00 0. -1.
         11    1    3    3    0    0  0.11105134428E+02  0.18223109490E+02  0.22159531351E+02  0.30764436613E+02  0.51100000000E-03 0. -1.
        -11    1    3    3    0    0  0.20787217030E+01 -0.26759895555E+01  0.21490030601E+01  0.40125077487E+01  0.51100000000E-03 0.  1.
        -12    1    3    3    0    0 -0.14184111422E+01  0.63861803927E+01  0.11246040924E+02  0.13010327692E+02  0.00000000000E+00 0.  1.
</event>
<event>
 7    1  0.2706925E-010  0.4778727E+02  0.7816164E-02  0.1312668E+00
        -11   -1    0    0    0    0  0.00000000000E+00  0.00000000000E+00  0.45593999997E+02  0.45594000000E+02  0.51100000000E-03 0.  1.
         11   -1    0    0    0    0 -0.00000000000E+00 -0.00000000000E+00 -0.45593999997E+02  0.45594000000E+02  0.51100000000E-03 0. -1.
    9900012    2    1    2    0    0 -0.21924611897E+02  0.15996955002E+02  0.33867862103E+02  0.47787271209E+02  0.20000000752E+02 0.  0.
         12    1    1    2    0    0  0.21924611897E+02 -0.15996955002E+02 -0.33867862103E+02  0.43400728791E+02  0.00000000000E+00 0. -1.
         11    1    3    3    0    0 -0.13524795749E+02  0.88460997069E+01  0.14614290339E+02  0.21788782950E+02  0.51100000000E-03 0. -1.
        -11    1    3    3    0    0  0.32316694066E+01  0.41801844501E+01  0.42342896660E+01  0.67710293476E+01  0.51100000000E-03 0.  1.
        -12    1    3    3    0    0 -0.11631485554E+02  0.29706708448E+01  0.15019282098E+02  0.19227458912E+02  0.00000000000E+00 0.  1.
</event>
<event>
 7    1  0.2706925E-010  0.4778727E+02  0.7816164E-02  0.1312668E+00
        -11   -1    0    0    0    0  0.00000000000E+00  0.00000000000E+00  0.45593999997E+02  0.45594000000E+02  0.51100000000E-03 0. -1.
         11   -1    0    0    0    0 -0.00000000000E+00 -0.00000000000E+00 -0.45593999997E+02  0.45594000000E+02  0.51100000000E-03 0.  1.
    9900012    2    1    2    0    0  0.37760220383E+02 -0.16978358708E+02 -0.13020166175E+02  0.47787266884E+02  0.19999981030E+02 0.  0.
         12    1    1    2    0    0 -0.37760220383E+02  0.16978358708E+02  0.13020166175E+02  0.43400733116E+02  0.00000000000E+00 0. -1.
         11    1    3    3    0    0  0.73547352381E+01 -0.93741610207E+01 -0.85118464915E+00  0.11945356455E+02  0.51100000000E-03 0. -1.
        -11    1    3    3    0    0  0.19793209601E+02 -0.22022832694E+01 -0.13194725762E+02  0.23889788322E+02  0.51100000000E-03 0.  1.
         12    1    3    3    0    0  0.10612275544E+02 -0.54019144180E+01  0.10257442364E+01  0.11952122106E+02  0.00000000000E+00 0. -1.
</event>
<event>
 7    1  0.2706925E-010  0.4778727E+02  0.7816164E-02  0.1312668E+00
        -11   -1    0    0    0    0  0.00000000000E+00  0.00000000000E+00  0.45593999997E+02  0.45594000000E+02  0.51100000000E-03 0.  1.
         11   -1    0    0    0    0 -0.00000000000E+00 -0.00000000000E+00 -0.45593999997E+02  0.45594000000E+02  0.51100000000E-03 0. -1.
    9900012    2    1    2    0    0  0.19472386328E+02  0.36735363212E+02 -0.12448388030E+02  0.47787273000E+02  0.20000008915E+02 0.  0.
         12    1    1    2    0    0 -0.19472386328E+02 -0.36735363212E+02  0.12448388030E+02  0.43400727000E+02  0.00000000000E+00 0. -1.
         11    1    3    3    0    0  0.55392588611E+01  0.14958131691E+02 -0.12130763896E+02  0.20039573982E+02  0.51100000000E-03 0.  1.
        -11    1    3    3    0    0  0.11143323686E+02  0.10780166853E+02  0.32761036662E+01  0.15846719396E+02  0.51100000000E-03 0. -1.
         12    1    3    3    0    0  0.27898037815E+01  0.10997064668E+02 -0.35937278002E+01  0.11900979622E+02  0.00000000000E+00 0. -1.
</event>
<event>
 7    1  0.2706925E-010  0.4778727E+02  0.7816164E-02  0.1312668E+00
        -11   -1    0    0    0    0  0.00000000000E+00  0.00000000000E+00  0.45593999997E+02  0.45594000000E+02  0.51100000000E-03 0.  1.
         11   -1    0    0    0    0 -0.00000000000E+00 -0.00000000000E+00 -0.45593999997E+02  0.45594000000E+02  0.51100000000E-03 0. -1.
    9900012    2    1    2    0    0  0.27045493351E+02  0.17683093238E+02  0.28973658890E+02  0.47787269516E+02  0.19999993032E+02 0.  0.
         12    1    1    2    0    0 -0.27045493351E+02 -0.17683093238E+02 -0.28973658890E+02  0.43400730484E+02  0.00000000000E+00 0. -1.
         11    1    3    3    0    0  0.11859227157E+01 -0.82684404378E+00  0.10235311120E+02  0.10336908520E+02  0.51100000000E-03 0. -1.
        -11    1    3    3    0    0  0.21951800503E+02  0.16967933422E+02  0.18276991725E+02  0.33224098734E+02  0.51100000000E-03 0.  1.
         12    1    3    3    0    0  0.39077701320E+01  0.15420038594E+01  0.46135604533E+00  0.42262622620E+01  0.00000000000E+00 0. -1.
</event>
<event>
 7    1  0.2706925E-010  0.4778726E+02  0.7816164E-02  0.1312668E+00
        -11   -1    0    0    0    0  0.00000000000E+00  0.00000000000E+00  0.45593999997E+02  0.45594000000E+02  0.51100000000E-03 0. -1.
         11   -1    0    0    0    0 -0.00000000000E+00 -0.00000000000E+00 -0.45593999997E+02  0.45594000000E+02  0.51100000000E-03 0.  1.
    9900012    2    1    2    0    0  0.12425228217E+02 -0.33404174416E+02 -0.24766886619E+02  0.47787264552E+02  0.19999970398E+02 0.  0.
         12    1    1    2    0    0 -0.12425228217E+02  0.33404174416E+02  0.24766886619E+02  0.43400735448E+02  0.00000000000E+00 0. -1.
         11    1    3    3    0    0 -0.11102565475E+01 -0.55738512263E+01 -0.13656627703E+02  0.14792023782E+02  0.51100000000E-03 0. -1.
        -11    1    3    3    0    0  0.11678722309E+02 -0.22287940710E+02 -0.81934462275E+01  0.26462755284E+02  0.51100000000E-03 0.  1.
         12    1    3    3    0    0  0.18567624556E+01 -0.55423824787E+01 -0.29168126887E+01  0.65324854855E+01  0.00000000000E+00 0. -1.
</event>
<event>
 7    1  0.2706925E-010  0.4778727E+02  0.7816164E-02  0.1312668E+00
        -11   -1    0    0    0    0  0.00000000000E+00  0.00000000000E+00  0.45593999997E+02  0.45594000000E+02  0.51100000000E-03 0. -1.
         11   -1    0    0    0    0 -0.00000000000E+00 -0.00000000000E+00 -0.45593999997E+02  0.45594000000E+02  0.51100000000E-03 0.  1.
    9900012    2    1    2    0    0  0.39860324718E+02 -0.15250741153E+02 -0.78862441510E+01  0.47787269140E+02  0.19999991318E+02 0.  0.
         12    1    1    2    0    0 -0.39860324718E+02  0.15250741153E+02  0.78862441510E+01  0.43400730860E+02  0.00000000000E+00 0. -1.
         11    1    3    3    0    0  0.31534945904E+02 -0.17033727645E+02 -0.59633182568E+01  0.36334031644E+02  0.51100000000E-03 0. -1.
        -11    1    3    3    0    0  0.26294077072E+01  0.37250104467E+01  0.11411131003E+01  0.47001730912E+01  0.51100000000E-03 0.  1.
        -12    1    3    3    0    0  0.56959711070E+01 -0.19420239549E+01 -0.30640389944E+01  0.67530644046E+01  0.00000000000E+00 0.  1.
</event>
<event>
 7    1  0.2706925E-010  0.4778727E+02  0.7816164E-02  0.1312668E+00
        -11   -1    0    0    0    0  0.00000000000E+00  0.00000000000E+00  0.45593999997E+02  0.45594000000E+02  0.51100000000E-03 0. -1.
         11   -1    0    0    0    0 -0.00000000000E+00 -0.00000000000E+00 -0.45593999997E+02  0.45594000000E+02  0.51100000000E-03 0.  1.
    9900012    2    1    2    0    0 -0.41959641693E+02  0.10090041464E+02  0.46046427060E+01  0.47787271870E+02  0.20000003764E+02 0.  0.
         12    1    1    2    0    0  0.41959641693E+02 -0.10090041464E+02 -0.46046427060E+01  0.43400728130E+02  0.00000000000E+00 0. -1.
         11    1    3    3    0    0 -0.55936104367E+01  0.35965293261E+01  0.68027101096E+01  0.95131680321E+01  0.51100000000E-03 0. -1.
        -11    1    3    3    0    0 -0.33918076189E+02  0.31617622355E+01 -0.16685954826E+01  0.34105964932E+02  0.51100000000E-03 0.  1.
         12    1    3    3    0    0 -0.24479550675E+01  0.33317499024E+01 -0.52947192097E+00  0.41681389060E+01  0.00000000000E+00 0. -1.
</event>
<event>
 7    1  0.2706925E-010  0.4778726E+02  0.7816164E-02  0.1312668E+00
        -11   -1    0    0    0    0  0.00000000000E+00  0.00000000000E+00  0.45593999997E+02  0.45594000000E+02  0.51100000000E-03 0.  1.
         11   -1    0    0    0    0 -0.00000000000E+00 -0.00000000000E+00 -0.45593999997E+02  0.45594000000E+02  0.51100000000E-03 0. -1.
    9900012    2    1    2    0    0  0.40312857525E+02  0.15552433220E+02 -0.40766889761E+01  0.47787262058E+02  0.19999959027E+02 0.  0.
         12    1    1    2    0    0 -0.40312857525E+02 -0.15552433220E+02  0.40766889761E+01  0.43400737942E+02  0.00000000000E+00 0. -1.
         11    1    3    3    0    0  0.26104876449E+02  0.45873382473E+01 -0.35217993759E+01  0.26737825598E+02  0.51100000000E-03 0. -1.
        -11    1    3    3    0    0  0.12877053336E+02  0.12721928579E+02  0.13285962695E+01  0.18150237952E+02  0.51100000000E-03 0.  1.
         12    1    3    3    0    0  0.13309277404E+01 -0.17568336063E+01 -0.18834858696E+01  0.28991985085E+01  0.00000000000E+00 0. -1.
</event>
<event>
 7    1  0.2706925E-010  0.4778727E+02  0.7816164E-02  0.1312668E+00
        -11   -1    0    0    0    0  0.00000000000E+00  0.00000000000E+00  0.45593999997E+02  0.45594000000E+02  0.51100000000E-03 0.  1.
         11   -1    0    0    0    0 -0.00000000000E+00 -0.00000000000E+00 -0.45593999997E+02  0.45594000000E+02  0.51100000000E-03 0. -1.
    9900012    2    1    2    0    0 -0.71346941393E+01  0.14721239643E+02  0.40199562037E+02  0.47787267921E+02  0.19999985757E+02 0.  0.
         12    1    1    2    0    0  0.71346941393E+01 -0.14721239643E+02 -0.40199562037E+02  0.43400732079E+02  0.00000000000E+00 0. -1.
         11    1    3    3    0    0  0.22342132437E+01 -0.35572529418E+00  0.39598388612E+01  0.45605452932E+01  0.51100000000E-03 0. -1.
        -11    1    3    3    0    0  0.55701573812E+00  0.83060116283E+01  0.26446804118E+02  0.27726044507E+02  0.51100000000E-03 0.  1.
        -12    1    3    3    0    0 -0.99259231211E+01  0.67709533090E+01  0.97929190579E+01  0.15500678120E+02  0.00000000000E+00 0.  1.
</event>
<event>
 7    1  0.2706925E-010  0.4778727E+02  0.7816164E-02  0.1312668E+00
        -11   -1    0    0    0    0  0.00000000000E+00  0.00000000000E+00  0.45593999997E+02  0.45594000000E+02  0.51100000000E-03 0.  1.
         11   -1    0    0    0    0 -0.00000000000E+00 -0.00000000000E+00 -0.45593999997E+02  0.45594000000E+02  0.51100000000E-03 0. -1.
    9900012    2    1    2    0    0 -0.93628569172E+01 -0.41826393483E+02  0.68200356358E+01  0.47787272270E+02  0.20000005586E+02 0.  0.
         12    1    1    2    0    0  0.93628569172E+01  0.41826393483E+02 -0.68200356358E+01  0.43400727730E+02  0.00000000000E+00 0. -1.
         11    1    3    3    0    0  0.28511437254E+01 -0.73207441631E+01 -0.22571223440E+01  0.81741615583E+01  0.51100000000E-03 0. -1.
        -11    1    3    3    0    0 -0.50124271497E+01 -0.11505298907E+02  0.91167426325E+01  0.15511651278E+02  0.51100000000E-03 0.  1.
        -12    1    3    3    0    0 -0.72015734929E+01 -0.23000350413E+02 -0.39584652658E-01  0.24101459434E+02  0.00000000000E+00 0.  1.
</event>
<event>
 7    1  0.2706925E-010  0.4778730E+02  0.7816164E-02  0.1312668E+00
        -11   -1    0    0    0    0  0.00000000000E+00  0.00000000000E+00  0.45593999997E+02  0.45594000000E+02  0.51100000000E-03 0.  1.
         11   -1    0    0    0    0 -0.00000000000E+00 -0.00000000000E+00 -0.45593999997E+02  0.45594000000E+02  0.51100000000E-03 0. -1.
    9900012    2    1    2    0    0  0.16619441538E+02 -0.44961698932E+01  0.39839669684E+02  0.47787301143E+02  0.20000137231E+02 0.  0.
         12    1    1    2    0    0 -0.16619441538E+02  0.44961698932E+01 -0.39839669684E+02  0.43400698857E+02  0.00000000000E+00 0. -1.
         11    1    3    3    0    0  0.59807985519E+01 -0.88059580284E+00  0.47896389095E+00  0.60642235246E+01  0.51100000000E-03 0. -1.
        -11    1    3    3    0    0  0.11393956180E+02 -0.13763103921E+01  0.32563262672E+02  0.34526548392E+02  0.51100000000E-03 0.  1.
         12    1    3    3    0    0 -0.75531319323E+00 -0.22392636982E+01  0.67974431207E+01  0.71965292266E+01  0.00000000000E+00 0. -1.
</event>
<event>
 7    1  0.2706925E-010  0.4778727E+02  0.7816164E-02  0.1312668E+00
        -11   -1    0    0    0    0  0.00000000000E+00  0.00000000000E+00  0.45593999997E+02  0.45594000000E+02  0.51100000000E-03 0.  1.
         11   -1    0    0    0    0 -0.00000000000E+00 -0.00000000000E+00 -0.45593999997E+02  0.45594000000E+02  0.51100000000E-03 0. -1.
    9900012    2    1    2    0    0  0.36948800597E+02  0.19314111607E+02  0.12057131260E+02  0.47787272046E+02  0.20000004566E+02 0.  0.
         12    1    1    2    0    0 -0.36948800597E+02 -0.19314111607E+02 -0.12057131260E+02  0.43400727954E+02  0.00000000000E+00 0. -1.
         11    1    3    3    0    0 -0.10608397561E+00  0.19299104200E+00  0.35409690782E+00  0.41699428464E+00  0.51100000000E-03 0. -1.
        -11    1    3    3    0    0  0.13073184703E+02  0.43543013887E+01  0.13314158772E+02  0.19160765197E+02  0.51100000000E-03 0.  1.
        -12    1    3    3    0    0  0.23981699870E+02  0.14766819176E+02 -0.16111244200E+01  0.28209512564E+02  0.00000000000E+00 0.  1.
</event>
<event>
 7    1  0.2706925E-010  0.4778727E+02  0.7816164E-02  0.1312668E+00
        -11   -1    0    0    0    0  0.00000000000E+00  0.00000000000E+00  0.45593999997E+02  0.45594000000E+02  0.51100000000E-03 0.  1.
         11   -1    0    0    0    0 -0.00000000000E+00 -0.00000000000E+00 -0.45593999997E+02  0.45594000000E+02  0.51100000000E-03 0. -1.
    9900012    2    1    2    0    0 -0.29434474325E+02  0.23603855235E+02  0.21449774229E+02  0.47787273333E+02  0.20000010434E+02 0.  0.
         12    1    1    2    0    0  0.29434474325E+02 -0.23603855235E+02 -0.21449774229E+02  0.43400726667E+02  0.00000000000E+00 0. -1.
         11    1    3    3    0    0 -0.16050841798E+02  0.28115228553E+01  0.31109835171E+01  0.16589526874E+02  0.51100000000E-03 0. -1.
        -11    1    3    3    0    0 -0.12652146600E+02  0.18289100760E+02  0.14469971777E+02  0.26532020348E+02  0.51100000000E-03 0.  1.
         12    1    3    3    0    0 -0.73148592648E+00  0.25032316197E+01  0.38688189343E+01  0.46657261116E+01  0.00000000000E+00 0. -1.
</event>
<event>
 7    1  0.2706925E-010  0.4778727E+02  0.7816164E-02  0.1312668E+00
        -11   -1    0    0    0    0  0.00000000000E+00  0.00000000000E+00  0.45593999997E+02  0.45594000000E+02  0.51100000000E-03 0. -1.
         11   -1    0    0    0    0 -0.00000000000E+00 -0.00000000000E+00 -0.45593999997E+02  0.45594000000E+02  0.51100000000E-03 0.  1.
    9900012    2    1    2    0    0  0.36797279570E+02 -0.17928564331E+02 -0.14427407399E+02  0.47787270893E+02  0.19999999311E+02 0.  0.
         12    1    1    2    0    0 -0.36797279570E+02  0.17928564331E+02  0.14427407399E+02  0.43400729107E+02  0.00000000000E+00 0. -1.
         11    1    3    3    0    0  0.11932877911E+02 -0.82049126411E+01 -0.13097869456E+02  0.19526094111E+02  0.51100000000E-03 0. -1.
        -11    1    3    3    0    0  0.48263441628E+01 -0.16257610000E+01 -0.40114389094E+01  0.64829267458E+01  0.51100000000E-03 0.  1.
         12    1    3    3    0    0  0.20038057496E+02 -0.80978906902E+01  0.26819009663E+01  0.21778250036E+02  0.00000000000E+00 0. -1.
</event>
<event>
 7    1  0.3093382E-010  0.4778727E+02  0.7816164E-02  0.1312668E+00
        -11   -1    0    0    0    0  0.00000000000E+00  0.00000000000E+00  0.45593999997E+02  0.45594000000E+02  0.51100000000E-03 0. -1.
         11   -1    0    0    0    0 -0.00000000000E+00 -0.00000000000E+00 -0.45593999997E+02  0.45594000000E+02  0.51100000000E-03 0.  1.
    9900012    2    1    2    0    0  0.37714868309E+02 -0.17135978033E+02 -0.12944896597E+02  0.47787269792E+02  0.19999994289E+02 0.  0.
         12    1    1    2    0    0 -0.37714868309E+02  0.17135978033E+02  0.12944896597E+02  0.43400730208E+02  0.00000000000E+00 0. -1.
         11    1    3    3    0    0  0.12087750905E+01 -0.43796476522E+00 -0.45809768676E+01  0.47579722232E+01  0.51100000000E-03 0. -1.
        -11    1    3    3    0    0  0.19413508856E+02 -0.14298757116E+02 -0.63929898710E+00  0.24119442046E+02  0.51100000000E-03 0.  1.
        -12    1    3    3    0    0  0.17092584362E+02 -0.23992561513E+01 -0.77246207422E+01  0.18909855522E+02  0.00000000000E+00 0.  1.
</event>
<event>
 7    1  0.2706925E-010  0.4778727E+02  0.7816164E-02  0.1312668E+00
        -11   -1    0    0    0    0  0.00000000000E+00  0.00000000000E+00  0.45593999997E+02  0.45594000000E+02  0.51100000000E-03 0.  1.
         11   -1    0    0    0    0 -0.00000000000E+00 -0.00000000000E+00 -0.45593999997E+02  0.45594000000E+02  0.51100000000E-03 0. -1.
    9900012    2    1    2    0    0  0.13330166043E+02 -0.36192626664E+02  0.19900344643E+02  0.47787271106E+02  0.20000000282E+02 0.  0.
         12    1    1    2    0    0 -0.13330166043E+02  0.36192626664E+02 -0.19900344643E+02  0.43400728894E+02  0.00000000000E+00 0. -1.
         11    1    3    3    0    0 -0.11981623162E+01 -0.50606670887E+01  0.85165169520E+01  0.99788278657E+01  0.51100000000E-03 0. -1.
        -11    1    3    3    0    0 -0.66430897669E+00 -0.41980942277E+01  0.43773366818E+01  0.61013423317E+01  0.51100000000E-03 0.  1.
         12    1    3    3    0    0  0.15192637336E+02 -0.26933865348E+02  0.70064910095E+01  0.31707100909E+02  0.00000000000E+00 0. -1.
</event>
<event>
 7    1  0.2706925E-010  0.4778727E+02  0.7816164E-02  0.1312668E+00
        -11   -1    0    0    0    0  0.00000000000E+00  0.00000000000E+00  0.45593999997E+02  0.45594000000E+02  0.51100000000E-03 0. -1.
         11   -1    0    0    0    0 -0.00000000000E+00 -0.00000000000E+00 -0.45593999997E+02  0.45594000000E+02  0.51100000000E-03 0.  1.
    9900012    2    1    2    0    0 -0.25642257665E+02 -0.24173628752E+02 -0.25332466689E+02  0.47787267590E+02  0.19999984249E+02 0.  0.
         12    1    1    2    0    0  0.25642257665E+02  0.24173628752E+02  0.25332466689E+02  0.43400732410E+02  0.00000000000E+00 0. -1.
         11    1    3    3    0    0 -0.41275253377E+01 -0.53913548464E+01 -0.14969163412E+02  0.16437123410E+02  0.51100000000E-03 0. -1.
        -11    1    3    3    0    0 -0.97786276970E+01 -0.48424633469E+01 -0.12721458546E+01  0.10985871210E+02  0.51100000000E-03 0.  1.
         12    1    3    3    0    0 -0.11736104630E+02 -0.13939810558E+02 -0.90911574230E+01  0.20364272970E+02  0.00000000000E+00 0. -1.
</event>
<event>
 7    1  0.2706925E-010  0.4778727E+02  0.7816164E-02  0.1312668E+00
        -11   -1    0    0    0    0  0.00000000000E+00  0.00000000000E+00  0.45593999997E+02  0.45594000000E+02  0.51100000000E-03 0.  1.
         11   -1    0    0    0    0 -0.00000000000E+00 -0.00000000000E+00 -0.45593999997E+02  0.45594000000E+02  0.51100000000E-03 0. -1.
    9900012    2    1    2    0    0 -0.49213743692E+01 -0.12044740865E+02  0.41404436122E+02  0.47787273753E+02  0.20000012348E+02 0.  0.
         12    1    1    2    0    0  0.49213743692E+01  0.12044740865E+02 -0.41404436122E+02  0.43400726247E+02  0.00000000000E+00 0. -1.
         11    1    3    3    0    0 -0.46581922706E+01 -0.49843532529E+01  0.61734796753E+01  0.92007817137E+01  0.51100000000E-03 0. -1.
        -11    1    3    3    0    0  0.46888558131E+01 -0.41291694537E+01  0.30510244854E+02  0.31143385341E+02  0.51100000000E-03 0.  1.
        -12    1    3    3    0    0 -0.49520379117E+01 -0.29312181582E+01  0.47207115930E+01  0.74431066978E+01  0.00000000000E+00 0.  1.
</event>
<event>
 7    1  0.2706925E-010  0.4778727E+02  0.7816164E-02  0.1312668E+00
        -11   -1    0    0    0    0  0.00000000000E+00  0.00000000000E+00  0.45593999997E+02  0.45594000000E+02  0.51100000000E-03 0.  1.
         11   -1    0    0    0    0 -0.00000000000E+00 -0.00000000000E+00 -0.45593999997E+02  0.45594000000E+02  0.51100000000E-03 0. -1.
    9900012    2    1    2    0    0 -0.10892729833E+02  0.26530614372E+01  0.41927711409E+02  0.47787270949E+02  0.19999999565E+02 0.  0.
         12    1    1    2    0    0  0.10892729833E+02 -0.26530614372E+01 -0.41927711409E+02  0.43400729051E+02  0.00000000000E+00 0. -1.
         11    1    3    3    0    0 -0.10372687114E+02  0.21326040975E+01  0.86816711854E+01  0.13693504045E+02  0.51100000000E-03 0. -1.
        -11    1    3    3    0    0  0.96759395546E+00 -0.23826010128E+01  0.46621582775E+01  0.53243540185E+01  0.51100000000E-03 0.  1.
         12    1    3    3    0    0 -0.14876366738E+01  0.29030583525E+01  0.28583881946E+02  0.28769412885E+02  0.00000000000E+00 0. -1.
</event>
<event>
 7    1  0.2706925E-010  0.4778729E+02  0.7816164E-02  0.1312668E+00
        -11   -1    0    0    0    0  0.00000000000E+00  0.00000000000E+00  0.45593999997E+02  0.45594000000E+02  0.51100000000E-03 0.  1.
         11   -1    0    0    0    0 -0.00000000000E+00 -0.00000000000E+00 -0.45593999997E+02  0.45594000000E+02  0.51100000000E-03 0. -1.
    9900012    2    1    2    0    0  0.33181703936E+02 -0.19301915092E+02  0.20249257500E+02  0.47787287660E+02  0.20000075759E+02 0.  0.
         12    1    1    2    0    0 -0.33181703936E+02  0.19301915092E+02 -0.20249257500E+02  0.43400712340E+02  0.00000000000E+00 0. -1.
         11    1    3    3    0    0  0.15534684105E+02 -0.16590280892E+02  0.63285279913E+01  0.23592670411E+02  0.51100000000E-03 0. -1.
        -11    1    3    3    0    0  0.24809911220E+01  0.23032767020E+01  0.45633965067E+01  0.56819880721E+01  0.51100000000E-03 0.  1.
         12    1    3    3    0    0  0.15166028709E+02 -0.50149109014E+01  0.93573330018E+01  0.18512629177E+02  0.00000000000E+00 0. -1.
</event>
<event>
 7    1  0.2706925E-010  0.4778727E+02  0.7816164E-02  0.1312668E+00
        -11   -1    0    0    0    0  0.00000000000E+00  0.00000000000E+00  0.45593999997E+02  0.45594000000E+02  0.51100000000E-03 0. -1.
         11   -1    0    0    0    0 -0.00000000000E+00 -0.00000000000E+00 -0.45593999997E+02  0.45594000000E+02  0.51100000000E-03 0.  1.
    9900012    2    1    2    0    0 -0.37292976697E+01 -0.39478974870E+02 -0.17638767337E+02  0.47787271538E+02  0.20000002251E+02 0.  0.
         12    1    1    2    0    0  0.37292976697E+01  0.39478974870E+02  0.17638767337E+02  0.43400728462E+02  0.00000000000E+00 0. -1.
         11    1    3    3    0    0 -0.54796505536E+01 -0.71481941536E+01 -0.49142434338E+01  0.10260265037E+02  0.51100000000E-03 0. -1.
        -11    1    3    3    0    0 -0.59529620159E+01 -0.98454147852E+01 -0.48834191628E+01  0.12498709215E+02  0.51100000000E-03 0.  1.
        -12    1    3    3    0    0  0.77033148998E+01 -0.22485365931E+02 -0.78411047402E+01  0.25028297286E+02  0.00000000000E+00 0.  1.
</event>
<event>
 7    1  0.2706925E-010  0.4778727E+02  0.7816164E-02  0.1312668E+00
        -11   -1    0    0    0    0  0.00000000000E+00  0.00000000000E+00  0.45593999997E+02  0.45594000000E+02  0.51100000000E-03 0.  1.
         11   -1    0    0    0    0 -0.00000000000E+00 -0.00000000000E+00 -0.45593999997E+02  0.45594000000E+02  0.51100000000E-03 0. -1.
    9900012    2    1    2    0    0 -0.35248620653E+01 -0.37296320048E+02  0.21913080355E+02  0.47787271523E+02  0.20000002183E+02 0.  0.
         12    1    1    2    0    0  0.35248620653E+01  0.37296320048E+02 -0.21913080355E+02  0.43400728477E+02  0.00000000000E+00 0. -1.
         11    1    3    3    0    0  0.31462723302E+01 -0.13857066255E+02  0.59330329375E+01  0.15398642631E+02  0.51100000000E-03 0. -1.
        -11    1    3    3    0    0 -0.10863158079E+02 -0.19506195467E+02  0.11592199936E+02  0.25157085774E+02  0.51100000000E-03 0.  1.
        -12    1    3    3    0    0  0.41920236831E+01 -0.39330583261E+01  0.43878474813E+01  0.72315431185E+01  0.00000000000E+00 0.  1.
</event>
<event>
 7    1  0.2706925E-010  0.4778727E+02  0.7816164E-02  0.1312668E+00
        -11   -1    0    0    0    0  0.00000000000E+00  0.00000000000E+00  0.45593999997E+02  0.45594000000E+02  0.51100000000E-03 0. -1.
         11   -1    0    0    0    0 -0.00000000000E+00 -0.00000000000E+00 -0.45593999997E+02  0.45594000000E+02  0.51100000000E-03 0.  1.
    9900012    2    1    2    0    0  0.26384571650E+02 -0.30014195007E+02  0.16930023404E+02  0.47787271717E+02  0.20000003065E+02 0.  0.
         12    1    1    2    0    0 -0.26384571650E+02  0.30014195007E+02 -0.16930023404E+02  0.43400728283E+02  0.00000000000E+00 0. -1.
         11    1    3    3    0    0  0.11359100384E+02 -0.26873466024E+01  0.70611094743E+01  0.13642223447E+02  0.51100000000E-03 0. -1.
        -11    1    3    3    0    0  0.25713762825E+01 -0.11479223587E+02  0.14083669393E+00  0.11764539319E+02  0.51100000000E-03 0.  1.
         12    1    3    3    0    0  0.12454094983E+02 -0.15847624817E+02  0.97280772354E+01  0.22380508951E+02  0.00000000000E+00 0. -1.
</event>
<event>
 7    1  0.2706925E-010  0.4778727E+02  0.7816164E-02  0.1312668E+00
        -11   -1    0    0    0    0  0.00000000000E+00  0.00000000000E+00  0.45593999997E+02  0.45594000000E+02  0.51100000000E-03 0.  1.
         11   -1    0    0    0    0 -0.00000000000E+00 -0.00000000000E+00 -0.45593999997E+02  0.45594000000E+02  0.51100000000E-03 0. -1.
    9900012    2    1    2    0    0  0.80583537410E+01  0.42071008376E+02  0.69797157023E+01  0.47787271411E+02  0.20000001670E+02 0.  0.
         12    1    1    2    0    0 -0.80583537410E+01 -0.42071008376E+02 -0.69797157023E+01  0.43400728589E+02  0.00000000000E+00 0. -1.
         11    1    3    3    0    0 -0.36437588400E+00 -0.14931901309E+01  0.40889486749E-01  0.15375495970E+01  0.51100000000E-03 0. -1.
        -11    1    3    3    0    0  0.58814047131E+01  0.89899288758E+01  0.39788480229E+01  0.11456045323E+02  0.51100000000E-03 0.  1.
         12    1    3    3    0    0  0.25413249120E+01  0.34574269631E+02  0.29599781926E+01  0.34793676491E+02  0.00000000000E+00 0. -1.
</event>
<event>
 7    1  0.2706925E-010  0.4778727E+02  0.7816164E-02  0.1312668E+00
        -11   -1    0    0    0    0  0.00000000000E+00  0.00000000000E+00  0.45593999997E+02  0.45594000000E+02  0.51100000000E-03 0.  1.
         11   -1    0    0    0    0 -0.00000000000E+00 -0.00000000000E+00 -0.45593999997E+02  0.45594000000E+02  0.51100000000E-03 0. -1.
    9900012    2    1    2    0    0 -0.29879842847E+01  0.18696184237E+02  0.39053138119E+02  0.47787274752E+02  0.20000016905E+02 0.  0.
         12    1    1    2    0    0  0.29879842847E+01 -0.18696184237E+02 -0.39053138119E+02  0.43400725248E+02  0.00000000000E+00 0. -1.
         11    1    3    3    0    0 -0.30909855315E+01  0.14693929414E+02  0.33735410833E+02  0.36926192568E+02  0.51100000000E-03 0.  1.
        -11    1    3    3    0    0  0.27494992106E+01  0.46298123717E+01  0.59949185022E+01  0.80581608705E+01  0.51100000000E-03 0. -1.
         12    1    3    3    0    0 -0.26464979638E+01 -0.62755754822E+00 -0.67719121691E+00  0.28029213141E+01  0.00000000000E+00 0. -1.
</event>
<event>
 7    1  0.2706925E-010  0.4778727E+02  0.7816164E-02  0.1312668E+00
        -11   -1    0    0    0    0  0.00000000000E+00  0.00000000000E+00  0.45593999997E+02  0.45594000000E+02  0.51100000000E-03 0.  1.
         11   -1    0    0    0    0 -0.00000000000E+00 -0.00000000000E+00 -0.45593999997E+02  0.45594000000E+02  0.51100000000E-03 0. -1.
    9900012    2    1    2    0    0 -0.21798657581E+01 -0.30183354113E+02  0.31110073699E+02  0.47787269986E+02  0.19999995173E+02 0.  0.
         12    1    1    2    0    0  0.21798657581E+01  0.30183354113E+02 -0.31110073699E+02  0.43400730014E+02  0.00000000000E+00 0. -1.
         11    1    3    3    0    0 -0.89300715394E+01 -0.27196170057E+02  0.26849895397E+02  0.39246588725E+02  0.51100000000E-03 0. -1.
        -11    1    3    3    0    0  0.35385023653E+00 -0.14808061731E+00  0.37484384379E+00  0.53632641876E+00  0.51100000000E-03 0.  1.
         12    1    3    3    0    0  0.63963555447E+01 -0.28391034392E+01  0.38853344582E+01  0.80043548425E+01  0.00000000000E+00 0. -1.
</event>
<event>
 7    1  0.2706925E-010  0.4778727E+02  0.7816164E-02  0.1312668E+00
        -11   -1    0    0    0    0  0.00000000000E+00  0.00000000000E+00  0.45593999997E+02  0.45594000000E+02  0.51100000000E-03 0. -1.
         11   -1    0    0    0    0 -0.00000000000E+00 -0.00000000000E+00 -0.45593999997E+02  0.45594000000E+02  0.51100000000E-03 0.  1.
    9900012    2    1    2    0    0  0.10659217823E+02 -0.31097249484E+02 -0.28336641515E+02  0.47787273019E+02  0.20000009004E+02 0.  0.
         12    1    1    2    0    0 -0.10659217823E+02  0.31097249484E+02  0.28336641515E+02  0.43400726981E+02  0.00000000000E+00 0. -1.
         11    1    3    3    0    0  0.11629233729E+02 -0.11391267584E+02 -0.18026439540E+02  0.24288939397E+02  0.51100000000E-03 0. -1.
        -11    1    3    3    0    0 -0.13588012144E+01 -0.12934566161E+02 -0.26610480367E+01  0.13275184346E+02  0.51100000000E-03 0.  1.
        -12    1    3    3    0    0  0.38878530805E+00 -0.67714157394E+01 -0.76491539391E+01  0.10223149276E+02  0.00000000000E+00 0.  1.
</event>
<event>
 7    1  0.2706925E-010  0.4778727E+02  0.7816164E-02  0.1312668E+00
        -11   -1    0    0    0    0  0.00000000000E+00  0.00000000000E+00  0.45593999997E+02  0.45594000000E+02  0.51100000000E-03 0.  1.
         11   -1    0    0    0    0 -0.00000000000E+00 -0.00000000000E+00 -0.45593999997E+02  0.45594000000E+02  0.51100000000E-03 0. -1.
    9900012    2    1    2    0    0  0.20011524650E+02 -0.35176396675E+02  0.15677481429E+02  0.47787269294E+02  0.19999992019E+02 0.  0.
         12    1    1    2    0    0 -0.20011524650E+02  0.35176396675E+02 -0.15677481429E+02  0.43400730706E+02  0.00000000000E+00 0. -1.
         11    1    3    3    0    0  0.19097865756E+01  0.48262999146E+00 -0.28641155791E+01  0.34761148981E+01  0.51100000000E-03 0. -1.
        -11    1    3    3    0    0  0.11251728380E+02 -0.23497727440E+02  0.14320121270E+02  0.29728949860E+02  0.51100000000E-03 0.  1.
         12    1    3    3    0    0  0.68500096944E+01 -0.12161299227E+02  0.42214757380E+01  0.14582204535E+02  0.00000000000E+00 0. -1.
</event>
<event>
 7    1  0.2706925E-010  0.4778727E+02  0.7816164E-02  0.1312668E+00
        -11   -1    0    0    0    0  0.00000000000E+00  0.00000000000E+00  0.45593999997E+02  0.45594000000E+02  0.51100000000E-03 0. -1.
         11   -1    0    0    0    0 -0.00000000000E+00 -0.00000000000E+00 -0.45593999997E+02  0.45594000000E+02  0.51100000000E-03 0.  1.
    9900012    2    1    2    0    0 -0.12244796450E+02  0.31440773529E+02 -0.27297731456E+02  0.47787269328E+02  0.19999992173E+02 0.  0.
         12    1    1    2    0    0  0.12244796450E+02 -0.31440773529E+02  0.27297731456E+02  0.43400730672E+02  0.00000000000E+00 0. -1.
         11    1    3    3    0    0  0.22264715581E+01  0.15768479048E+01  0.10065854651E+01  0.29080645581E+01  0.51100000000E-03 0. -1.
        -11    1    3    3    0    0 -0.12302574297E+02  0.13281900334E+02 -0.14867944507E+02  0.23426864599E+02  0.51100000000E-03 0.  1.
         12    1    3    3    0    0 -0.21686937118E+01  0.16582025291E+02 -0.13436372414E+02  0.21452340170E+02  0.00000000000E+00 0. -1.
</event>
<event>
 7    1  0.2706925E-010  0.4778727E+02  0.7816164E-02  0.1312668E+00
        -11   -1    0    0    0    0  0.00000000000E+00  0.00000000000E+00  0.45593999997E+02  0.45594000000E+02  0.51100000000E-03 0.  1.
         11   -1    0    0    0    0 -0.00000000000E+00 -0.00000000000E+00 -0.45593999997E+02  0.45594000000E+02  0.51100000000E-03 0. -1.
    9900012    2    1    2    0    0  0.26004933664E+02  0.10166953395E+02  0.33226491740E+02  0.47787271094E+02  0.20000000228E+02 0.  0.
         12    1    1    2    0    0 -0.26004933664E+02 -0.10166953395E+02 -0.33226491740E+02  0.43400728906E+02  0.00000000000E+00 0. -1.
         11    1    3    3    0    0  0.66722019351E+01  0.55965676226E+01  0.29453956387E+01  0.91932150821E+01  0.51100000000E-03 0. -1.
        -11    1    3    3    0    0  0.20318335049E+02  0.27302253529E+01  0.22073720691E+02  0.30125371617E+02  0.51100000000E-03 0.  1.
        -12    1    3    3    0    0 -0.98560332001E+00  0.18401604196E+01  0.82073754100E+01  0.84686843958E+01  0.00000000000E+00 0.  1.
</event>
<event>
 7    1  0.2855790E-010  0.4778727E+02  0.7816164E-02  0.1312668E+00
        -11   -1    0    0    0    0  0.00000000000E+00  0.00000000000E+00  0.45593999997E+02  0.45594000000E+02  0.51100000000E-03 0.  1.
         11   -1    0    0    0    0 -0.00000000000E+00 -0.00000000000E+00 -0.45593999997E+02  0.45594000000E+02  0.51100000000E-03 0. -1.
    9900012    2    1    2    0    0  0.31752371378E+02 -0.14354279404E+02  0.25872087865E+02  0.47787270100E+02  0.19999995695E+02 0.  0.
         12    1    1    2    0    0 -0.31752371378E+02  0.14354279404E+02 -0.25872087865E+02  0.43400729900E+02  0.00000000000E+00 0. -1.
         11    1    3    3    0    0  0.14842464863E+01  0.26439936165E+00 -0.19501505247E+01  0.24649507064E+01  0.51100000000E-03 0. -1.
        -11    1    3    3    0    0  0.19506240771E+02 -0.15590947979E+02  0.19525287595E+02  0.31698705712E+02  0.51100000000E-03 0.  1.
        -12    1    3    3    0    0  0.10761884121E+02  0.97226921380E+00  0.82969507944E+01  0.13623613681E+02  0.00000000000E+00 0.  1.
</event>
<event>
 7    1  0.2706925E-010  0.4778728E+02  0.7816164E-02  0.1312668E+00
        -11   -1    0    0    0    0  0.00000000000E+00  0.00000000000E+00  0.45593999997E+02  0.45594000000E+02  0.51100000000E-03 0. -1.
         11   -1    0    0    0    0 -0.00000000000E+00 -0.00000000000E+00 -0.45593999997E+02  0.45594000000E+02  0.51100000000E-03 0.  1.
    9900012    2    1    2    0    0 -0.99992272994E+01 -0.40507330686E+02 -0.11949655743E+02  0.47787278137E+02  0.20000032336E+02 0.  0.
         12    1    1    2    0    0  0.99992272994E+01  0.40507330686E+02  0.11949655743E+02  0.43400721863E+02  0.00000000000E+00 0. -1.
         11    1    3    3    0    0  0.24546459149E+01 -0.18656010689E+02 -0.35950007606E+01  0.19157141022E+02  0.51100000000E-03 0. -1.
        -11    1    3    3    0    0 -0.11795361297E+02 -0.16362172262E+02 -0.10451299262E+02  0.22717413712E+02  0.51100000000E-03 0.  1.
        -12    1    3    3    0    0 -0.65851191769E+00 -0.54891477351E+01  0.20966442793E+01  0.59127234027E+01  0.00000000000E+00 0.  1.
</event>
<event>
 7    1  0.2706925E-010  0.4778727E+02  0.7816164E-02  0.1312668E+00
        -11   -1    0    0    0    0  0.00000000000E+00  0.00000000000E+00  0.45593999997E+02  0.45594000000E+02  0.51100000000E-03 0.  1.
         11   -1    0    0    0    0 -0.00000000000E+00 -0.00000000000E+00 -0.45593999997E+02  0.45594000000E+02  0.51100000000E-03 0. -1.
    9900012    2    1    2    0    0 -0.16162155499E+02 -0.30907604876E+02  0.25828820752E+02  0.47787270848E+02  0.19999999103E+02 0.  0.
         12    1    1    2    0    0  0.16162155499E+02  0.30907604876E+02 -0.25828820752E+02  0.43400729152E+02  0.00000000000E+00 0. -1.
         11    1    3    3    0    0  0.21682205753E+01 -0.22589574971E+00 -0.30542768277E+00  0.22012486646E+01  0.51100000000E-03 0. -1.
        -11    1    3    3    0    0 -0.14271083748E+02 -0.21372567683E+02  0.12480421166E+02  0.28569413600E+02  0.51100000000E-03 0.  1.
        -12    1    3    3    0    0 -0.40592923264E+01 -0.93091414427E+01  0.13653827268E+02  0.17016608583E+02  0.00000000000E+00 0.  1.
</event>
<event>
 7    1  0.2706925E-010  0.4778727E+02  0.7816164E-02  0.1312668E+00
        -11   -1    0    0    0    0  0.00000000000E+00  0.00000000000E+00  0.45593999997E+02  0.45594000000E+02  0.51100000000E-03 0.  1.
         11   -1    0    0    0    0 -0.00000000000E+00 -0.00000000000E+00 -0.45593999997E+02  0.45594000000E+02  0.51100000000E-03 0. -1.
    9900012    2    1    2    0    0 -0.13082616758E+02 -0.32786669487E+02  0.25248817168E+02  0.47787270448E+02  0.19999997279E+02 0.  0.
         12    1    1    2    0    0  0.13082616758E+02  0.32786669487E+02 -0.25248817168E+02  0.43400729552E+02  0.00000000000E+00 0. -1.
         11    1    3    3    0    0 -0.65005933376E+01 -0.24822959408E+02  0.13761101338E+02  0.29117090133E+02  0.51100000000E-03 0. -1.
        -11    1    3    3    0    0 -0.86259993241E+01 -0.48409488299E+01  0.47615662650E+01  0.10977939855E+02  0.51100000000E-03 0.  1.
        -12    1    3    3    0    0  0.20439759033E+01 -0.31227612488E+01  0.67261495647E+01  0.76922404589E+01  0.00000000000E+00 0.  1.
</event>
<event>
 7    1  0.2706925E-010  0.4778726E+02  0.7816164E-02  0.1312668E+00
        -11   -1    0    0    0    0  0.00000000000E+00  0.00000000000E+00  0.45593999997E+02  0.45594000000E+02  0.51100000000E-03 0. -1.
         11   -1    0    0    0    0 -0.00000000000E+00 -0.00000000000E+00 -0.45593999997E+02  0.45594000000E+02  0.51100000000E-03 0.  1.
    9900012    2    1    2    0    0 -0.28605742253E+02 -0.11849312954E+02 -0.30412648727E+02  0.47787263717E+02  0.19999966591E+02 0.  0.
         12    1    1    2    0    0  0.28605742253E+02  0.11849312954E+02  0.30412648727E+02  0.43400736283E+02  0.00000000000E+00 0. -1.
         11    1    3    3    0    0 -0.47238772002E+01 -0.73323558555E+00  0.22684382313E+01  0.52913573398E+01  0.51100000000E-03 0. -1.
        -11    1    3    3    0    0 -0.52293650196E+01 -0.39702019277E+01 -0.45239061198E+01  0.79733611919E+01  0.51100000000E-03 0.  1.
         12    1    3    3    0    0 -0.18652500033E+02 -0.71458754411E+01 -0.28157180838E+02  0.34522545185E+02  0.00000000000E+00 0. -1.
</event>
<event>
 7    1  0.2706925E-010  0.4778727E+02  0.7816164E-02  0.1312668E+00
        -11   -1    0    0    0    0  0.00000000000E+00  0.00000000000E+00  0.45593999997E+02  0.45594000000E+02  0.51100000000E-03 0.  1.
         11   -1    0    0    0    0 -0.00000000000E+00 -0.00000000000E+00 -0.45593999997E+02  0.45594000000E+02  0.51100000000E-03 0. -1.
    9900012    2    1    2    0    0 -0.25144116538E+02 -0.32757245125E+02  0.13355136140E+02  0.47787269984E+02  0.19999995164E+02 0.  0.
         12    1    1    2    0    0  0.25144116538E+02  0.32757245125E+02 -0.13355136140E+02  0.43400730016E+02  0.00000000000E+00 0. -1.
         11    1    3    3    0    0 -0.52869425382E+01  0.70580484170E+00 -0.20839627445E+01  0.57265017994E+01  0.51100000000E-03 0. -1.
        -11    1    3    3    0    0 -0.12587067703E+02 -0.21261919188E+02  0.76678454995E+01  0.25870820160E+02  0.51100000000E-03 0.  1.
         12    1    3    3    0    0 -0.72701062963E+01 -0.12201130779E+02  0.77712533853E+01  0.16189948024E+02  0.00000000000E+00 0. -1.
</event>
<event>
 7    1  0.2706925E-010  0.4778727E+02  0.7816164E-02  0.1312668E+00
        -11   -1    0    0    0    0  0.00000000000E+00  0.00000000000E+00  0.45593999997E+02  0.45594000000E+02  0.51100000000E-03 0.  1.
         11   -1    0    0    0    0 -0.00000000000E+00 -0.00000000000E+00 -0.45593999997E+02  0.45594000000E+02  0.51100000000E-03 0. -1.
    9900012    2    1    2    0    0  0.22496117804E+02 -0.78511207419E+01  0.36275445182E+02  0.47787270325E+02  0.19999996721E+02 0.  0.
         12    1    1    2    0    0 -0.22496117804E+02  0.78511207419E+01 -0.36275445182E+02  0.43400729675E+02  0.00000000000E+00 0. -1.
         11    1    3    3    0    0  0.66462788049E+01  0.18908286071E+01  0.81484533839E+01  0.10683891968E+02  0.51100000000E-03 0. -1.
        -11    1    3    3    0    0  0.17276112718E+02 -0.57168956640E+01  0.27212412738E+02  0.32736254734E+02  0.51100000000E-03 0.  1.
        -12    1    3    3    0    0 -0.14262737188E+01 -0.40250536850E+01  0.91457905967E+00  0.43671236237E+01  0.00000000000E+00 0.  1.
</event>
<event>
 7    1  0.2706925E-010  0.4778726E+02  0.7816164E-02  0.1312668E+00
        -11   -1    0    0    0    0  0.00000000000E+00  0.00000000000E+00  0.45593999997E+02  0.45594000000E+02  0.51100000000E-03 0.  1.
         11   -1    0    0    0    0 -0.00000000000E+00 -0.00000000000E+00 -0.45593999997E+02  0.45594000000E+02  0.51100000000E-03 0. -1.
    9900012    2    1    2    0    0  0.12280790484E+02 -0.88045569967E+01  0.40685206691E+02  0.47787261731E+02  0.19999957534E+02 0.  0.
         12    1    1    2    0    0 -0.12280790484E+02  0.88045569967E+01 -0.40685206691E+02  0.43400738269E+02  0.00000000000E+00 0. -1.
         11    1    3    3    0    0  0.15152067535E+02 -0.34284500083E+01  0.35133468467E+02  0.38414841232E+02  0.51100000000E-03 0.  1.
        -11    1    3    3    0    0 -0.35074718784E+01 -0.18452230903E+01  0.29493817999E+01  0.49402490315E+01  0.51100000000E-03 0. -1.
        -12    1    3    3    0    0  0.63619482794E+00 -0.35308838981E+01  0.26023564239E+01  0.44321714676E+01  0.00000000000E+00 0.  1.
</event>
<event>
 7    1  0.2706925E-010  0.4778727E+02  0.7816164E-02  0.1312668E+00
        -11   -1    0    0    0    0  0.00000000000E+00  0.00000000000E+00  0.45593999997E+02  0.45594000000E+02  0.51100000000E-03 0.  1.
         11   -1    0    0    0    0 -0.00000000000E+00 -0.00000000000E+00 -0.45593999997E+02  0.45594000000E+02  0.51100000000E-03 0. -1.
    9900012    2    1    2    0    0  0.16514344201E+01 -0.57985624215E+01  0.42979913147E+02  0.47787268486E+02  0.19999988336E+02 0.  0.
         12    1    1    2    0    0 -0.16514344201E+01  0.57985624215E+01 -0.42979913147E+02  0.43400731514E+02  0.00000000000E+00 0. -1.
         11    1    3    3    0    0  0.47001807496E+01 -0.43587724858E+01  0.10160353618E+02  0.12013466717E+02  0.51100000000E-03 0. -1.
        -11    1    3    3    0    0 -0.83956963535E+00  0.61122247023E+01  0.17423460476E+02  0.18483537086E+02  0.51100000000E-03 0.  1.
        -12    1    3    3    0    0 -0.22091766942E+01 -0.75520146380E+01  0.15396099053E+02  0.17290264683E+02  0.00000000000E+00 0.  1.
</event>
<event>
 7    1  0.2707743E-010  0.4778728E+02  0.7816164E-02  0.1312668E+00
        -11   -1    0    0    0    0  0.00000000000E+00  0.00000000000E+00  0.45593999997E+02  0.45594000000E+02  0.51100000000E-03 0.  1.
         11   -1    0    0    0    0 -0.00000000000E+00 -0.00000000000E+00 -0.45593999997E+02  0.45594000000E+02  0.51100000000E-03 0. -1.
    9900012    2    1    2    0    0  0.11430889499E+02  0.29092927770E+02  0.30109113765E+02  0.47787280966E+02  0.20000045236E+02 0.  0.
         12    1    1    2    0    0 -0.11430889499E+02 -0.29092927770E+02 -0.30109113765E+02  0.43400719034E+02  0.00000000000E+00 0. -1.
         11    1    3    3    0    0  0.24070556508E+01  0.16947683841E+01  0.29495881617E+00  0.29585736000E+01  0.51100000000E-03 0. -1.
        -11    1    3    3    0    0 -0.11510450901E+01  0.47389662037E+01 -0.12699595399E+01  0.50393951000E+01  0.51100000000E-03 0.  1.
        -12    1    3    3    0    0  0.10174878938E+02  0.22659193182E+02  0.31084114489E+02  0.39789312266E+02  0.00000000000E+00 0.  1.
</event>
<event>
 7    1  0.2706925E-010  0.4778730E+02  0.7816164E-02  0.1312668E+00
        -11   -1    0    0    0    0  0.00000000000E+00  0.00000000000E+00  0.45593999997E+02  0.45594000000E+02  0.51100000000E-03 0.  1.
         11   -1    0    0    0    0 -0.00000000000E+00 -0.00000000000E+00 -0.45593999997E+02  0.45594000000E+02  0.51100000000E-03 0. -1.
    9900012    2    1    2    0    0 -0.36056119685E+02  0.43559988430E+01  0.23761369141E+02  0.47787295443E+02  0.20000111241E+02 0.  0.
         12    1    1    2    0    0  0.36056119685E+02 -0.43559988430E+01 -0.23761369141E+02  0.43400704557E+02  0.00000000000E+00 0. -1.
         11    1    3    3    0    0 -0.26310913192E+01 -0.21044703305E+01 -0.13419839028E+01  0.36266179780E+01  0.51100000000E-03 0. -1.
        -11    1    3    3    0    0 -0.19054563008E+02  0.20648131496E+01  0.64834448606E+01  0.20233014662E+02  0.51100000000E-03 0.  1.
         12    1    3    3    0    0 -0.14370465357E+02  0.43956560239E+01  0.18619908183E+02  0.23927662803E+02  0.00000000000E+00 0. -1.
</event>
<event>
 7    1  0.2706925E-010  0.4778727E+02  0.7816164E-02  0.1312668E+00
        -11   -1    0    0    0    0  0.00000000000E+00  0.00000000000E+00  0.45593999997E+02  0.45594000000E+02  0.51100000000E-03 0.  1.
         11   -1    0    0    0    0 -0.00000000000E+00 -0.00000000000E+00 -0.45593999997E+02  0.45594000000E+02  0.51100000000E-03 0. -1.
    9900012    2    1    2    0    0 -0.27332924492E+02 -0.23003992101E+02  0.24644499076E+02  0.47787265576E+02  0.19999975068E+02 0.  0.
         12    1    1    2    0    0  0.27332924492E+02  0.23003992101E+02 -0.24644499076E+02  0.43400734424E+02  0.00000000000E+00 0. -1.
         11    1    3    3    0    0 -0.13394406707E+02 -0.34752584860E+01  0.94974443200E+00  0.13870456637E+02  0.51100000000E-03 0.  1.
        -11    1    3    3    0    0 -0.75039419046E+01 -0.12947736179E+02  0.13166569444E+02  0.19932675873E+02  0.51100000000E-03 0. -1.
        -12    1    3    3    0    0 -0.64345758800E+01 -0.65809974359E+01  0.10528185200E+02  0.13984133066E+02  0.00000000000E+00 0.  1.
</event>
<event>
 7    1  0.2706925E-010  0.4778727E+02  0.7816164E-02  0.1312668E+00
        -11   -1    0    0    0    0  0.00000000000E+00  0.00000000000E+00  0.45593999997E+02  0.45594000000E+02  0.51100000000E-03 0.  1.
         11   -1    0    0    0    0 -0.00000000000E+00 -0.00000000000E+00 -0.45593999997E+02  0.45594000000E+02  0.51100000000E-03 0. -1.
    9900012    2    1    2    0    0 -0.34972204495E+02  0.92608630538E+00  0.25684832319E+02  0.47787270348E+02  0.19999996823E+02 0.  0.
         12    1    1    2    0    0  0.34972204495E+02 -0.92608630538E+00 -0.25684832319E+02  0.43400729652E+02  0.00000000000E+00 0. -1.
         11    1    3    3    0    0 -0.16926238215E+02  0.43487433961E+01  0.16515535818E+02  0.24045208106E+02  0.51100000000E-03 0.  1.
        -11    1    3    3    0    0 -0.10455185863E+01 -0.42445184298E+01 -0.77626525564E-01  0.43720786765E+01  0.51100000000E-03 0. -1.
         12    1    3    3    0    0 -0.17000447694E+02  0.82186133909E+00  0.92469230267E+01  0.19369983565E+02  0.00000000000E+00 0. -1.
</event>
<event>
 7    1  0.2706925E-010  0.4778727E+02  0.7816164E-02  0.1312668E+00
        -11   -1    0    0    0    0  0.00000000000E+00  0.00000000000E+00  0.45593999997E+02  0.45594000000E+02  0.51100000000E-03 0.  1.
         11   -1    0    0    0    0 -0.00000000000E+00 -0.00000000000E+00 -0.45593999997E+02  0.45594000000E+02  0.51100000000E-03 0. -1.
    9900012    2    1    2    0    0 -0.18488975803E+02 -0.25218507170E+02  0.30096648086E+02  0.47787267793E+02  0.19999985174E+02 0.  0.
         12    1    1    2    0    0  0.18488975803E+02  0.25218507170E+02 -0.30096648086E+02  0.43400732207E+02  0.00000000000E+00 0. -1.
         11    1    3    3    0    0 -0.61692070438E+01 -0.16108612218E+02  0.94767547038E+01  0.19681346070E+02  0.51100000000E-03 0. -1.
        -11    1    3    3    0    0  0.82759793664E+00  0.17331120122E+00  0.69163536343E+01  0.69678478007E+01  0.51100000000E-03 0.  1.
        -12    1    3    3    0    0 -0.13147366696E+02 -0.92832061527E+01  0.13703539748E+02  0.21138073922E+02  0.00000000000E+00 0.  1.
</event>
<event>
 7    1  0.2706925E-010  0.4778728E+02  0.7816164E-02  0.1312668E+00
        -11   -1    0    0    0    0  0.00000000000E+00  0.00000000000E+00  0.45593999997E+02  0.45594000000E+02  0.51100000000E-03 0.  1.
         11   -1    0    0    0    0 -0.00000000000E+00 -0.00000000000E+00 -0.45593999997E+02  0.45594000000E+02  0.51100000000E-03 0. -1.
    9900012    2    1    2    0    0  0.18177415176E+01  0.13394796171E+02  0.41241946734E+02  0.47787275132E+02  0.20000018636E+02 0.  0.
         12    1    1    2    0    0 -0.18177415176E+01 -0.13394796171E+02 -0.41241946734E+02  0.43400724868E+02  0.00000000000E+00 0. -1.
         11    1    3    3    0    0  0.89793880482E+01  0.13678275176E+01  0.20828885342E+02  0.22723178182E+02  0.51100000000E-03 0. -1.
        -11    1    3    3    0    0 -0.45421018277E+01  0.10402699299E+02  0.14698423069E+02  0.18571227280E+02  0.51100000000E-03 0.  1.
        -12    1    3    3    0    0 -0.26195447028E+01  0.16242693548E+01  0.57146383228E+01  0.64928696697E+01  0.00000000000E+00 0.  1.
</event>
<event>
 7    1  0.2706925E-010  0.4778727E+02  0.7816164E-02  0.1312668E+00
        -11   -1    0    0    0    0  0.00000000000E+00  0.00000000000E+00  0.45593999997E+02  0.45594000000E+02  0.51100000000E-03 0. -1.
         11   -1    0    0    0    0 -0.00000000000E+00 -0.00000000000E+00 -0.45593999997E+02  0.45594000000E+02  0.51100000000E-03 0.  1.
    9900012    2    1    2    0    0  0.17986651717E+02 -0.38341004200E+02 -0.94905932569E+01  0.47787267248E+02  0.19999982692E+02 0.  0.
         12    1    1    2    0    0 -0.17986651717E+02  0.38341004200E+02  0.94905932569E+01  0.43400732752E+02  0.00000000000E+00 0. -1.
         11    1    3    3    0    0  0.15086038741E+01 -0.53926612435E+01 -0.86386436656E+01  0.10294797015E+02  0.51100000000E-03 0.  1.
        -11    1    3    3    0    0  0.58135158499E+01 -0.18845948068E+02  0.77147064157E+00  0.19737322319E+02  0.51100000000E-03 0. -1.
        -12    1    3    3    0    0  0.10664531993E+02 -0.14102394888E+02 -0.16234202328E+01  0.17755147914E+02  0.00000000000E+00 0.  1.
</event>
<event>
 7    1  0.2706925E-010  0.4778727E+02  0.7816164E-02  0.1312668E+00
        -11   -1    0    0    0    0  0.00000000000E+00  0.00000000000E+00  0.45593999997E+02  0.45594000000E+02  0.51100000000E-03 0. -1.
         11   -1    0    0    0    0 -0.00000000000E+00 -0.00000000000E+00 -0.45593999997E+02  0.45594000000E+02  0.51100000000E-03 0.  1.
    9900012    2    1    2    0    0 -0.14756446452E+02 -0.38690435854E+02  0.12996938609E+02  0.47787274757E+02  0.20000016927E+02 0.  0.
         12    1    1    2    0    0  0.14756446452E+02  0.38690435854E+02 -0.12996938609E+02  0.43400725243E+02  0.00000000000E+00 0. -1.
         11    1    3    3    0    0 -0.51560283046E+00 -0.13863234995E+02  0.38807029363E+01  0.14405380465E+02  0.51100000000E-03 0. -1.
        -11    1    3    3    0    0 -0.12828448282E+02 -0.13846294778E+02  0.11436585472E+02  0.22069989849E+02  0.51100000000E-03 0.  1.
        -12    1    3    3    0    0 -0.14123953397E+01 -0.10980906080E+02 -0.23203497994E+01  0.11311904443E+02  0.00000000000E+00 0.  1.
</event>
<event>
 7    1  0.2706925E-010  0.4778728E+02  0.7816164E-02  0.1312668E+00
        -11   -1    0    0    0    0  0.00000000000E+00  0.00000000000E+00  0.45593999997E+02  0.45594000000E+02  0.51100000000E-03 0. -1.
         11   -1    0    0    0    0 -0.00000000000E+00 -0.00000000000E+00 -0.45593999997E+02  0.45594000000E+02  0.51100000000E-03 0.  1.
    9900012    2    1    2    0    0 -0.22422916693E+01 -0.51887992548E+00 -0.43339656361E+02  0.47787275101E+02  0.20000018495E+02 0.  0.
         12    1    1    2    0    0  0.22422916693E+01  0.51887992548E+00  0.43339656361E+02  0.43400724899E+02  0.00000000000E+00 0. -1.
         11    1    3    3    0    0  0.10435054580E+01 -0.19612318498E+01 -0.52484551037E+00  0.22827170391E+01  0.51100000000E-03 0. -1.
        -11    1    3    3    0    0 -0.40638985259E+01 -0.29638108145E+01 -0.39783176277E+02  0.40099882303E+02  0.51100000000E-03 0.  1.
        -12    1    3    3    0    0  0.77810139865E+00  0.44061627388E+01 -0.30316345730E+01  0.54046757582E+01  0.00000000000E+00 0.  1.
</event>
<event>
 7    1  0.2706925E-010  0.4778727E+02  0.7816164E-02  0.1312668E+00
        -11   -1    0    0    0    0  0.00000000000E+00  0.00000000000E+00  0.45593999997E+02  0.45594000000E+02  0.51100000000E-03 0.  1.
         11   -1    0    0    0    0 -0.00000000000E+00 -0.00000000000E+00 -0.45593999997E+02  0.45594000000E+02  0.51100000000E-03 0. -1.
    9900012    2    1    2    0    0  0.25628045328E+02  0.34162300868E+02  0.77307063456E+01  0.47787270415E+02  0.19999997128E+02 0.  0.
         12    1    1    2    0    0 -0.25628045328E+02 -0.34162300868E+02 -0.77307063456E+01  0.43400729585E+02  0.00000000000E+00 0. -1.
         11    1    3    3    0    0  0.21373559739E+02  0.18833703483E+02  0.12530976564E+01  0.28515043342E+02  0.51100000000E-03 0. -1.
        -11    1    3    3    0    0 -0.23210584470E+01  0.67065920164E+01  0.40110500625E+01  0.81519452681E+01  0.51100000000E-03 0.  1.
         12    1    3    3    0    0  0.65755440368E+01  0.86220053687E+01  0.24665586267E+01  0.11120281805E+02  0.00000000000E+00 0. -1.
</event>
<event>
 7    1  0.2706925E-010  0.4778727E+02  0.7816164E-02  0.1312668E+00
        -11   -1    0    0    0    0  0.00000000000E+00  0.00000000000E+00  0.45593999997E+02  0.45594000000E+02  0.51100000000E-03 0.  1.
         11   -1    0    0    0    0 -0.00000000000E+00 -0.00000000000E+00 -0.45593999997E+02  0.45594000000E+02  0.51100000000E-03 0. -1.
    9900012    2    1    2    0    0 -0.39747823634E+02 -0.17427884722E+02 -0.55823165525E-01  0.47787265378E+02  0.19999974165E+02 0.  0.
         12    1    1    2    0    0  0.39747823634E+02  0.17427884722E+02  0.55823165525E-01  0.43400734622E+02  0.00000000000E+00 0. -1.
         11    1    3    3    0    0 -0.17112120837E+01 -0.12016526642E+01 -0.19075767257E+01  0.28303825088E+01  0.51100000000E-03 0. -1.
        -11    1    3    3    0    0 -0.70387484839E+01 -0.90039479707E+01  0.59180687344E+01  0.12870065932E+02  0.51100000000E-03 0.  1.
        -12    1    3    3    0    0 -0.30997863066E+02 -0.72222840871E+01 -0.40663151743E+01  0.32086816938E+02  0.00000000000E+00 0.  1.
</event>
<event>
 7    1  0.2706925E-010  0.4778727E+02  0.7816164E-02  0.1312668E+00
        -11   -1    0    0    0    0  0.00000000000E+00  0.00000000000E+00  0.45593999997E+02  0.45594000000E+02  0.51100000000E-03 0.  1.
         11   -1    0    0    0    0 -0.00000000000E+00 -0.00000000000E+00 -0.45593999997E+02  0.45594000000E+02  0.51100000000E-03 0. -1.
    9900012    2    1    2    0    0 -0.19045306796E+02 -0.77437469452E+01  0.38222165970E+02  0.47787270754E+02  0.19999998675E+02 0.  0.
         12    1    1    2    0    0  0.19045306796E+02  0.77437469452E+01 -0.38222165970E+02  0.43400729246E+02  0.00000000000E+00 0. -1.
         11    1    3    3    0    0  0.10575161918E+01 -0.11943579124E+00  0.44071811931E+00  0.11518845975E+01  0.51100000000E-03 0. -1.
        -11    1    3    3    0    0 -0.62611949567E+01 -0.76510074735E+01  0.27978887011E+02  0.29674207593E+02  0.51100000000E-03 0.  1.
        -12    1    3    3    0    0 -0.13841628031E+02  0.26696319540E-01  0.98025608394E+01  0.16961178563E+02  0.00000000000E+00 0.  1.
</event>
<event>
 7    1  0.2706925E-010  0.4778730E+02  0.7816164E-02  0.1312668E+00
        -11   -1    0    0    0    0  0.00000000000E+00  0.00000000000E+00  0.45593999997E+02  0.45594000000E+02  0.51100000000E-03 0.  1.
         11   -1    0    0    0    0 -0.00000000000E+00 -0.00000000000E+00 -0.45593999997E+02  0.45594000000E+02  0.51100000000E-03 0. -1.
    9900012    2    1    2    0    0 -0.11873849921E+02  0.40950117050E+02 -0.81068301482E+01  0.47787296165E+02  0.20000114533E+02 0.  0.
         12    1    1    2    0    0  0.11873849921E+02 -0.40950117050E+02  0.81068301482E+01  0.43400703835E+02  0.00000000000E+00 0. -1.
         11    1    3    3    0    0 -0.21279935749E+00  0.95637929380E+01 -0.96378591785E+01  0.13579386906E+02  0.51100000000E-03 0. -1.
        -11    1    3    3    0    0 -0.67849726710E+01  0.17559952409E+02  0.42449103728E+01  0.19297850841E+02  0.51100000000E-03 0.  1.
        -12    1    3    3    0    0 -0.48760778930E+01  0.13826371703E+02 -0.27138813425E+01  0.14910058418E+02  0.00000000000E+00 0.  1.
</event>
<event>
 7    1  0.2706925E-010  0.4778727E+02  0.7816164E-02  0.1312668E+00
        -11   -1    0    0    0    0  0.00000000000E+00  0.00000000000E+00  0.45593999997E+02  0.45594000000E+02  0.51100000000E-03 0. -1.
         11   -1    0    0    0    0 -0.00000000000E+00 -0.00000000000E+00 -0.45593999997E+02  0.45594000000E+02  0.51100000000E-03 0.  1.
    9900012    2    1    2    0    0 -0.19468189170E+02  0.33442697239E+02 -0.19651939060E+02  0.47787273083E+02  0.20000009292E+02 0.  0.
         12    1    1    2    0    0  0.19468189170E+02 -0.33442697239E+02  0.19651939060E+02  0.43400726917E+02  0.00000000000E+00 0. -1.
         11    1    3    3    0    0 -0.45695369396E+01  0.53984859084E+01  0.38170084022E+01  0.80370312522E+01  0.51100000000E-03 0. -1.
        -11    1    3    3    0    0 -0.15084081160E+02  0.27402766952E+02 -0.22339506369E+02  0.38438193065E+02  0.51100000000E-03 0.  1.
         12    1    3    3    0    0  0.18542893021E+00  0.64144437896E+00 -0.11294410928E+01  0.13120487649E+01  0.00000000000E+00 0. -1.
</event>
<event>
 7    1  0.2706925E-010  0.4778727E+02  0.7816164E-02  0.1312668E+00
        -11   -1    0    0    0    0  0.00000000000E+00  0.00000000000E+00  0.45593999997E+02  0.45594000000E+02  0.51100000000E-03 0.  1.
         11   -1    0    0    0    0 -0.00000000000E+00 -0.00000000000E+00 -0.45593999997E+02  0.45594000000E+02  0.51100000000E-03 0. -1.
    9900012    2    1    2    0    0 -0.26587276970E+02  0.11480657489E+02  0.32325448103E+02  0.47787269729E+02  0.19999994000E+02 0.  0.
         12    1    1    2    0    0  0.26587276970E+02 -0.11480657489E+02 -0.32325448103E+02  0.43400730271E+02  0.00000000000E+00 0. -1.
         11    1    3    3    0    0  0.75561719789E+00  0.68680201254E-01 -0.21261339066E+00  0.78795877735E+00  0.51100000000E-03 0. -1.
        -11    1    3    3    0    0 -0.54879121638E+01 -0.41196594486E+01  0.90277856944E+01  0.11339739358E+02  0.51100000000E-03 0.  1.
        -12    1    3    3    0    0 -0.21854982004E+02  0.15531636736E+02  0.23510275799E+02  0.35659571594E+02  0.00000000000E+00 0.  1.
</event>
<event>
 7    1  0.2706925E-010  0.4778727E+02  0.7816164E-02  0.1312668E+00
        -11   -1    0    0    0    0  0.00000000000E+00  0.00000000000E+00  0.45593999997E+02  0.45594000000E+02  0.51100000000E-03 0.  1.
         11   -1    0    0    0    0 -0.00000000000E+00 -0.00000000000E+00 -0.45593999997E+02  0.45594000000E+02  0.51100000000E-03 0. -1.
    9900012    2    1    2    0    0 -0.94415782008E+01  0.42336417880E+02 -0.14517993807E+01  0.47787269600E+02  0.19999993414E+02 0.  0.
         12    1    1    2    0    0  0.94415782008E+01 -0.42336417880E+02  0.14517993807E+01  0.43400730400E+02  0.00000000000E+00 0. -1.
         11    1    3    3    0    0 -0.11527835368E+02  0.15079251546E+02  0.37974830075E+01  0.19357057961E+02  0.51100000000E-03 0. -1.
        -11    1    3    3    0    0  0.16750426060E+01  0.14331227125E+02  0.11523606128E+00  0.14429245242E+02  0.51100000000E-03 0.  1.
         12    1    3    3    0    0  0.41121456164E+00  0.12925939209E+02 -0.53645184495E+01  0.14000966397E+02  0.00000000000E+00 0. -1.
</event>
<event>
 7    1  0.2706925E-010  0.4778727E+02  0.7816164E-02  0.1312668E+00
        -11   -1    0    0    0    0  0.00000000000E+00  0.00000000000E+00  0.45593999997E+02  0.45594000000E+02  0.51100000000E-03 0. -1.
         11   -1    0    0    0    0 -0.00000000000E+00 -0.00000000000E+00 -0.45593999997E+02  0.45594000000E+02  0.51100000000E-03 0.  1.
    9900012    2    1    2    0    0 -0.28706071113E+02 -0.14979481553E+02 -0.28899819339E+02  0.47787274843E+02  0.20000017318E+02 0.  0.
         12    1    1    2    0    0  0.28706071113E+02  0.14979481553E+02  0.28899819339E+02  0.43400725157E+02  0.00000000000E+00 0. -1.
         11    1    3    3    0    0 -0.11693364453E+01 -0.36144413785E+01 -0.30999582365E+01  0.49031903421E+01  0.51100000000E-03 0. -1.
        -11    1    3    3    0    0 -0.89314311686E+01 -0.92091147563E+01 -0.26385868111E+01  0.13097343163E+02  0.51100000000E-03 0.  1.
        -12    1    3    3    0    0 -0.18605303499E+02 -0.21559254179E+01 -0.23161274292E+02  0.29786741338E+02  0.00000000000E+00 0.  1.
</event>
<event>
 7    1  0.2706925E-010  0.4778727E+02  0.7816164E-02  0.1312668E+00
        -11   -1    0    0    0    0  0.00000000000E+00  0.00000000000E+00  0.45593999997E+02  0.45594000000E+02  0.51100000000E-03 0. -1.
         11   -1    0    0    0    0 -0.00000000000E+00 -0.00000000000E+00 -0.45593999997E+02  0.45594000000E+02  0.51100000000E-03 0.  1.
    9900012    2    1    2    0    0  0.27976650657E+02  0.32393763849E+02  0.71815564001E+01  0.47787266474E+02  0.19999979162E+02 0.  0.
         12    1    1    2    0    0 -0.27976650657E+02 -0.32393763849E+02 -0.71815564001E+01  0.43400733526E+02  0.00000000000E+00 0. -1.
         11    1    3    3    0    0  0.38819179725E+01  0.27336660900E+01 -0.49687069030E+01  0.68724279542E+01  0.51100000000E-03 0. -1.
        -11    1    3    3    0    0  0.24322347102E+02  0.29548722651E+02  0.11120490631E+02  0.39854345948E+02  0.51100000000E-03 0.  1.
        -12    1    3    3    0    0 -0.22761441812E+00  0.11137510830E+00  0.10297726722E+01  0.10604925717E+01  0.00000000000E+00 0.  1.
</event>
<event>
 7    1  0.2706925E-010  0.4778728E+02  0.7816164E-02  0.1312668E+00
        -11   -1    0    0    0    0  0.00000000000E+00  0.00000000000E+00  0.45593999997E+02  0.45594000000E+02  0.51100000000E-03 0.  1.
         11   -1    0    0    0    0 -0.00000000000E+00 -0.00000000000E+00 -0.45593999997E+02  0.45594000000E+02  0.51100000000E-03 0. -1.
    9900012    2    1    2    0    0 -0.84481140219E+01  0.41408295908E+02 -0.98795369623E+01  0.47787275915E+02  0.20000022207E+02 0.  0.
         12    1    1    2    0    0  0.84481140219E+01 -0.41408295908E+02  0.98795369623E+01  0.43400724085E+02  0.00000000000E+00 0. -1.
         11    1    3    3    0    0 -0.16294359243E+01  0.73170129253E+00 -0.81677499829E+00  0.19640697218E+01  0.51100000000E-03 0. -1.
        -11    1    3    3    0    0  0.27293193417E+01  0.14282228418E+01 -0.40972987138E+01  0.51260961331E+01  0.51100000000E-03 0.  1.
        -12    1    3    3    0    0 -0.95479974393E+01  0.39248371773E+02 -0.49654632501E+01  0.40697110060E+02  0.00000000000E+00 0.  1.
</event>
<event>
 7    1  0.2706925E-010  0.4778726E+02  0.7816164E-02  0.1312668E+00
        -11   -1    0    0    0    0  0.00000000000E+00  0.00000000000E+00  0.45593999997E+02  0.45594000000E+02  0.51100000000E-03 0. -1.
         11   -1    0    0    0    0 -0.00000000000E+00 -0.00000000000E+00 -0.45593999997E+02  0.45594000000E+02  0.51100000000E-03 0.  1.
    9900012    2    1    2    0    0  0.22746501043E+02 -0.13978815209E+02 -0.34217149685E+02  0.47787263637E+02  0.19999966224E+02 0.  0.
         12    1    1    2    0    0 -0.22746501043E+02  0.13978815209E+02  0.34217149685E+02  0.43400736363E+02  0.00000000000E+00 0. -1.
         11    1    3    3    0    0  0.22853991312E+01  0.25967514635E+01 -0.10678667743E+02  0.11224977166E+02  0.51100000000E-03 0. -1.
        -11    1    3    3    0    0  0.18954835027E+02 -0.10403647045E+02 -0.18000368035E+02  0.28134229906E+02  0.51100000000E-03 0.  1.
        -12    1    3    3    0    0  0.15062668844E+01 -0.61719196268E+01 -0.55381139081E+01  0.84280565652E+01  0.00000000000E+00 0.  1.
</event>
<event>
 7    1  0.2706925E-010  0.4778727E+02  0.7816164E-02  0.1312668E+00
        -11   -1    0    0    0    0  0.00000000000E+00  0.00000000000E+00  0.45593999997E+02  0.45594000000E+02  0.51100000000E-03 0.  1.
         11   -1    0    0    0    0 -0.00000000000E+00 -0.00000000000E+00 -0.45593999997E+02  0.45594000000E+02  0.51100000000E-03 0. -1.
    9900012    2    1    2    0    0 -0.17055141813E+01 -0.32451863336E+02  0.28767883594E+02  0.47787270294E+02  0.19999996576E+02 0.  0.
         12    1    1    2    0    0  0.17055141813E+01  0.32451863336E+02 -0.28767883594E+02  0.43400729706E+02  0.00000000000E+00 0. -1.
         11    1    3    3    0    0 -0.16725035406E+01 -0.14642586734E+01  0.80866924869E+00  0.23654318360E+01  0.51100000000E-03 0. -1.
        -11    1    3    3    0    0 -0.86635799045E+01 -0.12325291473E+02  0.96582096538E+01  0.17895570419E+02  0.51100000000E-03 0.  1.
        -12    1    3    3    0    0  0.86305692638E+01 -0.18662313189E+02  0.18301004691E+02  0.27526268038E+02  0.00000000000E+00 0.  1.
</event>
<event>
 7    1  0.2706925E-010  0.4778727E+02  0.7816164E-02  0.1312668E+00
        -11   -1    0    0    0    0  0.00000000000E+00  0.00000000000E+00  0.45593999997E+02  0.45594000000E+02  0.51100000000E-03 0.  1.
         11   -1    0    0    0    0 -0.00000000000E+00 -0.00000000000E+00 -0.45593999997E+02  0.45594000000E+02  0.51100000000E-03 0. -1.
    9900012    2    1    2    0    0 -0.21402182525E+02  0.29046998601E+02 -0.24121393791E+02  0.47787272092E+02  0.20000004777E+02 0.  0.
         12    1    1    2    0    0  0.21402182525E+02 -0.29046998601E+02  0.24121393791E+02  0.43400727908E+02  0.00000000000E+00 0. -1.
         11    1    3    3    0    0  0.71430576709E+00  0.79366162038E+01 -0.15627930940E+01  0.81204945669E+01  0.51100000000E-03 0. -1.
        -11    1    3    3    0    0 -0.14931374977E+02  0.85094818492E+01 -0.74782730666E+01  0.18742513395E+02  0.51100000000E-03 0.  1.
        -12    1    3    3    0    0 -0.71851133144E+01  0.12600900548E+02 -0.15080327630E+02  0.20924264130E+02  0.00000000000E+00 0.  1.
</event>
<event>
 7    1  0.2706925E-010  0.4778727E+02  0.7816164E-02  0.1312668E+00
        -11   -1    0    0    0    0  0.00000000000E+00  0.00000000000E+00  0.45593999997E+02  0.45594000000E+02  0.51100000000E-03 0.  1.
         11   -1    0    0    0    0 -0.00000000000E+00 -0.00000000000E+00 -0.45593999997E+02  0.45594000000E+02  0.51100000000E-03 0. -1.
    9900012    2    1    2    0    0 -0.84404238464E+01 -0.16044403370E+02  0.39432975434E+02  0.47787272060E+02  0.20000004629E+02 0.  0.
         12    1    1    2    0    0  0.84404238464E+01  0.16044403370E+02 -0.39432975434E+02  0.43400727940E+02  0.00000000000E+00 0. -1.
         11    1    3    3    0    0 -0.10615619920E+00  0.11313136058E+01 -0.15724579620E+01  0.19400422461E+01  0.51100000000E-03 0. -1.
        -11    1    3    3    0    0 -0.83157837369E+01 -0.14799773720E+02  0.28952816502E+02  0.33562645083E+02  0.51100000000E-03 0.  1.
        -12    1    3    3    0    0 -0.18483910316E-01 -0.23759432552E+01  0.12052616894E+02  0.12284584730E+02  0.00000000000E+00 0.  1.
</event>
<event>
 7    1  0.2856166E-010  0.4778727E+02  0.7816164E-02  0.1312668E+00
        -11   -1    0    0    0    0  0.00000000000E+00  0.00000000000E+00  0.45593999997E+02  0.45594000000E+02  0.51100000000E-03 0.  1.
         11   -1    0    0    0    0 -0.00000000000E+00 -0.00000000000E+00 -0.45593999997E+02  0.45594000000E+02  0.51100000000E-03 0. -1.
    9900012    2    1    2    0    0 -0.36545000326E+02 -0.16530184396E+02  0.16578278646E+02  0.47787269961E+02  0.19999995062E+02 0.  0.
         12    1    1    2    0    0  0.36545000326E+02  0.16530184396E+02 -0.16578278646E+02  0.43400730039E+02  0.00000000000E+00 0. -1.
         11    1    3    3    0    0 -0.52766015850E+01 -0.41551238684E+01 -0.28532220213E+00  0.67222754830E+01  0.51100000000E-03 0. -1.
        -11    1    3    3    0    0  0.18917233296E+01 -0.16615197158E+01  0.50238227927E+00  0.25674214959E+01  0.51100000000E-03 0.  1.
        -12    1    3    3    0    0 -0.33160122071E+02 -0.10713540812E+02  0.16361218569E+02  0.38497572983E+02  0.00000000000E+00 0.  1.
</event>
<event>
 7    1  0.2706925E-010  0.4778727E+02  0.7816164E-02  0.1312668E+00
        -11   -1    0    0    0    0  0.00000000000E+00  0.00000000000E+00  0.45593999997E+02  0.45594000000E+02  0.51100000000E-03 0.  1.
         11   -1    0    0    0    0 -0.00000000000E+00 -0.00000000000E+00 -0.45593999997E+02  0.45594000000E+02  0.51100000000E-03 0. -1.
    9900012    2    1    2    0    0  0.18396508276E+01  0.19508324249E+02  0.38725500469E+02  0.47787269398E+02  0.19999992495E+02 0.  0.
         12    1    1    2    0    0 -0.18396508276E+01 -0.19508324249E+02 -0.38725500469E+02  0.43400730602E+02  0.00000000000E+00 0. -1.
         11    1    3    3    0    0  0.31144154114E+01  0.92473195694E+01  0.67918819808E+01  0.11888741047E+02  0.51100000000E-03 0.  1.
        -11    1    3    3    0    0 -0.42738318884E+01 -0.55608507693E+00  0.14803944875E+02  0.15418549016E+02  0.51100000000E-03 0. -1.
         12    1    3    3    0    0  0.29990673046E+01  0.10817089757E+02  0.17129673613E+02  0.20479979336E+02  0.00000000000E+00 0. -1.
</event>
<event>
 7    1  0.2706925E-010  0.4778727E+02  0.7816164E-02  0.1312668E+00
        -11   -1    0    0    0    0  0.00000000000E+00  0.00000000000E+00  0.45593999997E+02  0.45594000000E+02  0.51100000000E-03 0. -1.
         11   -1    0    0    0    0 -0.00000000000E+00 -0.00000000000E+00 -0.45593999997E+02  0.45594000000E+02  0.51100000000E-03 0.  1.
    9900012    2    1    2    0    0 -0.30847317817E+02  0.27830269936E+02 -0.12551590613E+02  0.47787269958E+02  0.19999995048E+02 0.  0.
         12    1    1    2    0    0  0.30847317817E+02 -0.27830269936E+02  0.12551590613E+02  0.43400730042E+02  0.00000000000E+00 0. -1.
         11    1    3    3    0    0 -0.89009856128E+01  0.76296145039E+01  0.46237527382E+01  0.12602287570E+02  0.51100000000E-03 0. -1.
        -11    1    3    3    0    0 -0.73092718268E+01  0.11599839838E+02 -0.70351986876E+01  0.15410248530E+02  0.51100000000E-03 0.  1.
         12    1    3    3    0    0 -0.14637060378E+02  0.86008155941E+01 -0.10140144663E+02  0.19774733859E+02  0.00000000000E+00 0. -1.
</event>
<event>
 7    1  0.2706925E-010  0.4778728E+02  0.7816164E-02  0.1312668E+00
        -11   -1    0    0    0    0  0.00000000000E+00  0.00000000000E+00  0.45593999997E+02  0.45594000000E+02  0.51100000000E-03 0.  1.
         11   -1    0    0    0    0 -0.00000000000E+00 -0.00000000000E+00 -0.45593999997E+02  0.45594000000E+02  0.51100000000E-03 0. -1.
    9900012    2    1    2    0    0  0.13422220153E+02 -0.89384818672E+01  0.40293553396E+02  0.47787275383E+02  0.20000019783E+02 0.  0.
         12    1    1    2    0    0 -0.13422220153E+02  0.89384818672E+01 -0.40293553396E+02  0.43400724617E+02  0.00000000000E+00 0. -1.
         11    1    3    3    0    0  0.41865694240E+01 -0.36529469399E+01  0.23268532125E+01  0.60237555579E+01  0.51100000000E-03 0. -1.
        -11    1    3    3    0    0 -0.35173601094E+00 -0.25439974844E+01  0.26261289196E+02  0.26386567642E+02  0.51100000000E-03 0.  1.
         12    1    3    3    0    0  0.95873867402E+01 -0.27415374428E+01  0.11705410988E+02  0.15376952184E+02  0.00000000000E+00 0. -1.
</event>
<event>
 7    1  0.2706925E-010  0.4778727E+02  0.7816164E-02  0.1312668E+00
        -11   -1    0    0    0    0  0.00000000000E+00  0.00000000000E+00  0.45593999997E+02  0.45594000000E+02  0.51100000000E-03 0.  1.
         11   -1    0    0    0    0 -0.00000000000E+00 -0.00000000000E+00 -0.45593999997E+02  0.45594000000E+02  0.51100000000E-03 0. -1.
    9900012    2    1    2    0    0 -0.17972789554E+02 -0.25689561950E+02  0.30010814444E+02  0.47787265662E+02  0.19999975458E+02 0.  0.
         12    1    1    2    0    0  0.17972789554E+02  0.25689561950E+02 -0.30010814444E+02  0.43400734338E+02  0.00000000000E+00 0. -1.
         11    1    3    3    0    0 -0.13279956571E+02 -0.66460859721E+01  0.13039180284E+02  0.19762285495E+02  0.51100000000E-03 0. -1.
        -11    1    3    3    0    0 -0.10150681818E+01 -0.13280752949E+02  0.49770307817E+01  0.14218987234E+02  0.51100000000E-03 0.  1.
        -12    1    3    3    0    0 -0.36777648014E+01 -0.57627230290E+01  0.11994603378E+02  0.13805992932E+02  0.00000000000E+00 0.  1.
</event>
<event>
 7    1  0.2706925E-010  0.4778729E+02  0.7816164E-02  0.1312668E+00
        -11   -1    0    0    0    0  0.00000000000E+00  0.00000000000E+00  0.45593999997E+02  0.45594000000E+02  0.51100000000E-03 0. -1.
         11   -1    0    0    0    0 -0.00000000000E+00 -0.00000000000E+00 -0.45593999997E+02  0.45594000000E+02  0.51100000000E-03 0.  1.
    9900012    2    1    2    0    0  0.22877732098E+02  0.29308341927E+02  0.22388669123E+02  0.47787285287E+02  0.20000064938E+02 0.  0.
         12    1    1    2    0    0 -0.22877732098E+02 -0.29308341927E+02 -0.22388669123E+02  0.43400714713E+02  0.00000000000E+00 0. -1.
         11    1    3    3    0    0  0.66763239911E+01  0.57149394615E+01  0.55826495672E+01  0.10411523017E+02  0.51100000000E-03 0. -1.
        -11    1    3    3    0    0  0.80895791576E+01  0.17268800757E+02  0.18932996470E+02  0.26872125449E+02  0.51100000000E-03 0.  1.
        -12    1    3    3    0    0  0.81118289497E+01  0.63246017081E+01 -0.21269769142E+01  0.10503636821E+02  0.00000000000E+00 0.  1.
</event>
<event>
 7    1  0.2706925E-010  0.4778727E+02  0.7816164E-02  0.1312668E+00
        -11   -1    0    0    0    0  0.00000000000E+00  0.00000000000E+00  0.45593999997E+02  0.45594000000E+02  0.51100000000E-03 0.  1.
         11   -1    0    0    0    0 -0.00000000000E+00 -0.00000000000E+00 -0.45593999997E+02  0.45594000000E+02  0.51100000000E-03 0. -1.
    9900012    2    1    2    0    0  0.40200896602E+02 -0.10518145381E+02  0.12525175295E+02  0.47787268601E+02  0.19999988857E+02 0.  0.
         12    1    1    2    0    0 -0.40200896602E+02  0.10518145381E+02 -0.12525175295E+02  0.43400731399E+02  0.00000000000E+00 0. -1.
         11    1    3    3    0    0  0.25663641064E+02 -0.60609341916E+01  0.88887697249E+01  0.27827461678E+02  0.51100000000E-03 0. -1.
        -11    1    3    3    0    0  0.16014766351E+02 -0.54159102604E+01  0.51123620522E+01  0.17661853562E+02  0.51100000000E-03 0.  1.
         12    1    3    3    0    0 -0.14775108134E+01  0.95869907115E+00 -0.14759564821E+01  0.22979533610E+01  0.00000000000E+00 0. -1.
</event>
<event>
 7    1  0.2706925E-010  0.4778727E+02  0.7816164E-02  0.1312668E+00
        -11   -1    0    0    0    0  0.00000000000E+00  0.00000000000E+00  0.45593999997E+02  0.45594000000E+02  0.51100000000E-03 0. -1.
         11   -1    0    0    0    0 -0.00000000000E+00 -0.00000000000E+00 -0.45593999997E+02  0.45594000000E+02  0.51100000000E-03 0.  1.
    9900012    2    1    2    0    0 -0.36589787036E+02  0.15023902808E+02 -0.17863169901E+02  0.47787274086E+02  0.20000013869E+02 0.  0.
         12    1    1    2    0    0  0.36589787036E+02 -0.15023902808E+02  0.17863169901E+02  0.43400725914E+02  0.00000000000E+00 0. -1.
         11    1    3    3    0    0 -0.29644781482E+02  0.12973682065E+02 -0.18514588804E+02  0.37281624083E+02  0.51100000000E-03 0.  1.
        -11    1    3    3    0    0 -0.22273010508E+01 -0.27967350710E+01  0.10610606878E+01  0.37294030451E+01  0.51100000000E-03 0. -1.
         12    1    3    3    0    0 -0.47177045036E+01  0.48469558141E+01 -0.40964178524E+00  0.67762469583E+01  0.00000000000E+00 0. -1.
</event>
<event>
 7    1  0.2706925E-010  0.4778727E+02  0.7816164E-02  0.1312668E+00
        -11   -1    0    0    0    0  0.00000000000E+00  0.00000000000E+00  0.45593999997E+02  0.45594000000E+02  0.51100000000E-03 0.  1.
         11   -1    0    0    0    0 -0.00000000000E+00 -0.00000000000E+00 -0.45593999997E+02  0.45594000000E+02  0.51100000000E-03 0. -1.
    9900012    2    1    2    0    0 -0.14472499692E+02  0.40649521390E+02  0.46676343100E+01  0.47787266750E+02  0.19999980422E+02 0.  0.
         12    1    1    2    0    0  0.14472499692E+02 -0.40649521390E+02 -0.46676343100E+01  0.43400733250E+02  0.00000000000E+00 0. -1.
         11    1    3    3    0    0 -0.10301412080E+01  0.18539864679E+02 -0.19150768921E+00  0.18569449337E+02  0.51100000000E-03 0. -1.
        -11    1    3    3    0    0 -0.14976617075E+02  0.15534536083E+02  0.13798666596E+01  0.21622324172E+02  0.51100000000E-03 0.  1.
         12    1    3    3    0    0  0.15342585912E+01  0.65751206278E+01  0.34792753395E+01  0.75954932416E+01  0.00000000000E+00 0. -1.
</event>
<event>
 7    1  0.2706925E-010  0.4778727E+02  0.7816164E-02  0.1312668E+00
        -11   -1    0    0    0    0  0.00000000000E+00  0.00000000000E+00  0.45593999997E+02  0.45594000000E+02  0.51100000000E-03 0.  1.
         11   -1    0    0    0    0 -0.00000000000E+00 -0.00000000000E+00 -0.45593999997E+02  0.45594000000E+02  0.51100000000E-03 0. -1.
    9900012    2    1    2    0    0 -0.19608439566E+02  0.38164292723E+02  0.65283133352E+01  0.47787274012E+02  0.20000013530E+02 0.  0.
         12    1    1    2    0    0  0.19608439566E+02 -0.38164292723E+02 -0.65283133352E+01  0.43400725988E+02  0.00000000000E+00 0. -1.
         11    1    3    3    0    0 -0.12926740128E+01  0.15537922651E+02  0.86386644423E+01  0.17824830154E+02  0.51100000000E-03 0. -1.
        -11    1    3    3    0    0 -0.84990314024E+01  0.55700502900E+01  0.74714170902E-01  0.10161918002E+02  0.51100000000E-03 0.  1.
         12    1    3    3    0    0 -0.98167341505E+01  0.17056319783E+02 -0.21850652780E+01  0.19800525856E+02  0.00000000000E+00 0. -1.
</event>
<event>
 7    1  0.2706925E-010  0.4778727E+02  0.7816164E-02  0.1312668E+00
        -11   -1    0    0    0    0  0.00000000000E+00  0.00000000000E+00  0.45593999997E+02  0.45594000000E+02  0.51100000000E-03 0.  1.
         11   -1    0    0    0    0 -0.00000000000E+00 -0.00000000000E+00 -0.45593999997E+02  0.45594000000E+02  0.51100000000E-03 0. -1.
    9900012    2    1    2    0    0  0.14487474052E+01 -0.35940255923E+02  0.24286255908E+02  0.47787273153E+02  0.20000009612E+02 0.  0.
         12    1    1    2    0    0 -0.14487474052E+01  0.35940255923E+02 -0.24286255908E+02  0.43400726847E+02  0.00000000000E+00 0. -1.
         11    1    3    3    0    0 -0.56400887822E+01 -0.17698227202E+02  0.13002272643E+02  0.22673705955E+02  0.51100000000E-03 0. -1.
        -11    1    3    3    0    0  0.69604911653E+01 -0.42695412279E+01  0.61680546750E+01  0.10233392316E+02  0.51100000000E-03 0.  1.
        -12    1    3    3    0    0  0.12834502208E+00 -0.13972487493E+02  0.51159285899E+01  0.14880174882E+02  0.00000000000E+00 0.  1.
</event>
<event>
 7    1  0.2706925E-010  0.4778727E+02  0.7816164E-02  0.1312668E+00
        -11   -1    0    0    0    0  0.00000000000E+00  0.00000000000E+00  0.45593999997E+02  0.45594000000E+02  0.51100000000E-03 0.  1.
         11   -1    0    0    0    0 -0.00000000000E+00 -0.00000000000E+00 -0.45593999997E+02  0.45594000000E+02  0.51100000000E-03 0. -1.
    9900012    2    1    2    0    0  0.17958854579E+02  0.19457008833E+02  0.34387899078E+02  0.47787271279E+02  0.20000001070E+02 0.  0.
         12    1    1    2    0    0 -0.17958854579E+02 -0.19457008833E+02 -0.34387899078E+02  0.43400728721E+02  0.00000000000E+00 0. -1.
         11    1    3    3    0    0  0.60489570526E+01 -0.18072937325E+01  0.23335742918E+01  0.67306583107E+01  0.51100000000E-03 0. -1.
        -11    1    3    3    0    0  0.49450571903E+01  0.11267023910E+02  0.22217519972E+02  0.25397196939E+02  0.51100000000E-03 0.  1.
        -12    1    3    3    0    0  0.69648403365E+01  0.99972786553E+01  0.98368048141E+01  0.15659416029E+02  0.00000000000E+00 0.  1.
</event>
<event>
 7    1  0.2706925E-010  0.4778727E+02  0.7816164E-02  0.1312668E+00
        -11   -1    0    0    0    0  0.00000000000E+00  0.00000000000E+00  0.45593999997E+02  0.45594000000E+02  0.51100000000E-03 0.  1.
         11   -1    0    0    0    0 -0.00000000000E+00 -0.00000000000E+00 -0.45593999997E+02  0.45594000000E+02  0.51100000000E-03 0. -1.
    9900012    2    1    2    0    0 -0.59367727672E+01  0.11816975383E+01  0.42976521698E+02  0.47787273080E+02  0.20000009281E+02 0.  0.
         12    1    1    2    0    0  0.59367727672E+01 -0.11816975383E+01 -0.42976521698E+02  0.43400726920E+02  0.00000000000E+00 0. -1.
         11    1    3    3    0    0  0.62472916064E+00  0.47562458383E+00 -0.10942299176E+01  0.13467904969E+01  0.51100000000E-03 0. -1.
        -11    1    3    3    0    0 -0.86860186608E+01  0.27389680925E+01  0.41643002106E+02  0.42627320946E+02  0.51100000000E-03 0.  1.
        -12    1    3    3    0    0  0.21245167330E+01 -0.20328951380E+01  0.24277495095E+01  0.38131616372E+01  0.00000000000E+00 0.  1.
</event>
<event>
 7    1  0.2706925E-010  0.4778727E+02  0.7816164E-02  0.1312668E+00
        -11   -1    0    0    0    0  0.00000000000E+00  0.00000000000E+00  0.45593999997E+02  0.45594000000E+02  0.51100000000E-03 0.  1.
         11   -1    0    0    0    0 -0.00000000000E+00 -0.00000000000E+00 -0.45593999997E+02  0.45594000000E+02  0.51100000000E-03 0. -1.
    9900012    2    1    2    0    0  0.98854688271E+01  0.26581339559E+02  0.32853208621E+02  0.47787269322E+02  0.19999992146E+02 0.  0.
         12    1    1    2    0    0 -0.98854688271E+01 -0.26581339559E+02 -0.32853208621E+02  0.43400730678E+02  0.00000000000E+00 0. -1.
         11    1    3    3    0    0 -0.95325663387E-01 -0.62894491245E+00  0.46602512631E-01  0.63783284668E+00  0.51100000000E-03 0. -1.
        -11    1    3    3    0    0 -0.32106218614E+01  0.14040374997E+02  0.92805426203E+01  0.17133846456E+02  0.51100000000E-03 0.  1.
        -12    1    3    3    0    0  0.13191416352E+02  0.13169909475E+02  0.23526063488E+02  0.30015590019E+02  0.00000000000E+00 0.  1.
</event>
<event>
 7    1  0.2706925E-010  0.4778727E+02  0.7816164E-02  0.1312668E+00
        -11   -1    0    0    0    0  0.00000000000E+00  0.00000000000E+00  0.45593999997E+02  0.45594000000E+02  0.51100000000E-03 0. -1.
         11   -1    0    0    0    0 -0.00000000000E+00 -0.00000000000E+00 -0.45593999997E+02  0.45594000000E+02  0.51100000000E-03 0.  1.
    9900012    2    1    2    0    0  0.37861199494E+02  0.20696343691E+02 -0.46705554362E+01  0.47787272387E+02  0.20000006119E+02 0.  0.
         12    1    1    2    0    0 -0.37861199494E+02 -0.20696343691E+02  0.46705554362E+01  0.43400727613E+02  0.00000000000E+00 0. -1.
         11    1    3    3    0    0  0.15168527202E+02  0.13534035879E+02 -0.81086822442E+01  0.21886184515E+02  0.51100000000E-03 0. -1.
        -11    1    3    3    0    0  0.94901378028E+01  0.19956955687E+01 -0.32465675513E+01  0.10226715868E+02  0.51100000000E-03 0.  1.
         12    1    3    3    0    0  0.13202534489E+02  0.51666122434E+01  0.66846943594E+01  0.15674372003E+02  0.00000000000E+00 0. -1.
</event>
<event>
 7    1  0.2706925E-010  0.4778727E+02  0.7816164E-02  0.1312668E+00
        -11   -1    0    0    0    0  0.00000000000E+00  0.00000000000E+00  0.45593999997E+02  0.45594000000E+02  0.51100000000E-03 0. -1.
         11   -1    0    0    0    0 -0.00000000000E+00 -0.00000000000E+00 -0.45593999997E+02  0.45594000000E+02  0.51100000000E-03 0.  1.
    9900012    2    1    2    0    0 -0.11631781696E+02 -0.40830391654E+02 -0.90113148791E+01  0.47787273925E+02  0.20000013132E+02 0.  0.
         12    1    1    2    0    0  0.11631781696E+02  0.40830391654E+02  0.90113148791E+01  0.43400726075E+02  0.00000000000E+00 0. -1.
         11    1    3    3    0    0 -0.67077974774E+01 -0.31519323364E+02  0.38248134991E+00  0.32227450792E+02  0.51100000000E-03 0. -1.
        -11    1    3    3    0    0 -0.45914941324E+01 -0.19392271531E+01 -0.31753279939E+01  0.59097485944E+01  0.51100000000E-03 0.  1.
         12    1    3    3    0    0 -0.33249008611E+00 -0.73718411369E+01 -0.62184682350E+01  0.96500745383E+01  0.00000000000E+00 0. -1.
</event>
<event>
 7    1  0.2706925E-010  0.4778727E+02  0.7816164E-02  0.1312668E+00
        -11   -1    0    0    0    0  0.00000000000E+00  0.00000000000E+00  0.45593999997E+02  0.45594000000E+02  0.51100000000E-03 0.  1.
         11   -1    0    0    0    0 -0.00000000000E+00 -0.00000000000E+00 -0.45593999997E+02  0.45594000000E+02  0.51100000000E-03 0. -1.
    9900012    2    1    2    0    0 -0.18144791104E+02  0.31858434668E+02  0.23225632656E+02  0.47787270559E+02  0.19999997787E+02 0.  0.
         12    1    1    2    0    0  0.18144791104E+02 -0.31858434668E+02 -0.23225632656E+02  0.43400729441E+02  0.00000000000E+00 0. -1.
         11    1    3    3    0    0 -0.32006372749E+01  0.32064202167E+01 -0.26577220512E+01  0.52524942964E+01  0.51100000000E-03 0. -1.
        -11    1    3    3    0    0  0.48809943448E+00  0.57276923764E+01  0.70316567370E+01  0.90823398827E+01  0.51100000000E-03 0.  1.
         12    1    3    3    0    0 -0.15432253264E+02  0.22924322075E+02  0.18851697971E+02  0.33452436380E+02  0.00000000000E+00 0. -1.
</event>
<event>
 7    1  0.2706925E-010  0.4778727E+02  0.7816164E-02  0.1312668E+00
        -11   -1    0    0    0    0  0.00000000000E+00  0.00000000000E+00  0.45593999997E+02  0.45594000000E+02  0.51100000000E-03 0. -1.
         11   -1    0    0    0    0 -0.00000000000E+00 -0.00000000000E+00 -0.45593999997E+02  0.45594000000E+02  0.51100000000E-03 0.  1.
    9900012    2    1    2    0    0 -0.37080370465E+02 -0.19394082774E+02 -0.11512547843E+02  0.47787273298E+02  0.20000010275E+02 0.  0.
         12    1    1    2    0    0  0.37080370465E+02  0.19394082774E+02  0.11512547843E+02  0.43400726702E+02  0.00000000000E+00 0. -1.
         11    1    3    3    0    0 -0.27307143702E+02 -0.20784269168E+02 -0.10168320902E+02  0.35791908195E+02  0.51100000000E-03 0.  1.
        -11    1    3    3    0    0  0.51819994109E+00  0.39134587885E+00  0.11845280984E+01  0.13508478274E+01  0.51100000000E-03 0. -1.
         12    1    3    3    0    0 -0.10291426704E+02  0.99884051607E+00 -0.25287550402E+01  0.10644517275E+02  0.00000000000E+00 0. -1.
</event>
<event>
 7    1  0.2706925E-010  0.4778727E+02  0.7816164E-02  0.1312668E+00
        -11   -1    0    0    0    0  0.00000000000E+00  0.00000000000E+00  0.45593999997E+02  0.45594000000E+02  0.51100000000E-03 0.  1.
         11   -1    0    0    0    0 -0.00000000000E+00 -0.00000000000E+00 -0.45593999997E+02  0.45594000000E+02  0.51100000000E-03 0. -1.
    9900012    2    1    2    0    0 -0.11284409711E+02  0.21516861398E+02  0.35962622512E+02  0.47787269074E+02  0.19999991016E+02 0.  0.
         12    1    1    2    0    0  0.11284409711E+02 -0.21516861398E+02 -0.35962622512E+02  0.43400730926E+02  0.00000000000E+00 0. -1.
         11    1    3    3    0    0 -0.11612427344E+00  0.58858625605E+01  0.64911237325E+01  0.87630788254E+01  0.51100000000E-03 0. -1.
        -11    1    3    3    0    0 -0.68027654005E+01  0.18684714871E+02  0.25711100260E+02  0.32503182363E+02  0.51100000000E-03 0.  1.
        -12    1    3    3    0    0 -0.43655200372E+01 -0.30537160341E+01  0.37603985203E+01  0.65210078855E+01  0.00000000000E+00 0.  1.
</event>
<event>
 7    1  0.2706925E-010  0.4778727E+02  0.7816164E-02  0.1312668E+00
        -11   -1    0    0    0    0  0.00000000000E+00  0.00000000000E+00  0.45593999997E+02  0.45594000000E+02  0.51100000000E-03 0.  1.
         11   -1    0    0    0    0 -0.00000000000E+00 -0.00000000000E+00 -0.45593999997E+02  0.45594000000E+02  0.51100000000E-03 0. -1.
    9900012    2    1    2    0    0 -0.19716938694E+01 -0.35024648384E+02  0.25554054071E+02  0.47787271313E+02  0.20000001223E+02 0.  0.
         12    1    1    2    0    0  0.19716938694E+01  0.35024648384E+02 -0.25554054071E+02  0.43400728687E+02  0.00000000000E+00 0. -1.
         11    1    3    3    0    0 -0.24551922048E+01 -0.80202738971E+01  0.14729605059E+02  0.16950340044E+02  0.51100000000E-03 0. -1.
        -11    1    3    3    0    0 -0.47905449189E+01 -0.14607774169E+02  0.50719864723E+01  0.16188311643E+02  0.51100000000E-03 0.  1.
         12    1    3    3    0    0  0.52740432543E+01 -0.12396600318E+02  0.57524625389E+01  0.14648619626E+02  0.00000000000E+00 0. -1.
</event>
<event>
 7    1  0.2706925E-010  0.4778727E+02  0.7816164E-02  0.1312668E+00
        -11   -1    0    0    0    0  0.00000000000E+00  0.00000000000E+00  0.45593999997E+02  0.45594000000E+02  0.51100000000E-03 0.  1.
         11   -1    0    0    0    0 -0.00000000000E+00 -0.00000000000E+00 -0.45593999997E+02  0.45594000000E+02  0.51100000000E-03 0. -1.
    9900012    2    1    2    0    0 -0.36641936259E+01 -0.38117551573E+02  0.20426675403E+02  0.47787272807E+02  0.20000008036E+02 0.  0.
         12    1    1    2    0    0  0.36641936259E+01  0.38117551573E+02 -0.20426675403E+02  0.43400727193E+02  0.00000000000E+00 0. -1.
         11    1    3    3    0    0  0.12098466355E+01 -0.16398333695E+01 -0.25473036495E+01  0.32621371070E+01  0.51100000000E-03 0. -1.
        -11    1    3    3    0    0  0.22764064001E+01 -0.24647592882E+01  0.25270699328E+01  0.42003746444E+01  0.51100000000E-03 0.  1.
         12    1    3    3    0    0 -0.71504466615E+01 -0.34012958915E+02  0.20446909120E+02  0.40324761056E+02  0.00000000000E+00 0. -1.
</event>
<event>
 7    1  0.2706925E-010  0.4778727E+02  0.7816164E-02  0.1312668E+00
        -11   -1    0    0    0    0  0.00000000000E+00  0.00000000000E+00  0.45593999997E+02  0.45594000000E+02  0.51100000000E-03 0.  1.
         11   -1    0    0    0    0 -0.00000000000E+00 -0.00000000000E+00 -0.45593999997E+02  0.45594000000E+02  0.51100000000E-03 0. -1.
    9900012    2    1    2    0    0 -0.51183169157E+01 -0.14855001347E+01  0.43072258339E+02  0.47787270546E+02  0.19999997728E+02 0.  0.
         12    1    1    2    0    0  0.51183169157E+01  0.14855001347E+01 -0.43072258339E+02  0.43400729454E+02  0.00000000000E+00 0. -1.
         11    1    3    3    0    0  0.33064708004E+01  0.63399616912E+01  0.16038020894E+02  0.17559782967E+02  0.51100000000E-03 0. -1.
        -11    1    3    3    0    0 -0.30811649132E+00  0.12838688080E+01  0.27554102481E+01  0.30554117210E+01  0.51100000000E-03 0.  1.
         12    1    3    3    0    0 -0.81166712248E+01 -0.91093306339E+01  0.24278827197E+02  0.27172075858E+02  0.00000000000E+00 0. -1.
</event>
<event>
 7    1  0.2706925E-010  0.4778727E+02  0.7816164E-02  0.1312668E+00
        -11   -1    0    0    0    0  0.00000000000E+00  0.00000000000E+00  0.45593999997E+02  0.45594000000E+02  0.51100000000E-03 0.  1.
         11   -1    0    0    0    0 -0.00000000000E+00 -0.00000000000E+00 -0.45593999997E+02  0.45594000000E+02  0.51100000000E-03 0. -1.
    9900012    2    1    2    0    0  0.74051347023E+01  0.33675728823E+02  0.26357775187E+02  0.47787273687E+02  0.20000012048E+02 0.  0.
         12    1    1    2    0    0 -0.74051347023E+01 -0.33675728823E+02 -0.26357775187E+02  0.43400726313E+02  0.00000000000E+00 0. -1.
         11    1    3    3    0    0  0.35239883979E+01  0.43865193726E+01  0.62292016667E+01  0.83942242108E+01  0.51100000000E-03 0. -1.
        -11    1    3    3    0    0  0.45853024058E+01  0.95532943375E+00  0.63177913185E+01  0.78646131427E+01  0.51100000000E-03 0.  1.
        -12    1    3    3    0    0 -0.70415610129E+00  0.28333880017E+02  0.13810782201E+02  0.31528436333E+02  0.00000000000E+00 0.  1.
</event>
<event>
 7    1  0.2706925E-010  0.4778727E+02  0.7816164E-02  0.1312668E+00
        -11   -1    0    0    0    0  0.00000000000E+00  0.00000000000E+00  0.45593999997E+02  0.45594000000E+02  0.51100000000E-03 0. -1.
         11   -1    0    0    0    0 -0.00000000000E+00 -0.00000000000E+00 -0.45593999997E+02  0.45594000000E+02  0.51100000000E-03 0.  1.
    9900012    2    1    2    0    0  0.22312340903E+02 -0.13470407832E+02 -0.34703468150E+02  0.47787272525E+02  0.20000006749E+02 0.  0.
         12    1    1    2    0    0 -0.22312340903E+02  0.13470407832E+02  0.34703468150E+02  0.43400727475E+02  0.00000000000E+00 0. -1.
         11    1    3    3    0    0  0.11827515065E+01 -0.16741111061E+01 -0.50950028170E+01  0.54918669947E+01  0.51100000000E-03 0.  1.
        -11    1    3    3    0    0 -0.24302032862E+01 -0.21607400648E+01 -0.89197223993E+01  0.94940051391E+01  0.51100000000E-03 0. -1.
         12    1    3    3    0    0  0.23559792682E+02 -0.96355566613E+01 -0.20688742934E+02  0.32801400391E+02  0.00000000000E+00 0. -1.
</event>
<event>
 7    1  0.2706925E-010  0.4778726E+02  0.7816164E-02  0.1312668E+00
        -11   -1    0    0    0    0  0.00000000000E+00  0.00000000000E+00  0.45593999997E+02  0.45594000000E+02  0.51100000000E-03 0.  1.
         11   -1    0    0    0    0 -0.00000000000E+00 -0.00000000000E+00 -0.45593999997E+02  0.45594000000E+02  0.51100000000E-03 0. -1.
    9900012    2    1    2    0    0 -0.23133689294E+02 -0.33369725208E+02  0.15327044557E+02  0.47787257660E+02  0.19999938975E+02 0.  0.
         12    1    1    2    0    0  0.23133689294E+02  0.33369725208E+02 -0.15327044557E+02  0.43400742340E+02  0.00000000000E+00 0. -1.
         11    1    3    3    0    0 -0.71733190870E+01 -0.79699058307E+01 -0.36193111776E+01  0.11317036685E+02  0.51100000000E-03 0. -1.
        -11    1    3    3    0    0 -0.97582376042E+01 -0.14992617869E+02  0.16004486503E+02  0.24003028563E+02  0.51100000000E-03 0.  1.
         12    1    3    3    0    0 -0.62021326029E+01 -0.10407201508E+02  0.29418692315E+01  0.12467192412E+02  0.00000000000E+00 0. -1.
</event>
<event>
 7    1  0.2706925E-010  0.4778725E+02  0.7816164E-02  0.1312668E+00
        -11   -1    0    0    0    0  0.00000000000E+00  0.00000000000E+00  0.45593999997E+02  0.45594000000E+02  0.51100000000E-03 0.  1.
         11   -1    0    0    0    0 -0.00000000000E+00 -0.00000000000E+00 -0.45593999997E+02  0.45594000000E+02  0.51100000000E-03 0. -1.
    9900012    2    1    2    0    0 -0.40310790043E+02  0.11178095862E+02  0.11563542650E+02  0.47787249550E+02  0.19999901999E+02 0.  0.
         12    1    1    2    0    0  0.40310790043E+02 -0.11178095862E+02 -0.11563542650E+02  0.43400750450E+02  0.00000000000E+00 0. -1.
         11    1    3    3    0    0 -0.16068897008E+02  0.24082108036E+01  0.14567037051E+02  0.21822179063E+02  0.51100000000E-03 0. -1.
        -11    1    3    3    0    0 -0.14249948893E+02  0.49525047451E+01 -0.14304619222E+01  0.15153698172E+02  0.51100000000E-03 0.  1.
         12    1    3    3    0    0 -0.99919441411E+01  0.38173803134E+01 -0.15730324780E+01  0.10811372316E+02  0.00000000000E+00 0. -1.
</event>
<event>
 7    1  0.2706925E-010  0.4778727E+02  0.7816164E-02  0.1312668E+00
        -11   -1    0    0    0    0  0.00000000000E+00  0.00000000000E+00  0.45593999997E+02  0.45594000000E+02  0.51100000000E-03 0.  1.
         11   -1    0    0    0    0 -0.00000000000E+00 -0.00000000000E+00 -0.45593999997E+02  0.45594000000E+02  0.51100000000E-03 0. -1.
    9900012    2    1    2    0    0  0.19779703989E+01  0.17473427195E+02  0.39678588802E+02  0.47787269198E+02  0.19999991583E+02 0.  0.
         12    1    1    2    0    0 -0.19779703989E+01 -0.17473427195E+02 -0.39678588802E+02  0.43400730802E+02  0.00000000000E+00 0. -1.
         11    1    3    3    0    0 -0.84316162335E+00  0.29115362200E+01  0.13296158498E+01  0.33099612162E+01  0.51100000000E-03 0. -1.
        -11    1    3    3    0    0 -0.10281518861E+00  0.91005553120E+00 -0.17730207706E+01  0.19955888722E+01  0.51100000000E-03 0.  1.
        -12    1    3    3    0    0  0.29239472108E+01  0.13651835444E+02  0.40121993722E+02  0.42481719110E+02  0.00000000000E+00 0.  1.
</event>
<event>
 7    1  0.2706925E-010  0.4778727E+02  0.7816164E-02  0.1312668E+00
        -11   -1    0    0    0    0  0.00000000000E+00  0.00000000000E+00  0.45593999997E+02  0.45594000000E+02  0.51100000000E-03 0.  1.
         11   -1    0    0    0    0 -0.00000000000E+00 -0.00000000000E+00 -0.45593999997E+02  0.45594000000E+02  0.51100000000E-03 0. -1.
    9900012    2    1    2    0    0 -0.25557410851E+02 -0.12539929486E+02  0.32759613836E+02  0.47787269826E+02  0.19999994446E+02 0.  0.
         12    1    1    2    0    0  0.25557410851E+02  0.12539929486E+02 -0.32759613836E+02  0.43400730174E+02  0.00000000000E+00 0. -1.
         11    1    3    3    0    0 -0.15974991902E+00  0.31770450166E+00 -0.19396106922E+01  0.19719396759E+01  0.51100000000E-03 0. -1.
        -11    1    3    3    0    0 -0.51963160770E+01  0.78137695483E+00  0.88044711204E+01  0.10253339099E+02  0.51100000000E-03 0.  1.
         12    1    3    3    0    0 -0.20201344855E+02 -0.13639010942E+02  0.25894753408E+02  0.35561991051E+02  0.00000000000E+00 0. -1.
</event>
<event>
 7    1  0.2706925E-010  0.4778728E+02  0.7816164E-02  0.1312668E+00
        -11   -1    0    0    0    0  0.00000000000E+00  0.00000000000E+00  0.45593999997E+02  0.45594000000E+02  0.51100000000E-03 0. -1.
         11   -1    0    0    0    0 -0.00000000000E+00 -0.00000000000E+00 -0.45593999997E+02  0.45594000000E+02  0.51100000000E-03 0.  1.
    9900012    2    1    2    0    0  0.35805801802E+02  0.15290398819E+02 -0.19177354905E+02  0.47787277888E+02  0.20000031201E+02 0.  0.
         12    1    1    2    0    0 -0.35805801802E+02 -0.15290398819E+02  0.19177354905E+02  0.43400722112E+02  0.00000000000E+00 0. -1.
         11    1    3    3    0    0  0.11267459581E+02  0.44562018591E+01 -0.13832687324E+02  0.18389035301E+02  0.51100000000E-03 0. -1.
        -11    1    3    3    0    0  0.99154453704E+01  0.26357716954E+01 -0.71962815096E+01  0.12531951849E+02  0.51100000000E-03 0.  1.
         12    1    3    3    0    0  0.14622896850E+02  0.81984252647E+01  0.18516139287E+01  0.16866290738E+02  0.00000000000E+00 0. -1.
</event>
<event>
 7    1  0.2706925E-010  0.4778730E+02  0.7816164E-02  0.1312668E+00
        -11   -1    0    0    0    0  0.00000000000E+00  0.00000000000E+00  0.45593999997E+02  0.45594000000E+02  0.51100000000E-03 0.  1.
         11   -1    0    0    0    0 -0.00000000000E+00 -0.00000000000E+00 -0.45593999997E+02  0.45594000000E+02  0.51100000000E-03 0. -1.
    9900012    2    1    2    0    0 -0.33594187359E+02 -0.18741027652E+02  0.20095411543E+02  0.47787296010E+02  0.20000113826E+02 0.  0.
         12    1    1    2    0    0  0.33594187359E+02  0.18741027652E+02 -0.20095411543E+02  0.43400703990E+02  0.00000000000E+00 0. -1.
         11    1    3    3    0    0 -0.25997414734E+02 -0.49931086725E+01  0.12942545590E+02  0.29467035713E+02  0.51100000000E-03 0. -1.
        -11    1    3    3    0    0 -0.86257855742E+00 -0.46954883202E+01 -0.32416289753E+00  0.47850532054E+01  0.51100000000E-03 0.  1.
         12    1    3    3    0    0 -0.67341940672E+01 -0.90524306589E+01  0.74770288514E+01  0.13535207092E+02  0.00000000000E+00 0. -1.
</event>
<event>
 7    1  0.2949912E-010  0.4778727E+02  0.7816164E-02  0.1312668E+00
        -11   -1    0    0    0    0  0.00000000000E+00  0.00000000000E+00  0.45593999997E+02  0.45594000000E+02  0.51100000000E-03 0.  1.
         11   -1    0    0    0    0 -0.00000000000E+00 -0.00000000000E+00 -0.45593999997E+02  0.45594000000E+02  0.51100000000E-03 0. -1.
    9900012    2    1    2    0    0 -0.42492908836E+02 -0.84832220607E+01 -0.24517827204E+01  0.47787267329E+02  0.19999983059E+02 0.  0.
         12    1    1    2    0    0  0.42492908836E+02  0.84832220607E+01  0.24517827204E+01  0.43400732671E+02  0.00000000000E+00 0. -1.
         11    1    3    3    0    0 -0.75512209182E+00 -0.15340929741E+00  0.30145240098E+01  0.31114464567E+01  0.51100000000E-03 0. -1.
        -11    1    3    3    0    0 -0.28095764550E+02 -0.31387940716E+01 -0.89801279053E+01  0.29662547284E+02  0.51100000000E-03 0.  1.
        -12    1    3    3    0    0 -0.13642022194E+02 -0.51910186916E+01  0.35138211751E+01  0.15013273589E+02  0.00000000000E+00 0.  1.
</event>
<event>
 7    1  0.2706925E-010  0.4778727E+02  0.7816164E-02  0.1312668E+00
        -11   -1    0    0    0    0  0.00000000000E+00  0.00000000000E+00  0.45593999997E+02  0.45594000000E+02  0.51100000000E-03 0.  1.
         11   -1    0    0    0    0 -0.00000000000E+00 -0.00000000000E+00 -0.45593999997E+02  0.45594000000E+02  0.51100000000E-03 0. -1.
    9900012    2    1    2    0    0 -0.20138896283E+02 -0.36055757890E+02  0.13342796960E+02  0.47787273609E+02  0.20000011694E+02 0.  0.
         12    1    1    2    0    0  0.20138896283E+02  0.36055757890E+02 -0.13342796960E+02  0.43400726391E+02  0.00000000000E+00 0. -1.
         11    1    3    3    0    0 -0.37457059748E+00 -0.94358168978E+01 -0.33724313056E+01  0.10027374374E+02  0.51100000000E-03 0. -1.
        -11    1    3    3    0    0 -0.18466395066E+02 -0.21829630879E+02  0.15943049028E+02  0.32737155399E+02  0.51100000000E-03 0.  1.
         12    1    3    3    0    0 -0.12979306202E+01 -0.47903101129E+01  0.77217923807E+00  0.50227438366E+01  0.00000000000E+00 0. -1.
</event>
<event>
 7    1  0.2706925E-010  0.4778727E+02  0.7816164E-02  0.1312668E+00
        -11   -1    0    0    0    0  0.00000000000E+00  0.00000000000E+00  0.45593999997E+02  0.45594000000E+02  0.51100000000E-03 0.  1.
         11   -1    0    0    0    0 -0.00000000000E+00 -0.00000000000E+00 -0.45593999997E+02  0.45594000000E+02  0.51100000000E-03 0. -1.
    9900012    2    1    2    0    0 -0.10895602186E+02 -0.39278238682E+02  0.14903996064E+02  0.47787270979E+02  0.19999999699E+02 0.  0.
         12    1    1    2    0    0  0.10895602186E+02  0.39278238682E+02 -0.14903996064E+02  0.43400729021E+02  0.00000000000E+00 0. -1.
         11    1    3    3    0    0 -0.12258661260E+02 -0.22049626483E+02  0.91175896090E+01  0.26825197939E+02  0.51100000000E-03 0. -1.
        -11    1    3    3    0    0 -0.18989019152E+01 -0.84583232931E+01  0.74835047039E+01  0.11452157191E+02  0.51100000000E-03 0.  1.
         12    1    3    3    0    0  0.32619609891E+01 -0.87702889053E+01 -0.16970982490E+01  0.95099158484E+01  0.00000000000E+00 0. -1.
</event>
<event>
 7    1  0.2706925E-010  0.4778725E+02  0.7816164E-02  0.1312668E+00
        -11   -1    0    0    0    0  0.00000000000E+00  0.00000000000E+00  0.45593999997E+02  0.45594000000E+02  0.51100000000E-03 0.  1.
         11   -1    0    0    0    0 -0.00000000000E+00 -0.00000000000E+00 -0.45593999997E+02  0.45594000000E+02  0.51100000000E-03 0. -1.
    9900012    2    1    2    0    0 -0.51236971232E+01 -0.16145130681E+02  0.39958821503E+02  0.47787251933E+02  0.19999912861E+02 0.  0.
         12    1    1    2    0    0  0.51236971232E+01  0.16145130681E+02 -0.39958821503E+02  0.43400748067E+02  0.00000000000E+00 0. -1.
         11    1    3    3    0    0  0.42247321495E+01 -0.11202187552E+02  0.16618960210E+02  0.20482363302E+02  0.51100000000E-03 0.  1.
        -11    1    3    3    0    0 -0.22892045087E+01  0.27468090466E+01  0.43109151849E+01  0.56008398668E+01  0.51100000000E-03 0. -1.
        -12    1    3    3    0    0 -0.70592247639E+01 -0.76897521753E+01  0.19028946108E+02  0.21704048764E+02  0.00000000000E+00 0.  1.
</event>
<event>
 7    1  0.2706925E-010  0.4778728E+02  0.7816164E-02  0.1312668E+00
        -11   -1    0    0    0    0  0.00000000000E+00  0.00000000000E+00  0.45593999997E+02  0.45594000000E+02  0.51100000000E-03 0.  1.
         11   -1    0    0    0    0 -0.00000000000E+00 -0.00000000000E+00 -0.45593999997E+02  0.45594000000E+02  0.51100000000E-03 0. -1.
    9900012    2    1    2    0    0 -0.18286013446E+00 -0.43154376103E+01  0.43185249586E+02  0.47787283169E+02  0.20000055282E+02 0.  0.
         12    1    1    2    0    0  0.18286013446E+00  0.43154376103E+01 -0.43185249586E+02  0.43400716831E+02  0.00000000000E+00 0. -1.
         11    1    3    3    0    0 -0.13037787618E+01 -0.23138419206E+01  0.21550433491E+01  0.34202215704E+01  0.51100000000E-03 0. -1.
        -11    1    3    3    0    0  0.92356259894E+00 -0.89845877819E+01  0.15924128095E+02  0.18307201898E+02  0.51100000000E-03 0.  1.
        -12    1    3    3    0    0  0.19735602843E+00  0.69829920922E+01  0.25106078142E+02  0.26059859701E+02  0.00000000000E+00 0.  1.
</event>
<event>
 7    1  0.2706925E-010  0.4778727E+02  0.7816164E-02  0.1312668E+00
        -11   -1    0    0    0    0  0.00000000000E+00  0.00000000000E+00  0.45593999997E+02  0.45594000000E+02  0.51100000000E-03 0. -1.
         11   -1    0    0    0    0 -0.00000000000E+00 -0.00000000000E+00 -0.45593999997E+02  0.45594000000E+02  0.51100000000E-03 0.  1.
    9900012    2    1    2    0    0  0.42676042378E+02  0.57268427287E+01  0.54389314280E+01  0.47787270792E+02  0.19999998848E+02 0.  0.
         12    1    1    2    0    0 -0.42676042378E+02 -0.57268427287E+01 -0.54389314280E+01  0.43400729208E+02  0.00000000000E+00 0. -1.
         11    1    3    3    0    0  0.11719706753E+02  0.85402416646E+01  0.38113784098E+01  0.14993794040E+02  0.51100000000E-03 0. -1.
        -11    1    3    3    0    0  0.70736006900E+01 -0.51342934332E+01  0.90645531274E+00  0.87874033295E+01  0.51100000000E-03 0.  1.
        -12    1    3    3    0    0  0.23882734935E+02  0.23208944973E+01  0.72109770549E+00  0.24006073422E+02  0.00000000000E+00 0.  1.
</event>
<event>
 7    1  0.2706925E-010  0.4778727E+02  0.7816164E-02  0.1312668E+00
        -11   -1    0    0    0    0  0.00000000000E+00  0.00000000000E+00  0.45593999997E+02  0.45594000000E+02  0.51100000000E-03 0.  1.
         11   -1    0    0    0    0 -0.00000000000E+00 -0.00000000000E+00 -0.45593999997E+02  0.45594000000E+02  0.51100000000E-03 0. -1.
    9900012    2    1    2    0    0 -0.21091984339E+02 -0.32395582616E+02  0.19730116079E+02  0.47787273544E+02  0.20000011396E+02 0.  0.
         12    1    1    2    0    0  0.21091984339E+02  0.32395582616E+02 -0.19730116079E+02  0.43400726456E+02  0.00000000000E+00 0. -1.
         11    1    3    3    0    0 -0.91221904047E+01 -0.11520746367E+02 -0.10539820908E+01  0.14732713027E+02  0.51100000000E-03 0. -1.
        -11    1    3    3    0    0 -0.94179725119E+01 -0.20270579990E+02  0.15638458942E+02  0.27279223188E+02  0.51100000000E-03 0.  1.
         12    1    3    3    0    0 -0.25518214229E+01 -0.60425625859E+00  0.51456392276E+01  0.57753373288E+01  0.00000000000E+00 0. -1.
</event>
<event>
 7    1  0.2706925E-010  0.4778727E+02  0.7816164E-02  0.1312668E+00
        -11   -1    0    0    0    0  0.00000000000E+00  0.00000000000E+00  0.45593999997E+02  0.45594000000E+02  0.51100000000E-03 0.  1.
         11   -1    0    0    0    0 -0.00000000000E+00 -0.00000000000E+00 -0.45593999997E+02  0.45594000000E+02  0.51100000000E-03 0. -1.
    9900012    2    1    2    0    0 -0.33566796196E+02  0.26117430606E+02  0.86471619143E+01  0.47787269620E+02  0.19999993507E+02 0.  0.
         12    1    1    2    0    0  0.33566796196E+02 -0.26117430606E+02 -0.86471619143E+01  0.43400730380E+02  0.00000000000E+00 0. -1.
         11    1    3    3    0    0 -0.71194889067E+01 -0.13079628933E+01 -0.12007618215E+01  0.73375553447E+01  0.51100000000E-03 0. -1.
        -11    1    3    3    0    0 -0.16794865735E+02  0.19614468906E+02  0.23137943391E+01  0.25925827856E+02  0.51100000000E-03 0.  1.
         12    1    3    3    0    0 -0.96524415540E+01  0.78109245936E+01  0.75341293967E+01  0.14523886420E+02  0.00000000000E+00 0. -1.
</event>
<event>
 7    1  0.2706925E-010  0.4778727E+02  0.7816164E-02  0.1312668E+00
        -11   -1    0    0    0    0  0.00000000000E+00  0.00000000000E+00  0.45593999997E+02  0.45594000000E+02  0.51100000000E-03 0.  1.
         11   -1    0    0    0    0 -0.00000000000E+00 -0.00000000000E+00 -0.45593999997E+02  0.45594000000E+02  0.51100000000E-03 0. -1.
    9900012    2    1    2    0    0  0.28341333326E+02  0.31895207812E+02  0.79427885728E+01  0.47787270209E+02  0.19999996192E+02 0.  0.
         12    1    1    2    0    0 -0.28341333326E+02 -0.31895207812E+02 -0.79427885728E+01  0.43400729791E+02  0.00000000000E+00 0. -1.
         11    1    3    3    0    0  0.16195768485E+02  0.97130156729E+01 -0.16033579768E+01  0.18953003649E+02  0.51100000000E-03 0. -1.
        -11    1    3    3    0    0  0.82498022615E+01  0.16859082557E+02  0.11427993552E+02  0.21974688596E+02  0.51100000000E-03 0.  1.
        -12    1    3    3    0    0  0.38957625797E+01  0.53231095828E+01 -0.18818470019E+01  0.68595779642E+01  0.00000000000E+00 0.  1.
</event>
<event>
 7    1  0.2706925E-010  0.4778727E+02  0.7816164E-02  0.1312668E+00
        -11   -1    0    0    0    0  0.00000000000E+00  0.00000000000E+00  0.45593999997E+02  0.45594000000E+02  0.51100000000E-03 0. -1.
         11   -1    0    0    0    0 -0.00000000000E+00 -0.00000000000E+00 -0.45593999997E+02  0.45594000000E+02  0.51100000000E-03 0.  1.
    9900012    2    1    2    0    0 -0.32781154267E+02  0.28205042864E+02  0.36735399123E+01  0.47787269436E+02  0.19999992665E+02 0.  0.
         12    1    1    2    0    0  0.32781154267E+02 -0.28205042864E+02 -0.36735399123E+01  0.43400730564E+02  0.00000000000E+00 0. -1.
         11    1    3    3    0    0  0.10601232777E+01  0.62436636408E+01  0.84335492289E+00  0.63889314295E+01  0.51100000000E-03 0. -1.
        -11    1    3    3    0    0 -0.32223141476E+02  0.22606040728E+02  0.35327185138E+01  0.39520172372E+02  0.51100000000E-03 0.  1.
        -12    1    3    3    0    0 -0.16181360695E+01 -0.64466150567E+00 -0.70253352439E+00  0.18781656341E+01  0.00000000000E+00 0.  1.
</event>
<event>
 7    1  0.2706925E-010  0.4778727E+02  0.7816164E-02  0.1312668E+00
        -11   -1    0    0    0    0  0.00000000000E+00  0.00000000000E+00  0.45593999997E+02  0.45594000000E+02  0.51100000000E-03 0.  1.
         11   -1    0    0    0    0 -0.00000000000E+00 -0.00000000000E+00 -0.45593999997E+02  0.45594000000E+02  0.51100000000E-03 0. -1.
    9900012    2    1    2    0    0  0.24002596712E+02 -0.32180442423E+02  0.16489935047E+02  0.47787268655E+02  0.19999989104E+02 0.  0.
         12    1    1    2    0    0 -0.24002596712E+02  0.32180442423E+02 -0.16489935047E+02  0.43400731345E+02  0.00000000000E+00 0. -1.
         11    1    3    3    0    0  0.10283121829E+02 -0.25025032382E+02  0.13003164129E+02  0.30017946597E+02  0.51100000000E-03 0. -1.
        -11    1    3    3    0    0  0.89288426450E+01 -0.61992078257E+01  0.58483436299E+01  0.12343319331E+02  0.51100000000E-03 0.  1.
         12    1    3    3    0    0  0.47906322382E+01 -0.95620221538E+00 -0.23615727115E+01  0.54260027267E+01  0.00000000000E+00 0. -1.
</event>
<event>
 7    1  0.2706925E-010  0.4778727E+02  0.7816164E-02  0.1312668E+00
        -11   -1    0    0    0    0  0.00000000000E+00  0.00000000000E+00  0.45593999997E+02  0.45594000000E+02  0.51100000000E-03 0.  1.
         11   -1    0    0    0    0 -0.00000000000E+00 -0.00000000000E+00 -0.45593999997E+02  0.45594000000E+02  0.51100000000E-03 0. -1.
    9900012    2    1    2    0    0 -0.93135138420E+01  0.38836447275E+00  0.42387861171E+02  0.47787272567E+02  0.20000006941E+02 0.  0.
         12    1    1    2    0    0  0.93135138420E+01 -0.38836447275E+00 -0.42387861171E+02  0.43400727433E+02  0.00000000000E+00 0. -1.
         11    1    3    3    0    0  0.29602514380E+01  0.36498966884E+01  0.20727034801E+02  0.21253112862E+02  0.51100000000E-03 0. -1.
        -11    1    3    3    0    0 -0.13060473027E+02 -0.44375907490E+01  0.20475527300E+02  0.24688365394E+02  0.51100000000E-03 0.  1.
         12    1    3    3    0    0  0.78670774702E+00  0.11760585333E+01  0.11852990699E+01  0.18457943109E+01  0.00000000000E+00 0. -1.
</event>
<event>
 7    1  0.2706925E-010  0.4778728E+02  0.7816164E-02  0.1312668E+00
        -11   -1    0    0    0    0  0.00000000000E+00  0.00000000000E+00  0.45593999997E+02  0.45594000000E+02  0.51100000000E-03 0.  1.
         11   -1    0    0    0    0 -0.00000000000E+00 -0.00000000000E+00 -0.45593999997E+02  0.45594000000E+02  0.51100000000E-03 0. -1.
    9900012    2    1    2    0    0 -0.10208460716E+02  0.17306134013E+02  0.38469570589E+02  0.47787276435E+02  0.20000024578E+02 0.  0.
         12    1    1    2    0    0  0.10208460716E+02 -0.17306134013E+02 -0.38469570589E+02  0.43400723565E+02  0.00000000000E+00 0. -1.
         11    1    3    3    0    0 -0.99064932337E+01  0.44590504862E+01  0.10731905032E+02  0.15270740824E+02  0.51100000000E-03 0. -1.
        -11    1    3    3    0    0 -0.83119256156E+00  0.71866185992E+01  0.25329467422E+02  0.26342366790E+02  0.51100000000E-03 0.  1.
        -12    1    3    3    0    0  0.52922507877E+00  0.56604649273E+01  0.24081981349E+01  0.61741688213E+01  0.00000000000E+00 0.  1.
</event>
<event>
 7    1  0.2706925E-010  0.4778727E+02  0.7816164E-02  0.1312668E+00
        -11   -1    0    0    0    0  0.00000000000E+00  0.00000000000E+00  0.45593999997E+02  0.45594000000E+02  0.51100000000E-03 0.  1.
         11   -1    0    0    0    0 -0.00000000000E+00 -0.00000000000E+00 -0.45593999997E+02  0.45594000000E+02  0.51100000000E-03 0. -1.
    9900012    2    1    2    0    0 -0.10630294407E+02  0.21384947619E+02  0.36239537774E+02  0.47787271412E+02  0.20000001678E+02 0.  0.
         12    1    1    2    0    0  0.10630294407E+02 -0.21384947619E+02 -0.36239537774E+02  0.43400728588E+02  0.00000000000E+00 0. -1.
         11    1    3    3    0    0 -0.28788569495E+01  0.11151251655E+01  0.48284057683E+01  0.57310403937E+01  0.51100000000E-03 0. -1.
        -11    1    3    3    0    0  0.22501903032E+01  0.74511588900E+01  0.13780585940E+01  0.79045664621E+01  0.51100000000E-03 0.  1.
        -12    1    3    3    0    0 -0.10001627760E+02  0.12818663563E+02  0.30033073412E+02  0.34151664557E+02  0.00000000000E+00 0.  1.
</event>
<event>
 7    1  0.2706925E-010  0.4778727E+02  0.7816164E-02  0.1312668E+00
        -11   -1    0    0    0    0  0.00000000000E+00  0.00000000000E+00  0.45593999997E+02  0.45594000000E+02  0.51100000000E-03 0.  1.
         11   -1    0    0    0    0 -0.00000000000E+00 -0.00000000000E+00 -0.45593999997E+02  0.45594000000E+02  0.51100000000E-03 0. -1.
    9900012    2    1    2    0    0  0.57656847988E+01  0.23634081630E+02  0.35941759957E+02  0.47787273687E+02  0.20000012048E+02 0.  0.
         12    1    1    2    0    0 -0.57656847988E+01 -0.23634081630E+02 -0.35941759957E+02  0.43400726313E+02  0.00000000000E+00 0. -1.
         11    1    3    3    0    0 -0.38299070775E+01  0.11249583151E+02  0.15080757287E+02  0.19200274735E+02  0.51100000000E-03 0. -1.
        -11    1    3    3    0    0  0.11160634133E+02  0.13194622484E+02  0.20455891668E+02  0.26778747561E+02  0.51100000000E-03 0.  1.
        -12    1    3    3    0    0 -0.15650422565E+01 -0.81012400548E+00  0.40511100259E+00  0.18082513911E+01  0.00000000000E+00 0.  1.
</event>
<event>
 7    1  0.2706925E-010  0.4778726E+02  0.7816164E-02  0.1312668E+00
        -11   -1    0    0    0    0  0.00000000000E+00  0.00000000000E+00  0.45593999997E+02  0.45594000000E+02  0.51100000000E-03 0.  1.
         11   -1    0    0    0    0 -0.00000000000E+00 -0.00000000000E+00 -0.45593999997E+02  0.45594000000E+02  0.51100000000E-03 0. -1.
    9900012    2    1    2    0    0  0.35282610312E+01  0.25418001663E+02  0.35001437362E+02  0.47787262081E+02  0.19999959133E+02 0.  0.
         12    1    1    2    0    0 -0.35282610312E+01 -0.25418001663E+02 -0.35001437362E+02  0.43400737919E+02  0.00000000000E+00 0. -1.
         11    1    3    3    0    0 -0.17050191510E+01  0.48535313354E-01  0.81126930934E+01  0.82900684841E+01  0.51100000000E-03 0. -1.
        -11    1    3    3    0    0  0.11016613705E+01  0.22401264249E+02  0.16223921099E+02  0.27681147263E+02  0.51100000000E-03 0.  1.
        -12    1    3    3    0    0  0.41316188118E+01  0.29682021011E+01  0.10664823170E+02  0.11816046334E+02  0.00000000000E+00 0.  1.
</event>
<event>
 7    1  0.2706925E-010  0.4778727E+02  0.7816164E-02  0.1312668E+00
        -11   -1    0    0    0    0  0.00000000000E+00  0.00000000000E+00  0.45593999997E+02  0.45594000000E+02  0.51100000000E-03 0.  1.
         11   -1    0    0    0    0 -0.00000000000E+00 -0.00000000000E+00 -0.45593999997E+02  0.45594000000E+02  0.51100000000E-03 0. -1.
    9900012    2    1    2    0    0 -0.42224065133E+02 -0.72142077337E+00 -0.10011551977E+02  0.47787270775E+02  0.19999998772E+02 0.  0.
         12    1    1    2    0    0  0.42224065133E+02  0.72142077337E+00  0.10011551977E+02  0.43400729225E+02  0.00000000000E+00 0. -1.
         11    1    3    3    0    0 -0.71325475325E+01 -0.70977160141E+01 -0.48213074394E+01  0.11157769159E+02  0.51100000000E-03 0. -1.
        -11    1    3    3    0    0 -0.34224915413E+02  0.62745741178E+01 -0.38191360346E+01  0.35004298532E+02  0.51100000000E-03 0.  1.
        -12    1    3    3    0    0 -0.86660218725E+00  0.10172112293E+00 -0.13711085030E+01  0.16252030842E+01  0.00000000000E+00 0.  1.
</event>
<event>
 7    1  0.2706925E-010  0.4778727E+02  0.7816164E-02  0.1312668E+00
        -11   -1    0    0    0    0  0.00000000000E+00  0.00000000000E+00  0.45593999997E+02  0.45594000000E+02  0.51100000000E-03 0. -1.
         11   -1    0    0    0    0 -0.00000000000E+00 -0.00000000000E+00 -0.45593999997E+02  0.45594000000E+02  0.51100000000E-03 0.  1.
    9900012    2    1    2    0    0 -0.42966991753E+01  0.42008865451E+02  0.10020811856E+02  0.47787273387E+02  0.20000010681E+02 0.  0.
         12    1    1    2    0    0  0.42966991753E+01 -0.42008865451E+02 -0.10020811856E+02  0.43400726613E+02  0.00000000000E+00 0. -1.
         11    1    3    3    0    0 -0.17419554789E+01  0.98270604299E+01  0.10487480788E+02  0.14477319473E+02  0.51100000000E-03 0. -1.
        -11    1    3    3    0    0  0.15677936265E+01  0.10349709858E+01  0.15834427626E+00  0.18852625726E+01  0.51100000000E-03 0.  1.
         12    1    3    3    0    0 -0.41225373229E+01  0.31146834035E+02 -0.62501320848E+00  0.31424691342E+02  0.00000000000E+00 0. -1.
</event>
<event>
 7    1  0.2706925E-010  0.4778727E+02  0.7816164E-02  0.1312668E+00
        -11   -1    0    0    0    0  0.00000000000E+00  0.00000000000E+00  0.45593999997E+02  0.45594000000E+02  0.51100000000E-03 0.  1.
         11   -1    0    0    0    0 -0.00000000000E+00 -0.00000000000E+00 -0.45593999997E+02  0.45594000000E+02  0.51100000000E-03 0. -1.
    9900012    2    1    2    0    0 -0.24128717915E+02 -0.30233301312E+02  0.19681860781E+02  0.47787272123E+02  0.20000004918E+02 0.  0.
         12    1    1    2    0    0  0.24128717915E+02  0.30233301312E+02 -0.19681860781E+02  0.43400727877E+02  0.00000000000E+00 0. -1.
         11    1    3    3    0    0 -0.12794709942E+02 -0.85406126515E+01  0.30473798272E+01  0.15682257205E+02  0.51100000000E-03 0. -1.
        -11    1    3    3    0    0 -0.44702018745E+01 -0.91368449773E+01  0.14387779848E+02  0.17620239787E+02  0.51100000000E-03 0.  1.
        -12    1    3    3    0    0 -0.68638060983E+01 -0.12555843683E+02  0.22467011063E+01  0.14484775131E+02  0.00000000000E+00 0.  1.
</event>
<event>
 7    1  0.2706925E-010  0.4778727E+02  0.7816164E-02  0.1312668E+00
        -11   -1    0    0    0    0  0.00000000000E+00  0.00000000000E+00  0.45593999997E+02  0.45594000000E+02  0.51100000000E-03 0.  1.
         11   -1    0    0    0    0 -0.00000000000E+00 -0.00000000000E+00 -0.45593999997E+02  0.45594000000E+02  0.51100000000E-03 0. -1.
    9900012    2    1    2    0    0 -0.26283931777E+02  0.30906482205E+02  0.15413217565E+02  0.47787274341E+02  0.20000015032E+02 0.  0.
         12    1    1    2    0    0  0.26283931777E+02 -0.30906482205E+02 -0.15413217565E+02  0.43400725659E+02  0.00000000000E+00 0. -1.
         11    1    3    3    0    0 -0.89338739199E+01  0.19265410746E+02  0.15973546798E+02  0.26573000433E+02  0.51100000000E-03 0. -1.
        -11    1    3    3    0    0 -0.12560387259E+02  0.85172246092E+01 -0.20275801163E+01  0.15310699675E+02  0.51100000000E-03 0.  1.
         12    1    3    3    0    0 -0.47896705975E+01  0.31238468504E+01  0.14672508837E+01  0.59035742337E+01  0.00000000000E+00 0. -1.
</event>
<event>
 7    1  0.2706925E-010  0.4778728E+02  0.7816164E-02  0.1312668E+00
        -11   -1    0    0    0    0  0.00000000000E+00  0.00000000000E+00  0.45593999997E+02  0.45594000000E+02  0.51100000000E-03 0.  1.
         11   -1    0    0    0    0 -0.00000000000E+00 -0.00000000000E+00 -0.45593999997E+02  0.45594000000E+02  0.51100000000E-03 0. -1.
    9900012    2    1    2    0    0 -0.29302187949E+02  0.29302954523E+02  0.12897334225E+02  0.47787278895E+02  0.20000035793E+02 0.  0.
         12    1    1    2    0    0  0.29302187949E+02 -0.29302954523E+02 -0.12897334225E+02  0.43400721105E+02  0.00000000000E+00 0. -1.
         11    1    3    3    0    0 -0.16577264535E+02  0.23930050318E+02  0.42592133793E+01  0.29420977322E+02  0.51100000000E-03 0. -1.
        -11    1    3    3    0    0 -0.11327612091E+02  0.75538175377E+01  0.73804390220E+01  0.15486956948E+02  0.51100000000E-03 0.  1.
         12    1    3    3    0    0 -0.13973113221E+01 -0.21809133334E+01  0.12576818235E+01  0.28793446247E+01  0.00000000000E+00 0. -1.
</event>
<event>
 7    1  0.2706925E-010  0.4778727E+02  0.7816164E-02  0.1312668E+00
        -11   -1    0    0    0    0  0.00000000000E+00  0.00000000000E+00  0.45593999997E+02  0.45594000000E+02  0.51100000000E-03 0.  1.
         11   -1    0    0    0    0 -0.00000000000E+00 -0.00000000000E+00 -0.45593999997E+02  0.45594000000E+02  0.51100000000E-03 0. -1.
    9900012    2    1    2    0    0  0.34645026592E+02 -0.21993894650E+02 -0.14128478094E+02  0.47787272326E+02  0.20000005842E+02 0.  0.
         12    1    1    2    0    0 -0.34645026592E+02  0.21993894650E+02  0.14128478094E+02  0.43400727674E+02  0.00000000000E+00 0. -1.
         11    1    3    3    0    0  0.15138906974E+02 -0.69030078440E+01 -0.20550238252E+01  0.16764878313E+02  0.51100000000E-03 0. -1.
        -11    1    3    3    0    0  0.18873794991E+01 -0.26607913623E+01 -0.85797624897E+01  0.91790161068E+01  0.51100000000E-03 0.  1.
        -12    1    3    3    0    0  0.17618740119E+02 -0.12430095443E+02 -0.34936917792E+01  0.21843377906E+02  0.00000000000E+00 0.  1.
</event>
<event>
 7    1  0.2706925E-010  0.4778727E+02  0.7816164E-02  0.1312668E+00
        -11   -1    0    0    0    0  0.00000000000E+00  0.00000000000E+00  0.45593999997E+02  0.45594000000E+02  0.51100000000E-03 0.  1.
         11   -1    0    0    0    0 -0.00000000000E+00 -0.00000000000E+00 -0.45593999997E+02  0.45594000000E+02  0.51100000000E-03 0. -1.
    9900012    2    1    2    0    0  0.90582615251E+01 -0.23590831877E+02  0.35285181942E+02  0.47787268265E+02  0.19999987327E+02 0.  0.
         12    1    1    2    0    0 -0.90582615251E+01  0.23590831877E+02 -0.35285181942E+02  0.43400731735E+02  0.00000000000E+00 0. -1.
         11    1    3    3    0    0  0.18875968385E+01  0.32266590307E-01 -0.16899872876E+01  0.25337956214E+01  0.51100000000E-03 0. -1.
        -11    1    3    3    0    0  0.83622503661E+01 -0.15905000004E+02  0.28812266719E+02  0.33956486421E+02  0.51100000000E-03 0.  1.
        -12    1    3    3    0    0 -0.11915856794E+01 -0.77180984635E+01  0.81629025097E+01  0.11296986222E+02  0.00000000000E+00 0.  1.
</event>
<event>
 7    1  0.2706925E-010  0.4778727E+02  0.7816164E-02  0.1312668E+00
        -11   -1    0    0    0    0  0.00000000000E+00  0.00000000000E+00  0.45593999997E+02  0.45594000000E+02  0.51100000000E-03 0. -1.
         11   -1    0    0    0    0 -0.00000000000E+00 -0.00000000000E+00 -0.45593999997E+02  0.45594000000E+02  0.51100000000E-03 0.  1.
    9900012    2    1    2    0    0  0.19968464103E+01  0.18479050189E+02 -0.39219390324E+02  0.47787271103E+02  0.20000000265E+02 0.  0.
         12    1    1    2    0    0 -0.19968464103E+01 -0.18479050189E+02  0.39219390324E+02  0.43400728897E+02  0.00000000000E+00 0. -1.
         11    1    3    3    0    0  0.40613075429E+01  0.14375443173E+02 -0.96947271010E+01  0.17808293551E+02  0.51100000000E-03 0.  1.
        -11    1    3    3    0    0  0.21187500674E-01  0.18406737842E+01 -0.16163308772E+02  0.16267792709E+02  0.51100000000E-03 0. -1.
        -12    1    3    3    0    0 -0.20856486333E+01  0.22629332315E+01 -0.13361354450E+02  0.13711184842E+02  0.00000000000E+00 0.  1.
</event>
<event>
 7    1  0.2706925E-010  0.4778727E+02  0.7816164E-02  0.1312668E+00
        -11   -1    0    0    0    0  0.00000000000E+00  0.00000000000E+00  0.45593999997E+02  0.45594000000E+02  0.51100000000E-03 0.  1.
         11   -1    0    0    0    0 -0.00000000000E+00 -0.00000000000E+00 -0.45593999997E+02  0.45594000000E+02  0.51100000000E-03 0. -1.
    9900012    2    1    2    0    0 -0.20844148797E+02 -0.30527962025E+02 -0.22741773261E+02  0.47787271256E+02  0.20000000964E+02 0.  0.
         12    1    1    2    0    0  0.20844148797E+02  0.30527962025E+02  0.22741773261E+02  0.43400728744E+02  0.00000000000E+00 0. -1.
         11    1    3    3    0    0 -0.10132608683E+00  0.22063754308E+01 -0.25621943221E+01  0.33827798514E+01  0.51100000000E-03 0. -1.
        -11    1    3    3    0    0 -0.12124395051E+02 -0.25136767377E+02 -0.16060111294E+02  0.32199149128E+02  0.51100000000E-03 0.  1.
         12    1    3    3    0    0 -0.86184276586E+01 -0.75975700791E+01 -0.41194676454E+01  0.12205342277E+02  0.00000000000E+00 0. -1.
</event>
<event>
 7    1  0.2706925E-010  0.4778726E+02  0.7816164E-02  0.1312668E+00
        -11   -1    0    0    0    0  0.00000000000E+00  0.00000000000E+00  0.45593999997E+02  0.45594000000E+02  0.51100000000E-03 0. -1.
         11   -1    0    0    0    0 -0.00000000000E+00 -0.00000000000E+00 -0.45593999997E+02  0.45594000000E+02  0.51100000000E-03 0.  1.
    9900012    2    1    2    0    0  0.29453249398E+02  0.15865484259E+02 -0.27648086129E+02  0.47787260865E+02  0.19999953588E+02 0.  0.
         12    1    1    2    0    0 -0.29453249398E+02 -0.15865484259E+02  0.27648086129E+02  0.43400739135E+02  0.00000000000E+00 0. -1.
         11    1    3    3    0    0  0.20192424717E+02  0.95934584309E+00 -0.17513697744E+02  0.26746662770E+02  0.51100000000E-03 0. -1.
        -11    1    3    3    0    0  0.50333211606E+01  0.12414516375E+02 -0.62509766693E+01  0.14782734805E+02  0.51100000000E-03 0.  1.
        -12    1    3    3    0    0  0.42275035195E+01  0.24916220415E+01 -0.38834117156E+01  0.62578632901E+01  0.00000000000E+00 0.  1.
</event>
<event>
 7    1  0.2706925E-010  0.4778727E+02  0.7816164E-02  0.1312668E+00
        -11   -1    0    0    0    0  0.00000000000E+00  0.00000000000E+00  0.45593999997E+02  0.45594000000E+02  0.51100000000E-03 0.  1.
         11   -1    0    0    0    0 -0.00000000000E+00 -0.00000000000E+00 -0.45593999997E+02  0.45594000000E+02  0.51100000000E-03 0. -1.
    9900012    2    1    2    0    0 -0.11744351411E+01  0.88814153418E+01  0.42466037590E+02  0.47787272069E+02  0.20000004670E+02 0.  0.
         12    1    1    2    0    0  0.11744351411E+01 -0.88814153418E+01 -0.42466037590E+02  0.43400727931E+02  0.00000000000E+00 0. -1.
         11    1    3    3    0    0  0.10913474219E+01  0.96292556483E+01  0.15593553791E+02  0.18359534951E+02  0.51100000000E-03 0. -1.
        -11    1    3    3    0    0 -0.44647185315E+01 -0.11536623542E+01  0.26796490141E+02  0.27190375733E+02  0.51100000000E-03 0.  1.
        -12    1    3    3    0    0  0.21989359685E+01  0.40582204762E+00  0.75993658391E-01  0.22373613843E+01  0.00000000000E+00 0.  1.
</event>
<event>
 7    1  0.2706925E-010  0.4778727E+02  0.7816164E-02  0.1312668E+00
        -11   -1    0    0    0    0  0.00000000000E+00  0.00000000000E+00  0.45593999997E+02  0.45594000000E+02  0.51100000000E-03 0.  1.
         11   -1    0    0    0    0 -0.00000000000E+00 -0.00000000000E+00 -0.45593999997E+02  0.45594000000E+02  0.51100000000E-03 0. -1.
    9900012    2    1    2    0    0  0.36234296166E+02  0.19561476613E+02  0.13713065792E+02  0.47787265452E+02  0.19999974500E+02 0.  0.
         12    1    1    2    0    0 -0.36234296166E+02 -0.19561476613E+02 -0.13713065792E+02  0.43400734548E+02  0.00000000000E+00 0. -1.
         11    1    3    3    0    0  0.35139718391E+01 -0.23181758405E+01 -0.16603233353E+01  0.45253299496E+01  0.51100000000E-03 0. -1.
        -11    1    3    3    0    0  0.16022660672E+02  0.14420718004E+02  0.11980283005E+02  0.24661912819E+02  0.51100000000E-03 0.  1.
        -12    1    3    3    0    0  0.16697663655E+02  0.74589344497E+01  0.33931061222E+01  0.18600022683E+02  0.00000000000E+00 0.  1.
</event>
<event>
 7    1  0.2706925E-010  0.4778727E+02  0.7816164E-02  0.1312668E+00
        -11   -1    0    0    0    0  0.00000000000E+00  0.00000000000E+00  0.45593999997E+02  0.45594000000E+02  0.51100000000E-03 0.  1.
         11   -1    0    0    0    0 -0.00000000000E+00 -0.00000000000E+00 -0.45593999997E+02  0.45594000000E+02  0.51100000000E-03 0. -1.
    9900012    2    1    2    0    0 -0.16267540084E+02 -0.40235967598E+02  0.23967542868E+00  0.47787269669E+02  0.19999993729E+02 0.  0.
         12    1    1    2    0    0  0.16267540084E+02  0.40235967598E+02 -0.23967542868E+00  0.43400730331E+02  0.00000000000E+00 0. -1.
         11    1    3    3    0    0 -0.14741537125E+02 -0.13850339960E+02 -0.49154145531E+01  0.20816006685E+02  0.51100000000E-03 0. -1.
        -11    1    3    3    0    0 -0.86688153117E+00 -0.14608944707E+02  0.20784727902E+01  0.14781501900E+02  0.51100000000E-03 0.  1.
         12    1    3    3    0    0 -0.65912142748E+00 -0.11776682932E+02  0.30766171916E+01  0.12189761084E+02  0.00000000000E+00 0. -1.
</event>
<event>
 7    1  0.2706925E-010  0.4778726E+02  0.7816164E-02  0.1312668E+00
        -11   -1    0    0    0    0  0.00000000000E+00  0.00000000000E+00  0.45593999997E+02  0.45594000000E+02  0.51100000000E-03 0.  1.
         11   -1    0    0    0    0 -0.00000000000E+00 -0.00000000000E+00 -0.45593999997E+02  0.45594000000E+02  0.51100000000E-03 0. -1.
    9900012    2    1    2    0    0  0.49356880984E+01 -0.72414754898E+00  0.43113088647E+02  0.47787264760E+02  0.19999971345E+02 0.  0.
         12    1    1    2    0    0 -0.49356880984E+01  0.72414754898E+00 -0.43113088647E+02  0.43400735240E+02  0.00000000000E+00 0. -1.
         11    1    3    3    0    0  0.50882980411E+01  0.34787296408E+01  0.36119701670E+01  0.71441350504E+01  0.51100000000E-03 0. -1.
        -11    1    3    3    0    0 -0.21078782030E+01  0.18365018833E+01  0.18291313478E+02  0.18503730399E+02  0.51100000000E-03 0.  1.
         12    1    3    3    0    0  0.19552682602E+01 -0.60393790731E+01  0.21209805003E+02  0.22139399310E+02  0.00000000000E+00 0. -1.
</event>
<event>
 7    1  0.2706925E-010  0.4778727E+02  0.7816164E-02  0.1312668E+00
        -11   -1    0    0    0    0  0.00000000000E+00  0.00000000000E+00  0.45593999997E+02  0.45594000000E+02  0.51100000000E-03 0.  1.
         11   -1    0    0    0    0 -0.00000000000E+00 -0.00000000000E+00 -0.45593999997E+02  0.45594000000E+02  0.51100000000E-03 0. -1.
    9900012    2    1    2    0    0  0.10560889551E+02 -0.28614125646E+02  0.30875921629E+02  0.47787272921E+02  0.20000008555E+02 0.  0.
         12    1    1    2    0    0 -0.10560889551E+02  0.28614125646E+02 -0.30875921629E+02  0.43400727079E+02  0.00000000000E+00 0. -1.
         11    1    3    3    0    0 -0.15764976638E+01  0.14539644375E+01 -0.87213920746E+00  0.23151640391E+01  0.51100000000E-03 0. -1.
        -11    1    3    3    0    0  0.23884780527E+01 -0.36532253258E+01  0.35862567370E+01  0.56490813709E+01  0.51100000000E-03 0.  1.
         12    1    3    3    0    0  0.97489091622E+01 -0.26414864757E+02  0.28161804099E+02  0.39823027511E+02  0.00000000000E+00 0. -1.
</event>
<event>
 7    1  0.2706925E-010  0.4778728E+02  0.7816164E-02  0.1312668E+00
        -11   -1    0    0    0    0  0.00000000000E+00  0.00000000000E+00  0.45593999997E+02  0.45594000000E+02  0.51100000000E-03 0.  1.
         11   -1    0    0    0    0 -0.00000000000E+00 -0.00000000000E+00 -0.45593999997E+02  0.45594000000E+02  0.51100000000E-03 0. -1.
    9900012    2    1    2    0    0 -0.72065560062E+01  0.13367997077E+02  0.40656915118E+02  0.47787279473E+02  0.20000038429E+02 0.  0.
         12    1    1    2    0    0  0.72065560062E+01 -0.13367997077E+02 -0.40656915118E+02  0.43400720527E+02  0.00000000000E+00 0. -1.
         11    1    3    3    0    0  0.22749026251E+00  0.24641085096E+01  0.28024706651E+01  0.37386394124E+01  0.51100000000E-03 0. -1.
        -11    1    3    3    0    0 -0.39975561205E+01  0.14209625957E+01 -0.60774594111E+00  0.42859007251E+01  0.51100000000E-03 0.  1.
        -12    1    3    3    0    0 -0.34364901482E+01  0.94829259716E+01  0.38462190394E+02  0.39762739335E+02  0.00000000000E+00 0.  1.
</event>
<event>
 7    1  0.2712201E-010  0.4778729E+02  0.7816164E-02  0.1312668E+00
        -11   -1    0    0    0    0  0.00000000000E+00  0.00000000000E+00  0.45593999997E+02  0.45594000000E+02  0.51100000000E-03 0.  1.
         11   -1    0    0    0    0 -0.00000000000E+00 -0.00000000000E+00 -0.45593999997E+02  0.45594000000E+02  0.51100000000E-03 0. -1.
    9900012    2    1    2    0    0  0.36512318531E+02  0.21434053290E+02 -0.95422082571E+01  0.47787288216E+02  0.20000078292E+02 0.  0.
         12    1    1    2    0    0 -0.36512318531E+02 -0.21434053290E+02  0.95422082571E+01  0.43400711784E+02  0.00000000000E+00 0. -1.
         11    1    3    3    0    0 -0.68780003231E+00  0.32899563722E+01 -0.48062506785E+00  0.33952735578E+01  0.51100000000E-03 0. -1.
        -11    1    3    3    0    0  0.29540541530E+02  0.81653336992E+01 -0.43327365906E+01  0.30953010757E+02  0.51100000000E-03 0.  1.
        -12    1    3    3    0    0  0.76595770329E+01  0.99787632185E+01 -0.47288465987E+01  0.13439003901E+02  0.00000000000E+00 0.  1.
</event>
<event>
 7    1  0.2706925E-010  0.4778727E+02  0.7816164E-02  0.1312668E+00
        -11   -1    0    0    0    0  0.00000000000E+00  0.00000000000E+00  0.45593999997E+02  0.45594000000E+02  0.51100000000E-03 0.  1.
         11   -1    0    0    0    0 -0.00000000000E+00 -0.00000000000E+00 -0.45593999997E+02  0.45594000000E+02  0.51100000000E-03 0. -1.
    9900012    2    1    2    0    0 -0.33252875685E+02 -0.27828295829E+02  0.18589117421E+01  0.47787270249E+02  0.19999996374E+02 0.  0.
         12    1    1    2    0    0  0.33252875685E+02  0.27828295829E+02 -0.18589117421E+01  0.43400729751E+02  0.00000000000E+00 0. -1.
         11    1    3    3    0    0 -0.10074331123E+02 -0.75504683595E+01 -0.12840917766E+01  0.12655062701E+02  0.51100000000E-03 0. -1.
        -11    1    3    3    0    0 -0.21572883155E+02 -0.22603337979E+02  0.51482249682E+01  0.31667086952E+02  0.51100000000E-03 0.  1.
        -12    1    3    3    0    0 -0.16056614072E+01  0.23255105098E+01 -0.20052214495E+01  0.34651205964E+01  0.00000000000E+00 0.  1.
</event>
<event>
 7    1  0.2706925E-010  0.4778727E+02  0.7816164E-02  0.1312668E+00
        -11   -1    0    0    0    0  0.00000000000E+00  0.00000000000E+00  0.45593999997E+02  0.45594000000E+02  0.51100000000E-03 0.  1.
         11   -1    0    0    0    0 -0.00000000000E+00 -0.00000000000E+00 -0.45593999997E+02  0.45594000000E+02  0.51100000000E-03 0. -1.
    9900012    2    1    2    0    0  0.10399550568E+02  0.22896287590E+02  0.35372767878E+02  0.47787270227E+02  0.19999996275E+02 0.  0.
         12    1    1    2    0    0 -0.10399550568E+02 -0.22896287590E+02 -0.35372767878E+02  0.43400729773E+02  0.00000000000E+00 0. -1.
         11    1    3    3    0    0  0.38279401046E+01  0.13103243917E+01 -0.29292948056E+00  0.40565851892E+01  0.51100000000E-03 0. -1.
        -11    1    3    3    0    0  0.34591766674E+00  0.17566898080E+02  0.21705933960E+02  0.27926029731E+02  0.51100000000E-03 0.  1.
        -12    1    3    3    0    0  0.62256927968E+01  0.40190651179E+01  0.13959763399E+02  0.15804655307E+02  0.00000000000E+00 0.  1.
</event>
<event>
 7    1  0.2706925E-010  0.4778727E+02  0.7816164E-02  0.1312668E+00
        -11   -1    0    0    0    0  0.00000000000E+00  0.00000000000E+00  0.45593999997E+02  0.45594000000E+02  0.51100000000E-03 0. -1.
         11   -1    0    0    0    0 -0.00000000000E+00 -0.00000000000E+00 -0.45593999997E+02  0.45594000000E+02  0.51100000000E-03 0.  1.
    9900012    2    1    2    0    0 -0.41787958361E+02 -0.11716908705E+02 -0.32182936537E+00  0.47787274341E+02  0.20000015029E+02 0.  0.
         12    1    1    2    0    0  0.41787958361E+02  0.11716908705E+02  0.32182936537E+00  0.43400725659E+02  0.00000000000E+00 0. -1.
         11    1    3    3    0    0 -0.26244682490E+02 -0.21739670382E+01 -0.32691572582E+01  0.26536708182E+02  0.51100000000E-03 0.  1.
        -11    1    3    3    0    0 -0.25594606575E+01 -0.71363879556E+01 -0.51589436237E+00  0.75990143548E+01  0.51100000000E-03 0. -1.
        -12    1    3    3    0    0 -0.12983815214E+02 -0.24065537111E+01  0.34632222552E+01  0.13651551804E+02  0.00000000000E+00 0.  1.
</event>
<event>
 7    1  0.2706925E-010  0.4778727E+02  0.7816164E-02  0.1312668E+00
        -11   -1    0    0    0    0  0.00000000000E+00  0.00000000000E+00  0.45593999997E+02  0.45594000000E+02  0.51100000000E-03 0.  1.
         11   -1    0    0    0    0 -0.00000000000E+00 -0.00000000000E+00 -0.45593999997E+02  0.45594000000E+02  0.51100000000E-03 0. -1.
    9900012    2    1    2    0    0 -0.14487096973E+01 -0.43372829255E+02  0.56795332954E+00  0.47787266731E+02  0.19999980331E+02 0.  0.
         12    1    1    2    0    0  0.14487096973E+01  0.43372829255E+02 -0.56795332954E+00  0.43400733269E+02  0.00000000000E+00 0. -1.
         11    1    3    3    0    0  0.35215390894E+00 -0.83400715158E+00  0.15876279504E+01  0.18276058312E+01  0.51100000000E-03 0. -1.
        -11    1    3    3    0    0  0.47489742325E+01 -0.28665535392E+02  0.49923443188E+01  0.29482014477E+02  0.51100000000E-03 0.  1.
        -12    1    3    3    0    0 -0.65498378388E+01 -0.13873286711E+02 -0.60120189397E+01  0.16477646422E+02  0.00000000000E+00 0.  1.
</event>
<event>
 7    1  0.2706925E-010  0.4778727E+02  0.7816164E-02  0.1312668E+00
        -11   -1    0    0    0    0  0.00000000000E+00  0.00000000000E+00  0.45593999997E+02  0.45594000000E+02  0.51100000000E-03 0.  1.
         11   -1    0    0    0    0 -0.00000000000E+00 -0.00000000000E+00 -0.45593999997E+02  0.45594000000E+02  0.51100000000E-03 0. -1.
    9900012    2    1    2    0    0 -0.10133175443E+02 -0.89885420835E+01  0.41232851396E+02  0.47787272269E+02  0.20000005583E+02 0.  0.
         12    1    1    2    0    0  0.10133175443E+02  0.89885420835E+01 -0.41232851396E+02  0.43400727731E+02  0.00000000000E+00 0. -1.
         11    1    3    3    0    0  0.36777019946E+01 -0.10430846215E+01  0.61632876744E+01  0.72525604242E+01  0.51100000000E-03 0. -1.
        -11    1    3    3    0    0 -0.92067665292E+01  0.17418998261E+01  0.13337658219E+02  0.16300058035E+02  0.51100000000E-03 0.  1.
        -12    1    3    3    0    0 -0.46041109080E+01 -0.96873572881E+01  0.21731905503E+02  0.24234653809E+02  0.00000000000E+00 0.  1.
</event>
<event>
 7    1  0.2706925E-010  0.4778726E+02  0.7816164E-02  0.1312668E+00
        -11   -1    0    0    0    0  0.00000000000E+00  0.00000000000E+00  0.45593999997E+02  0.45594000000E+02  0.51100000000E-03 0. -1.
         11   -1    0    0    0    0 -0.00000000000E+00 -0.00000000000E+00 -0.45593999997E+02  0.45594000000E+02  0.51100000000E-03 0.  1.
    9900012    2    1    2    0    0 -0.14514624873E+02  0.94073073123E+01 -0.39805182581E+02  0.47787258919E+02  0.19999944714E+02 0.  0.
         12    1    1    2    0    0  0.14514624873E+02 -0.94073073123E+01  0.39805182581E+02  0.43400741081E+02  0.00000000000E+00 0. -1.
         11    1    3    3    0    0  0.17165220845E+01 -0.58789722331E+00  0.30743719066E+00  0.18402687573E+01  0.51100000000E-03 0. -1.
        -11    1    3    3    0    0 -0.17397462560E+02  0.65609879309E+01 -0.35546491573E+02  0.40115724219E+02  0.51100000000E-03 0.  1.
        -12    1    3    3    0    0  0.11663156021E+01  0.34342166047E+01 -0.45661281986E+01  0.58312659430E+01  0.00000000000E+00 0.  1.
</event>
<event>
 7    1  0.2706925E-010  0.4778727E+02  0.7816164E-02  0.1312668E+00
        -11   -1    0    0    0    0  0.00000000000E+00  0.00000000000E+00  0.45593999997E+02  0.45594000000E+02  0.51100000000E-03 0. -1.
         11   -1    0    0    0    0 -0.00000000000E+00 -0.00000000000E+00 -0.45593999997E+02  0.45594000000E+02  0.51100000000E-03 0.  1.
    9900012    2    1    2    0    0  0.11340756706E+02 -0.34638281989E+02 -0.23562683932E+02  0.47787269408E+02  0.19999992539E+02 0.  0.
         12    1    1    2    0    0 -0.11340756706E+02  0.34638281989E+02  0.23562683932E+02  0.43400730592E+02  0.00000000000E+00 0. -1.
         11    1    3    3    0    0  0.48885058346E+01 -0.72211717135E+01 -0.59904815472E+00  0.87408048350E+01  0.51100000000E-03 0. -1.
        -11    1    3    3    0    0 -0.21044181269E+01 -0.18141793412E+02 -0.17502682700E+02  0.25296188365E+02  0.51100000000E-03 0.  1.
         12    1    3    3    0    0  0.85566689987E+01 -0.92753168637E+01 -0.54609530772E+01  0.13750276208E+02  0.00000000000E+00 0. -1.
</event>
<event>
 7    1  0.2706925E-010  0.4778727E+02  0.7816164E-02  0.1312668E+00
        -11   -1    0    0    0    0  0.00000000000E+00  0.00000000000E+00  0.45593999997E+02  0.45594000000E+02  0.51100000000E-03 0. -1.
         11   -1    0    0    0    0 -0.00000000000E+00 -0.00000000000E+00 -0.45593999997E+02  0.45594000000E+02  0.51100000000E-03 0.  1.
    9900012    2    1    2    0    0  0.66121525675E+01  0.42680656779E+02  0.42736537979E+01  0.47787272570E+02  0.20000006957E+02 0.  0.
         12    1    1    2    0    0 -0.66121525675E+01 -0.42680656779E+02 -0.42736537979E+01  0.43400727430E+02  0.00000000000E+00 0. -1.
         11    1    3    3    0    0  0.74733432434E+01  0.11534953588E+02 -0.45808562103E+01  0.14487589771E+02  0.51100000000E-03 0. -1.
        -11    1    3    3    0    0 -0.32561448046E+01  0.20668561907E+02  0.32358687750E+01  0.21172217108E+02  0.51100000000E-03 0.  1.
        -12    1    3    3    0    0  0.23949541287E+01  0.10477141284E+02  0.56186412332E+01  0.12127465691E+02  0.00000000000E+00 0.  1.
</event>
<event>
 7    1  0.2706925E-010  0.4778723E+02  0.7816164E-02  0.1312668E+00
        -11   -1    0    0    0    0  0.00000000000E+00  0.00000000000E+00  0.45593999997E+02  0.45594000000E+02  0.51100000000E-03 0.  1.
         11   -1    0    0    0    0 -0.00000000000E+00 -0.00000000000E+00 -0.45593999997E+02  0.45594000000E+02  0.51100000000E-03 0. -1.
    9900012    2    1    2    0    0 -0.39901408116E+01  0.19324930129E+02  0.38655568757E+02  0.47787226457E+02  0.19999796708E+02 0.  0.
         12    1    1    2    0    0  0.39901408116E+01 -0.19324930129E+02 -0.38655568757E+02  0.43400773543E+02  0.00000000000E+00 0. -1.
         11    1    3    3    0    0 -0.60300524944E+01  0.30283275826E+01  0.31593626927E+01  0.74507633111E+01  0.51100000000E-03 0. -1.
        -11    1    3    3    0    0  0.65256122851E+00  0.15117524618E+02  0.21901118420E+02  0.26619999531E+02  0.51100000000E-03 0.  1.
         12    1    3    3    0    0  0.13873504543E+01  0.11790779288E+01  0.13595087644E+02  0.13716463615E+02  0.00000000000E+00 0. -1.
</event>
<event>
 7    1  0.2706925E-010  0.4778727E+02  0.7816164E-02  0.1312668E+00
        -11   -1    0    0    0    0  0.00000000000E+00  0.00000000000E+00  0.45593999997E+02  0.45594000000E+02  0.51100000000E-03 0.  1.
         11   -1    0    0    0    0 -0.00000000000E+00 -0.00000000000E+00 -0.45593999997E+02  0.45594000000E+02  0.51100000000E-03 0. -1.
    9900012    2    1    2    0    0 -0.30430046618E+02 -0.14565153161E+02  0.27303697375E+02  0.47787270581E+02  0.19999997886E+02 0.  0.
         12    1    1    2    0    0  0.30430046618E+02  0.14565153161E+02 -0.27303697375E+02  0.43400729419E+02  0.00000000000E+00 0. -1.
         11    1    3    3    0    0 -0.54554577763E+01  0.27743508036E+01 -0.10200219682E+01  0.62047954848E+01  0.51100000000E-03 0. -1.
        -11    1    3    3    0    0 -0.14655580829E+02 -0.10852032450E+02  0.16241873973E+02  0.24420301558E+02  0.51100000000E-03 0.  1.
         12    1    3    3    0    0 -0.10319008012E+02 -0.64874715139E+01  0.12081845371E+02  0.17162173538E+02  0.00000000000E+00 0. -1.
</event>
<event>
 7    1  0.2706925E-010  0.4778731E+02  0.7816164E-02  0.1312668E+00
        -11   -1    0    0    0    0  0.00000000000E+00  0.00000000000E+00  0.45593999997E+02  0.45594000000E+02  0.51100000000E-03 0.  1.
         11   -1    0    0    0    0 -0.00000000000E+00 -0.00000000000E+00 -0.45593999997E+02  0.45594000000E+02  0.51100000000E-03 0. -1.
    9900012    2    1    2    0    0 -0.30431672295E+02  0.18852074805E+02  0.24538396447E+02  0.47787305267E+02  0.20000156032E+02 0.  0.
         12    1    1    2    0    0  0.30431672295E+02 -0.18852074805E+02 -0.24538396447E+02  0.43400694733E+02  0.00000000000E+00 0. -1.
         11    1    3    3    0    0 -0.21925714117E+02  0.15030269678E+02  0.13523679066E+02  0.29825087458E+02  0.51100000000E-03 0.  1.
        -11    1    3    3    0    0  0.18760940210E+01  0.25187823131E+01  0.59701154122E+00  0.31969385602E+01  0.51100000000E-03 0. -1.
        -12    1    3    3    0    0 -0.10382052199E+02  0.13030228139E+01  0.10417705839E+02  0.14765279248E+02  0.00000000000E+00 0.  1.
</event>
<event>
 7    1  0.2706925E-010  0.4778727E+02  0.7816164E-02  0.1312668E+00
        -11   -1    0    0    0    0  0.00000000000E+00  0.00000000000E+00  0.45593999997E+02  0.45594000000E+02  0.51100000000E-03 0. -1.
         11   -1    0    0    0    0 -0.00000000000E+00 -0.00000000000E+00 -0.45593999997E+02  0.45594000000E+02  0.51100000000E-03 0.  1.
    9900012    2    1    2    0    0  0.22301871108E+02 -0.10910732600E+02 -0.35597832442E+02  0.47787271718E+02  0.20000003072E+02 0.  0.
         12    1    1    2    0    0 -0.22301871108E+02  0.10910732600E+02  0.35597832442E+02  0.43400728282E+02  0.00000000000E+00 0. -1.
         11    1    3    3    0    0  0.91462770569E+01 -0.78776460241E+01 -0.19521479195E+02  0.22952120623E+02  0.51100000000E-03 0. -1.
        -11    1    3    3    0    0  0.74939846434E+01  0.11271523281E+01 -0.32190992176E+00  0.75851107088E+01  0.51100000000E-03 0.  1.
        -12    1    3    3    0    0  0.56616094079E+01 -0.41602389042E+01 -0.15754443326E+02  0.17250040386E+02  0.00000000000E+00 0.  1.
</event>
<event>
 7    1  0.2706925E-010  0.4778727E+02  0.7816164E-02  0.1312668E+00
        -11   -1    0    0    0    0  0.00000000000E+00  0.00000000000E+00  0.45593999997E+02  0.45594000000E+02  0.51100000000E-03 0. -1.
         11   -1    0    0    0    0 -0.00000000000E+00 -0.00000000000E+00 -0.45593999997E+02  0.45594000000E+02  0.51100000000E-03 0.  1.
    9900012    2    1    2    0    0  0.34762544173E+02  0.64479003502E+01 -0.25171679523E+02  0.47787270210E+02  0.19999996196E+02 0.  0.
         12    1    1    2    0    0 -0.34762544173E+02 -0.64479003502E+01  0.25171679523E+02  0.43400729790E+02  0.00000000000E+00 0. -1.
         11    1    3    3    0    0 -0.16518828353E+01  0.29022306723E+01 -0.43821978659E+01  0.55095660604E+01  0.51100000000E-03 0. -1.
        -11    1    3    3    0    0  0.25294376692E+02  0.30487341839E+01 -0.16472117841E+02  0.30338604760E+02  0.51100000000E-03 0.  1.
         12    1    3    3    0    0  0.11120050316E+02  0.49693549398E+00 -0.43173638170E+01  0.11939099390E+02  0.00000000000E+00 0. -1.
</event>
<event>
 7    1  0.2706925E-010  0.4778727E+02  0.7816164E-02  0.1312668E+00
        -11   -1    0    0    0    0  0.00000000000E+00  0.00000000000E+00  0.45593999997E+02  0.45594000000E+02  0.51100000000E-03 0. -1.
         11   -1    0    0    0    0 -0.00000000000E+00 -0.00000000000E+00 -0.45593999997E+02  0.45594000000E+02  0.51100000000E-03 0.  1.
    9900012    2    1    2    0    0 -0.37405090691E+02 -0.21765870752E+02 -0.32755684050E+01  0.47787270887E+02  0.19999999281E+02 0.  0.
         12    1    1    2    0    0  0.37405090691E+02  0.21765870752E+02  0.32755684050E+01  0.43400729113E+02  0.00000000000E+00 0. -1.
         11    1    3    3    0    0 -0.24245826749E+02 -0.12684203989E+02  0.31065245370E+01  0.27539056638E+02  0.51100000000E-03 0. -1.
        -11    1    3    3    0    0 -0.13445471165E+02 -0.65101798985E+01 -0.18811909395E+01  0.15056627005E+02  0.51100000000E-03 0.  1.
         12    1    3    3    0    0  0.28620722285E+00 -0.25714868649E+01 -0.45009020024E+01  0.51915872435E+01  0.00000000000E+00 0. -1.
</event>
<event>
 7    1  0.2706925E-010  0.4778726E+02  0.7816164E-02  0.1312668E+00
        -11   -1    0    0    0    0  0.00000000000E+00  0.00000000000E+00  0.45593999997E+02  0.45594000000E+02  0.51100000000E-03 0.  1.
         11   -1    0    0    0    0 -0.00000000000E+00 -0.00000000000E+00 -0.45593999997E+02  0.45594000000E+02  0.51100000000E-03 0. -1.
    9900012    2    1    2    0    0 -0.42607481299E+02  0.70189973645E+01 -0.43543122213E+01  0.47787264735E+02  0.19999971233E+02 0.  0.
         12    1    1    2    0    0  0.42607481299E+02 -0.70189973645E+01  0.43543122213E+01  0.43400735265E+02  0.00000000000E+00 0. -1.
         11    1    3    3    0    0 -0.13241620168E+02  0.10825438315E+02 -0.23140133115E+01  0.17259353327E+02  0.51100000000E-03 0. -1.
        -11    1    3    3    0    0 -0.18932070284E+02 -0.13862271270E+01  0.19837572496E+01  0.19086125955E+02  0.51100000000E-03 0.  1.
         12    1    3    3    0    0 -0.10433790846E+02 -0.24202138240E+01 -0.40240561594E+01  0.11441785453E+02  0.00000000000E+00 0. -1.
</event>
<event>
 7    1  0.2706925E-010  0.4778727E+02  0.7816164E-02  0.1312668E+00
        -11   -1    0    0    0    0  0.00000000000E+00  0.00000000000E+00  0.45593999997E+02  0.45594000000E+02  0.51100000000E-03 0.  1.
         11   -1    0    0    0    0 -0.00000000000E+00 -0.00000000000E+00 -0.45593999997E+02  0.45594000000E+02  0.51100000000E-03 0. -1.
    9900012    2    1    2    0    0  0.37656923685E+01  0.29371084060E+02  0.31729828610E+02  0.47787273722E+02  0.20000012207E+02 0.  0.
         12    1    1    2    0    0 -0.37656923685E+01 -0.29371084060E+02 -0.31729828610E+02  0.43400726278E+02  0.00000000000E+00 0. -1.
         11    1    3    3    0    0 -0.40377992783E+00  0.10044059257E+02  0.19604780918E+02  0.22031649954E+02  0.51100000000E-03 0. -1.
        -11    1    3    3    0    0  0.95765811069E+00  0.19480163582E+02  0.10573049579E+02  0.22185203626E+02  0.51100000000E-03 0.  1.
         12    1    3    3    0    0  0.32118141856E+01 -0.15313877963E+00  0.15519981133E+01  0.35704201423E+01  0.00000000000E+00 0. -1.
</event>
<event>
 7    1  0.2706925E-010  0.4778728E+02  0.7816164E-02  0.1312668E+00
        -11   -1    0    0    0    0  0.00000000000E+00  0.00000000000E+00  0.45593999997E+02  0.45594000000E+02  0.51100000000E-03 0.  1.
         11   -1    0    0    0    0 -0.00000000000E+00 -0.00000000000E+00 -0.45593999997E+02  0.45594000000E+02  0.51100000000E-03 0. -1.
    9900012    2    1    2    0    0 -0.44217711728E+01  0.22787467231E+02  0.36671542359E+02  0.47787277171E+02  0.20000027932E+02 0.  0.
         12    1    1    2    0    0  0.44217711728E+01 -0.22787467231E+02 -0.36671542359E+02  0.43400722829E+02  0.00000000000E+00 0. -1.
         11    1    3    3    0    0 -0.19811926010E+01 -0.13816211960E+01 -0.20916844606E+00  0.24244077528E+01  0.51100000000E-03 0. -1.
        -11    1    3    3    0    0 -0.58315034835E+01  0.16267398998E+02  0.28660008604E+02  0.33466861169E+02  0.51100000000E-03 0.  1.
        -12    1    3    3    0    0  0.33909249117E+01  0.79016894288E+01  0.82207022008E+01  0.11896008249E+02  0.00000000000E+00 0.  1.
</event>
<event>
 7    1  0.2706925E-010  0.4778729E+02  0.7816164E-02  0.1312668E+00
        -11   -1    0    0    0    0  0.00000000000E+00  0.00000000000E+00  0.45593999997E+02  0.45594000000E+02  0.51100000000E-03 0. -1.
         11   -1    0    0    0    0 -0.00000000000E+00 -0.00000000000E+00 -0.45593999997E+02  0.45594000000E+02  0.51100000000E-03 0.  1.
    9900012    2    1    2    0    0 -0.23569035897E+02 -0.79394649217E+01 -0.35568068602E+02  0.47787285024E+02  0.20000063736E+02 0.  0.
         12    1    1    2    0    0  0.23569035897E+02  0.79394649217E+01  0.35568068602E+02  0.43400714976E+02  0.00000000000E+00 0. -1.
         11    1    3    3    0    0 -0.33805643309E+01  0.32831309863E+00 -0.11292029756E+02  0.11791774292E+02  0.51100000000E-03 0. -1.
        -11    1    3    3    0    0 -0.16038213026E+01 -0.80388327954E+00  0.21740101767E+01  0.28186506714E+01  0.51100000000E-03 0.  1.
        -12    1    3    3    0    0 -0.18584650264E+02 -0.74638947408E+01 -0.26450049023E+02  0.33176860060E+02  0.00000000000E+00 0.  1.
</event>
<event>
 7    1  0.2706925E-010  0.4778727E+02  0.7816164E-02  0.1312668E+00
        -11   -1    0    0    0    0  0.00000000000E+00  0.00000000000E+00  0.45593999997E+02  0.45594000000E+02  0.51100000000E-03 0.  1.
         11   -1    0    0    0    0 -0.00000000000E+00 -0.00000000000E+00 -0.45593999997E+02  0.45594000000E+02  0.51100000000E-03 0. -1.
    9900012    2    1    2    0    0 -0.38419441206E+02 -0.10355433842E+02  0.17330169741E+02  0.47787271251E+02  0.20000000943E+02 0.  0.
         12    1    1    2    0    0  0.38419441206E+02  0.10355433842E+02 -0.17330169741E+02  0.43400728749E+02  0.00000000000E+00 0. -1.
         11    1    3    3    0    0 -0.96321147671E+01  0.34628109024E+01  0.46270407512E+01  0.11232907042E+02  0.51100000000E-03 0. -1.
        -11    1    3    3    0    0 -0.21023885496E+02 -0.15698620018E+02  0.10562708607E+02  0.28284646810E+02  0.51100000000E-03 0.  1.
        -12    1    3    3    0    0 -0.77634409433E+01  0.18803752731E+01  0.21404203826E+01  0.82697173992E+01  0.00000000000E+00 0.  1.
</event>
<event>
 7    1  0.2706925E-010  0.4778727E+02  0.7816164E-02  0.1312668E+00
        -11   -1    0    0    0    0  0.00000000000E+00  0.00000000000E+00  0.45593999997E+02  0.45594000000E+02  0.51100000000E-03 0. -1.
         11   -1    0    0    0    0 -0.00000000000E+00 -0.00000000000E+00 -0.45593999997E+02  0.45594000000E+02  0.51100000000E-03 0.  1.
    9900012    2    1    2    0    0  0.26669350424E+02 -0.31958437974E+02 -0.12289309627E+02  0.47787272577E+02  0.20000006986E+02 0.  0.
         12    1    1    2    0    0 -0.26669350424E+02  0.31958437974E+02  0.12289309627E+02  0.43400727423E+02  0.00000000000E+00 0. -1.
         11    1    3    3    0    0  0.45500259638E+01  0.46704589899E+00  0.21356375882E+01  0.50479516947E+01  0.51100000000E-03 0. -1.
        -11    1    3    3    0    0  0.12407074552E+02 -0.17346426096E+02 -0.31616809009E+01  0.21559921699E+02  0.51100000000E-03 0.  1.
         12    1    3    3    0    0  0.97122499080E+01 -0.15079057776E+02 -0.11263266315E+02  0.21179399183E+02  0.00000000000E+00 0. -1.
</event>
<event>
 7    1  0.2706925E-010  0.4778727E+02  0.7816164E-02  0.1312668E+00
        -11   -1    0    0    0    0  0.00000000000E+00  0.00000000000E+00  0.45593999997E+02  0.45594000000E+02  0.51100000000E-03 0. -1.
         11   -1    0    0    0    0 -0.00000000000E+00 -0.00000000000E+00 -0.45593999997E+02  0.45594000000E+02  0.51100000000E-03 0.  1.
    9900012    2    1    2    0    0  0.16588149566E+02 -0.15323311791E+02 -0.37062827424E+02  0.47787265364E+02  0.19999974102E+02 0.  0.
         12    1    1    2    0    0 -0.16588149566E+02  0.15323311791E+02  0.37062827424E+02  0.43400734636E+02  0.00000000000E+00 0. -1.
         11    1    3    3    0    0 -0.24915399071E+01 -0.13688070554E+01 -0.79858280119E+01  0.84767241999E+01  0.51100000000E-03 0.  1.
        -11    1    3    3    0    0  0.17005700823E+02 -0.80878668169E+01 -0.15551879920E+02  0.24422702951E+02  0.51100000000E-03 0. -1.
        -12    1    3    3    0    0  0.20739886499E+01 -0.58666379189E+01 -0.13525119492E+02  0.14887838214E+02  0.00000000000E+00 0.  1.
</event>
<event>
 7    1  0.2706925E-010  0.4778727E+02  0.7816164E-02  0.1312668E+00
        -11   -1    0    0    0    0  0.00000000000E+00  0.00000000000E+00  0.45593999997E+02  0.45594000000E+02  0.51100000000E-03 0.  1.
         11   -1    0    0    0    0 -0.00000000000E+00 -0.00000000000E+00 -0.45593999997E+02  0.45594000000E+02  0.51100000000E-03 0. -1.
    9900012    2    1    2    0    0  0.29568289213E+02 -0.63345731122E+00  0.31763792677E+02  0.47787268204E+02  0.19999987050E+02 0.  0.
         12    1    1    2    0    0 -0.29568289213E+02  0.63345731122E+00 -0.31763792677E+02  0.43400731796E+02  0.00000000000E+00 0. -1.
         11    1    3    3    0    0  0.15072305139E+02 -0.38158979063E+01  0.80113048649E+01  0.17490467830E+02  0.51100000000E-03 0. -1.
        -11    1    3    3    0    0  0.55335675144E+01  0.70528660502E+01  0.12771929558E+02  0.15604021080E+02  0.51100000000E-03 0.  1.
        -12    1    3    3    0    0  0.89624165604E+01 -0.38704254551E+01  0.10980558254E+02  0.14692779294E+02  0.00000000000E+00 0.  1.
</event>
<event>
 7    1  0.2706925E-010  0.4778727E+02  0.7816164E-02  0.1312668E+00
        -11   -1    0    0    0    0  0.00000000000E+00  0.00000000000E+00  0.45593999997E+02  0.45594000000E+02  0.51100000000E-03 0. -1.
         11   -1    0    0    0    0 -0.00000000000E+00 -0.00000000000E+00 -0.45593999997E+02  0.45594000000E+02  0.51100000000E-03 0.  1.
    9900012    2    1    2    0    0 -0.16481951122E+02 -0.25756151672E+02 -0.30799176440E+02  0.47787270385E+02  0.19999996994E+02 0.  0.
         12    1    1    2    0    0  0.16481951122E+02  0.25756151672E+02  0.30799176440E+02  0.43400729615E+02  0.00000000000E+00 0. -1.
         11    1    3    3    0    0 -0.86478351298E+01 -0.10610938687E+01 -0.15090398210E+02  0.17425013372E+02  0.51100000000E-03 0. -1.
        -11    1    3    3    0    0 -0.39998698414E+01 -0.14153397765E+02 -0.79055733481E+01  0.16697775818E+02  0.51100000000E-03 0.  1.
         12    1    3    3    0    0 -0.38342461509E+01 -0.10541660038E+02 -0.78032048819E+01  0.13664481195E+02  0.00000000000E+00 0. -1.
</event>
<event>
 7    1  0.2706925E-010  0.4778727E+02  0.7816164E-02  0.1312668E+00
        -11   -1    0    0    0    0  0.00000000000E+00  0.00000000000E+00  0.45593999997E+02  0.45594000000E+02  0.51100000000E-03 0. -1.
         11   -1    0    0    0    0 -0.00000000000E+00 -0.00000000000E+00 -0.45593999997E+02  0.45594000000E+02  0.51100000000E-03 0.  1.
    9900012    2    1    2    0    0  0.16417668232E+02  0.39320122274E+01 -0.39982780208E+02  0.47787271164E+02  0.20000000543E+02 0.  0.
         12    1    1    2    0    0 -0.16417668232E+02 -0.39320122274E+01  0.39982780208E+02  0.43400728836E+02  0.00000000000E+00 0. -1.
         11    1    3    3    0    0 -0.22653209559E+01  0.47965280214E+01 -0.86736114300E+01  0.10167098681E+02  0.51100000000E-03 0. -1.
        -11    1    3    3    0    0  0.10583597863E+02  0.13242963840E+01 -0.24815982958E+02  0.27011096147E+02  0.51100000000E-03 0.  1.
         12    1    3    3    0    0  0.80993913254E+01 -0.21888121779E+01 -0.64931858203E+01  0.10609076335E+02  0.00000000000E+00 0. -1.
</event>
<event>
 7    1  0.2706925E-010  0.4778727E+02  0.7816164E-02  0.1312668E+00
        -11   -1    0    0    0    0  0.00000000000E+00  0.00000000000E+00  0.45593999997E+02  0.45594000000E+02  0.51100000000E-03 0.  1.
         11   -1    0    0    0    0 -0.00000000000E+00 -0.00000000000E+00 -0.45593999997E+02  0.45594000000E+02  0.51100000000E-03 0. -1.
    9900012    2    1    2    0    0  0.15173533332E+02  0.30141142741E+02  0.27292832141E+02  0.47787270907E+02  0.19999999373E+02 0.  0.
         12    1    1    2    0    0 -0.15173533332E+02 -0.30141142741E+02 -0.27292832141E+02  0.43400729093E+02  0.00000000000E+00 0. -1.
         11    1    3    3    0    0  0.10125307104E+02  0.20196550199E+02  0.21349734609E+02  0.31084299124E+02  0.51100000000E-03 0. -1.
        -11    1    3    3    0    0  0.63223467003E-01  0.87330994408E+01  0.73155365673E+01  0.11392457969E+02  0.51100000000E-03 0.  1.
         12    1    3    3    0    0  0.49850027614E+01  0.12114931014E+01 -0.13724390351E+01  0.53105138142E+01  0.00000000000E+00 0. -1.
</event>
<event>
 7    1  0.2706925E-010  0.4778727E+02  0.7816164E-02  0.1312668E+00
        -11   -1    0    0    0    0  0.00000000000E+00  0.00000000000E+00  0.45593999997E+02  0.45594000000E+02  0.51100000000E-03 0. -1.
         11   -1    0    0    0    0 -0.00000000000E+00 -0.00000000000E+00 -0.45593999997E+02  0.45594000000E+02  0.51100000000E-03 0.  1.
    9900012    2    1    2    0    0  0.30291964461E+02 -0.31072283450E+02  0.73046246230E+00  0.47787268611E+02  0.19999988904E+02 0.  0.
         12    1    1    2    0    0 -0.30291964461E+02  0.31072283450E+02 -0.73046246230E+00  0.43400731389E+02  0.00000000000E+00 0. -1.
         11    1    3    3    0    0  0.13732593741E+02 -0.11450218560E+02 -0.81399701299E+01  0.19645629283E+02  0.51100000000E-03 0.  1.
        -11    1    3    3    0    0  0.89340774157E+01 -0.15561170260E+02  0.47016651599E+01  0.18549216013E+02  0.51100000000E-03 0. -1.
         12    1    3    3    0    0  0.76252933037E+01 -0.40608946298E+01  0.41687674323E+01  0.95924233157E+01  0.00000000000E+00 0. -1.
</event>
<event>
 7    1  0.2706925E-010  0.4778725E+02  0.7816164E-02  0.1312668E+00
        -11   -1    0    0    0    0  0.00000000000E+00  0.00000000000E+00  0.45593999997E+02  0.45594000000E+02  0.51100000000E-03 0.  1.
         11   -1    0    0    0    0 -0.00000000000E+00 -0.00000000000E+00 -0.45593999997E+02  0.45594000000E+02  0.51100000000E-03 0. -1.
    9900012    2    1    2    0    0 -0.35398238110E+01  0.68077736345E+01  0.42717077958E+02  0.47787252498E+02  0.19999915438E+02 0.  0.
         12    1    1    2    0    0  0.35398238110E+01 -0.68077736345E+01 -0.42717077958E+02  0.43400747502E+02  0.00000000000E+00 0. -1.
         11    1    3    3    0    0 -0.27355477874E+01 -0.24990504162E+01  0.21481071322E+01  0.42828540942E+01  0.51100000000E-03 0. -1.
        -11    1    3    3    0    0  0.45252225863E+01  0.20543573343E+01  0.25273457891E+02  0.25757439654E+02  0.51100000000E-03 0.  1.
        -12    1    3    3    0    0 -0.53294986099E+01  0.72524667164E+01  0.15295512935E+02  0.17746958750E+02  0.00000000000E+00 0.  1.
</event>
<event>
 7    1  0.2706925E-010  0.4778728E+02  0.7816164E-02  0.1312668E+00
        -11   -1    0    0    0    0  0.00000000000E+00  0.00000000000E+00  0.45593999997E+02  0.45594000000E+02  0.51100000000E-03 0.  1.
         11   -1    0    0    0    0 -0.00000000000E+00 -0.00000000000E+00 -0.45593999997E+02  0.45594000000E+02  0.51100000000E-03 0. -1.
    9900012    2    1    2    0    0  0.21631342122E+02 -0.11339779367E+02  0.35876414634E+02  0.47787277828E+02  0.20000030929E+02 0.  0.
         12    1    1    2    0    0 -0.21631342122E+02  0.11339779367E+02 -0.35876414634E+02  0.43400722172E+02  0.00000000000E+00 0. -1.
         11    1    3    3    0    0  0.16777391723E+02 -0.11611926824E+02  0.22771238035E+02  0.30575267775E+02  0.51100000000E-03 0.  1.
        -11    1    3    3    0    0  0.44938446748E+01 -0.23256393385E+01  0.13628648631E+02  0.14537651188E+02  0.51100000000E-03 0. -1.
         12    1    3    3    0    0  0.36010572372E+00  0.25977867960E+01 -0.52347203252E+00  0.26743588650E+01  0.00000000000E+00 0. -1.
</event>
<event>
 7    1  0.2706925E-010  0.4778727E+02  0.7816164E-02  0.1312668E+00
        -11   -1    0    0    0    0  0.00000000000E+00  0.00000000000E+00  0.45593999997E+02  0.45594000000E+02  0.51100000000E-03 0.  1.
         11   -1    0    0    0    0 -0.00000000000E+00 -0.00000000000E+00 -0.45593999997E+02  0.45594000000E+02  0.51100000000E-03 0. -1.
    9900012    2    1    2    0    0  0.32419834623E+02 -0.42221019293E+01  0.28543852737E+02  0.47787270159E+02  0.19999995961E+02 0.  0.
         12    1    1    2    0    0 -0.32419834623E+02  0.42221019293E+01 -0.28543852737E+02  0.43400729841E+02  0.00000000000E+00 0. -1.
         11    1    3    3    0    0  0.22812670859E+02 -0.11387522299E+02  0.21621291175E+02  0.33430133834E+02  0.51100000000E-03 0. -1.
        -11    1    3    3    0    0  0.40735668784E+01  0.36809710770E+01  0.52744675280E+01  0.76133765930E+01  0.51100000000E-03 0.  1.
         12    1    3    3    0    0  0.55335968861E+01  0.34844492931E+01  0.16480940343E+01  0.67437597317E+01  0.00000000000E+00 0. -1.
</event>
<event>
 7    1  0.2706925E-010  0.4778727E+02  0.7816164E-02  0.1312668E+00
        -11   -1    0    0    0    0  0.00000000000E+00  0.00000000000E+00  0.45593999997E+02  0.45594000000E+02  0.51100000000E-03 0. -1.
         11   -1    0    0    0    0 -0.00000000000E+00 -0.00000000000E+00 -0.45593999997E+02  0.45594000000E+02  0.51100000000E-03 0.  1.
    9900012    2    1    2    0    0 -0.26442521041E+02  0.32807248588E+02 -0.10397152154E+02  0.47787271298E+02  0.20000001158E+02 0.  0.
         12    1    1    2    0    0  0.26442521041E+02 -0.32807248588E+02  0.10397152154E+02  0.43400728702E+02  0.00000000000E+00 0. -1.
         11    1    3    3    0    0 -0.16882001779E+02  0.11853164623E+02  0.30225064106E+00  0.20629853402E+02  0.51100000000E-03 0. -1.
        -11    1    3    3    0    0 -0.10788605852E+02  0.18551417700E+02 -0.11493852266E+02  0.24344563152E+02  0.51100000000E-03 0.  1.
         12    1    3    3    0    0  0.12280865896E+01  0.24026662647E+01  0.79444947113E+00  0.28128547444E+01  0.00000000000E+00 0. -1.
</event>
<event>
 7    1  0.2706925E-010  0.4778727E+02  0.7816164E-02  0.1312668E+00
        -11   -1    0    0    0    0  0.00000000000E+00  0.00000000000E+00  0.45593999997E+02  0.45594000000E+02  0.51100000000E-03 0. -1.
         11   -1    0    0    0    0 -0.00000000000E+00 -0.00000000000E+00 -0.45593999997E+02  0.45594000000E+02  0.51100000000E-03 0.  1.
    9900012    2    1    2    0    0 -0.35146560814E+02 -0.21760736821E+02 -0.13221683000E+02  0.47787270681E+02  0.19999998343E+02 0.  0.
         12    1    1    2    0    0  0.35146560814E+02  0.21760736821E+02  0.13221683000E+02  0.43400729319E+02  0.00000000000E+00 0. -1.
         11    1    3    3    0    0 -0.17016968095E+02 -0.14045668362E+02 -0.49822919267E+01  0.22620372146E+02  0.51100000000E-03 0. -1.
        -11    1    3    3    0    0 -0.10702619268E+02  0.11067209058E+01 -0.83738804450E+01  0.13634249680E+02  0.51100000000E-03 0.  1.
         12    1    3    3    0    0 -0.74269734505E+01 -0.88217893649E+01  0.13448937167E+00  0.11532648856E+02  0.00000000000E+00 0. -1.
</event>
<event>
 7    1  0.2706925E-010  0.4778727E+02  0.7816164E-02  0.1312668E+00
        -11   -1    0    0    0    0  0.00000000000E+00  0.00000000000E+00  0.45593999997E+02  0.45594000000E+02  0.51100000000E-03 0. -1.
         11   -1    0    0    0    0 -0.00000000000E+00 -0.00000000000E+00 -0.45593999997E+02  0.45594000000E+02  0.51100000000E-03 0.  1.
    9900012    2    1    2    0    0  0.35480339804E+02 -0.23413377336E+01 -0.24885475397E+02  0.47787271196E+02  0.20000000690E+02 0.  0.
         12    1    1    2    0    0 -0.35480339804E+02  0.23413377336E+01  0.24885475397E+02  0.43400728804E+02  0.00000000000E+00 0. -1.
         11    1    3    3    0    0  0.16280653002E+02 -0.59991760540E+01 -0.71205183017E+01  0.18755040833E+02  0.51100000000E-03 0. -1.
        -11    1    3    3    0    0  0.11866635778E+02  0.88619107103E+00 -0.17532515062E+02  0.21189418679E+02  0.51100000000E-03 0.  1.
        -12    1    3    3    0    0  0.73330510244E+01  0.27716472493E+01 -0.23244203263E+00  0.78428116833E+01  0.00000000000E+00 0.  1.
</event>
<event>
 7    1  0.2706925E-010  0.4778727E+02  0.7816164E-02  0.1312668E+00
        -11   -1    0    0    0    0  0.00000000000E+00  0.00000000000E+00  0.45593999997E+02  0.45594000000E+02  0.51100000000E-03 0. -1.
         11   -1    0    0    0    0 -0.00000000000E+00 -0.00000000000E+00 -0.45593999997E+02  0.45594000000E+02  0.51100000000E-03 0.  1.
    9900012    2    1    2    0    0 -0.86182290995E+01 -0.18080492205E+02 -0.38502534706E+02  0.47787271319E+02  0.20000001254E+02 0.  0.
         12    1    1    2    0    0  0.86182290995E+01  0.18080492205E+02  0.38502534706E+02  0.43400728681E+02  0.00000000000E+00 0. -1.
         11    1    3    3    0    0 -0.70243966501E+01 -0.54714199659E+01 -0.20759857053E+01  0.91426638159E+01  0.51100000000E-03 0. -1.
        -11    1    3    3    0    0 -0.19867461586E+01 -0.82061311283E+01 -0.22423321389E+02  0.23960239790E+02  0.51100000000E-03 0.  1.
         12    1    3    3    0    0  0.39291370919E+00 -0.44029411109E+01 -0.14003227612E+02  0.14684367714E+02  0.00000000000E+00 0. -1.
</event>
<event>
 7    1  0.2706925E-010  0.4778727E+02  0.7816164E-02  0.1312668E+00
        -11   -1    0    0    0    0  0.00000000000E+00  0.00000000000E+00  0.45593999997E+02  0.45594000000E+02  0.51100000000E-03 0.  1.
         11   -1    0    0    0    0 -0.00000000000E+00 -0.00000000000E+00 -0.45593999997E+02  0.45594000000E+02  0.51100000000E-03 0. -1.
    9900012    2    1    2    0    0  0.14812112430E+02 -0.24386948935E+02  0.32703233000E+02  0.47787269572E+02  0.19999993288E+02 0.  0.
         12    1    1    2    0    0 -0.14812112430E+02  0.24386948935E+02 -0.32703233000E+02  0.43400730428E+02  0.00000000000E+00 0. -1.
         11    1    3    3    0    0  0.10861466529E+02 -0.65256286193E+01  0.49695934539E+01  0.13610736328E+02  0.51100000000E-03 0. -1.
        -11    1    3    3    0    0  0.19199024110E+01 -0.17170741476E+01  0.90082736195E+01  0.93692776008E+01  0.51100000000E-03 0.  1.
         12    1    3    3    0    0  0.20307434900E+01 -0.16144246168E+02  0.18725365927E+02  0.24807255643E+02  0.00000000000E+00 0. -1.
</event>
<event>
 7    1  0.2706925E-010  0.4778728E+02  0.7816164E-02  0.1312668E+00
        -11   -1    0    0    0    0  0.00000000000E+00  0.00000000000E+00  0.45593999997E+02  0.45594000000E+02  0.51100000000E-03 0.  1.
         11   -1    0    0    0    0 -0.00000000000E+00 -0.00000000000E+00 -0.45593999997E+02  0.45594000000E+02  0.51100000000E-03 0. -1.
    9900012    2    1    2    0    0  0.12936572614E+02 -0.41276509479E+02 -0.35379855643E+01  0.47787280102E+02  0.20000041299E+02 0.  0.
         12    1    1    2    0    0 -0.12936572614E+02  0.41276509479E+02  0.35379855643E+01  0.43400719898E+02  0.00000000000E+00 0. -1.
         11    1    3    3    0    0  0.86070947235E+01 -0.85243450099E+01  0.31552011441E+01  0.12518060231E+02  0.51100000000E-03 0. -1.
        -11    1    3    3    0    0  0.48518959047E+01 -0.33170332818E+02 -0.56004851270E+01  0.33987899421E+02  0.51100000000E-03 0.  1.
         12    1    3    3    0    0 -0.52241801462E+00  0.41816834886E+00 -0.10927015814E+01  0.12813204502E+01  0.00000000000E+00 0. -1.
</event>
<event>
 7    1  0.2706925E-010  0.4778729E+02  0.7816164E-02  0.1312668E+00
        -11   -1    0    0    0    0  0.00000000000E+00  0.00000000000E+00  0.45593999997E+02  0.45594000000E+02  0.51100000000E-03 0. -1.
         11   -1    0    0    0    0 -0.00000000000E+00 -0.00000000000E+00 -0.45593999997E+02  0.45594000000E+02  0.51100000000E-03 0.  1.
    9900012    2    1    2    0    0 -0.26783374049E+02 -0.33667203270E+02  0.57264360389E+01  0.47787288356E+02  0.20000078929E+02 0.  0.
         12    1    1    2    0    0  0.26783374049E+02  0.33667203270E+02 -0.57264360389E+01  0.43400711644E+02  0.00000000000E+00 0. -1.
         11    1    3    3    0    0 -0.13809833270E+02 -0.75857898826E+01  0.25542866893E+01  0.15961832095E+02  0.51100000000E-03 0. -1.
        -11    1    3    3    0    0  0.96868012815E+00 -0.10316682814E+02 -0.85817571842E+00  0.10397535829E+02  0.51100000000E-03 0.  1.
        -12    1    3    3    0    0 -0.13942220908E+02 -0.15764730573E+02  0.40303250680E+01  0.21427920432E+02  0.00000000000E+00 0.  1.
</event>
<event>
 7    1  0.2706925E-010  0.4778723E+02  0.7816164E-02  0.1312668E+00
        -11   -1    0    0    0    0  0.00000000000E+00  0.00000000000E+00  0.45593999997E+02  0.45594000000E+02  0.51100000000E-03 0.  1.
         11   -1    0    0    0    0 -0.00000000000E+00 -0.00000000000E+00 -0.45593999997E+02  0.45594000000E+02  0.51100000000E-03 0. -1.
    9900012    2    1    2    0    0 -0.40103237266E+02 -0.12409741413E+02  0.11016164766E+02  0.47787225730E+02  0.19999793390E+02 0.  0.
         12    1    1    2    0    0  0.40103237266E+02  0.12409741413E+02 -0.11016164766E+02  0.43400774270E+02  0.00000000000E+00 0. -1.
         11    1    3    3    0    0 -0.14604903617E+02  0.13506282815E+01  0.94466387256E+01  0.17446099560E+02  0.51100000000E-03 0. -1.
        -11    1    3    3    0    0 -0.17340166114E+02 -0.13766092785E+02  0.13080991119E+01  0.22178769014E+02  0.51100000000E-03 0.  1.
        -12    1    3    3    0    0 -0.81581675350E+01  0.57230905939E-02  0.26142692840E+00  0.81623571547E+01  0.00000000000E+00 0.  1.
</event>
<event>
 7    1  0.2706925E-010  0.4778727E+02  0.7816164E-02  0.1312668E+00
        -11   -1    0    0    0    0  0.00000000000E+00  0.00000000000E+00  0.45593999997E+02  0.45594000000E+02  0.51100000000E-03 0.  1.
         11   -1    0    0    0    0 -0.00000000000E+00 -0.00000000000E+00 -0.45593999997E+02  0.45594000000E+02  0.51100000000E-03 0. -1.
    9900012    2    1    2    0    0 -0.29759718326E+02 -0.24396052019E+02  0.20070247247E+02  0.47787274044E+02  0.20000013676E+02 0.  0.
         12    1    1    2    0    0  0.29759718326E+02  0.24396052019E+02 -0.20070247247E+02  0.43400725956E+02  0.00000000000E+00 0. -1.
         11    1    3    3    0    0 -0.13603085537E+02 -0.13580515283E+02  0.12440108059E+02  0.22896083077E+02  0.51100000000E-03 0.  1.
        -11    1    3    3    0    0 -0.51914507738E+01 -0.52841179407E+01 -0.36120051007E+01  0.82413375526E+01  0.51100000000E-03 0. -1.
        -12    1    3    3    0    0 -0.10965182015E+02 -0.55314187952E+01  0.11242144289E+02  0.16649853414E+02  0.00000000000E+00 0.  1.
</event>
<event>
 7    1  0.2706925E-010  0.4778727E+02  0.7816164E-02  0.1312668E+00
        -11   -1    0    0    0    0  0.00000000000E+00  0.00000000000E+00  0.45593999997E+02  0.45594000000E+02  0.51100000000E-03 0.  1.
         11   -1    0    0    0    0 -0.00000000000E+00 -0.00000000000E+00 -0.45593999997E+02  0.45594000000E+02  0.51100000000E-03 0. -1.
    9900012    2    1    2    0    0  0.42438580789E+01  0.29707828309E+02  0.31353754404E+02  0.47787270634E+02  0.19999998131E+02 0.  0.
         12    1    1    2    0    0 -0.42438580789E+01 -0.29707828309E+02 -0.31353754404E+02  0.43400729366E+02  0.00000000000E+00 0. -1.
         11    1    3    3    0    0  0.58727022732E+01  0.65943757840E+00  0.58924375666E+01  0.83453166894E+01  0.51100000000E-03 0. -1.
        -11    1    3    3    0    0 -0.17051781342E+01  0.64376414238E+01  0.22285704448E+01  0.70226338406E+01  0.51100000000E-03 0.  1.
         12    1    3    3    0    0  0.76333939917E-01  0.22610749307E+02  0.23232746393E+02  0.32419320104E+02  0.00000000000E+00 0. -1.
</event>
<event>
 7    1  0.2706925E-010  0.4778723E+02  0.7816164E-02  0.1312668E+00
        -11   -1    0    0    0    0  0.00000000000E+00  0.00000000000E+00  0.45593999997E+02  0.45594000000E+02  0.51100000000E-03 0. -1.
         11   -1    0    0    0    0 -0.00000000000E+00 -0.00000000000E+00 -0.45593999997E+02  0.45594000000E+02  0.51100000000E-03 0.  1.
    9900012    2    1    2    0    0  0.23935542873E+02  0.22680653510E+02 -0.28218867665E+02  0.47787231014E+02  0.19999817485E+02 0.  0.
         12    1    1    2    0    0 -0.23935542873E+02 -0.22680653510E+02  0.28218867665E+02  0.43400768986E+02  0.00000000000E+00 0. -1.
         11    1    3    3    0    0  0.36124166832E+01  0.48137338491E+01 -0.14858271039E+02  0.16030901608E+02  0.51100000000E-03 0. -1.
        -11    1    3    3    0    0  0.21434654756E+02  0.16539905693E+02 -0.12678270730E+02  0.29895676172E+02  0.51100000000E-03 0.  1.
        -12    1    3    3    0    0 -0.11115285663E+01  0.13270139684E+01 -0.68232589649E+00  0.18606532334E+01  0.00000000000E+00 0.  1.
</event>
<event>
 7    1  0.2706925E-010  0.4778727E+02  0.7816164E-02  0.1312668E+00
        -11   -1    0    0    0    0  0.00000000000E+00  0.00000000000E+00  0.45593999997E+02  0.45594000000E+02  0.51100000000E-03 0. -1.
         11   -1    0    0    0    0 -0.00000000000E+00 -0.00000000000E+00 -0.45593999997E+02  0.45594000000E+02  0.51100000000E-03 0.  1.
    9900012    2    1    2    0    0  0.21293527859E+02  0.18363417646E+02  0.33060459036E+02  0.47787269729E+02  0.19999994004E+02 0.  0.
         12    1    1    2    0    0 -0.21293527859E+02 -0.18363417646E+02 -0.33060459036E+02  0.43400730271E+02  0.00000000000E+00 0. -1.
         11    1    3    3    0    0  0.22648028420E+01  0.12420668632E+01  0.11079309866E+02  0.11376430432E+02  0.51100000000E-03 0. -1.
        -11    1    3    3    0    0  0.18994781184E+02  0.10098857047E+02  0.13491498372E+02  0.25393092653E+02  0.51100000000E-03 0.  1.
        -12    1    3    3    0    0  0.33943833306E-01  0.70224937353E+01  0.84896507982E+01  0.11017746645E+02  0.00000000000E+00 0.  1.
</event>
<event>
 7    1  0.2706925E-010  0.4778726E+02  0.7816164E-02  0.1312668E+00
        -11   -1    0    0    0    0  0.00000000000E+00  0.00000000000E+00  0.45593999997E+02  0.45594000000E+02  0.51100000000E-03 0. -1.
         11   -1    0    0    0    0 -0.00000000000E+00 -0.00000000000E+00 -0.45593999997E+02  0.45594000000E+02  0.51100000000E-03 0.  1.
    9900012    2    1    2    0    0  0.19558707468E+02 -0.18887887758E+02 -0.33827927926E+02  0.47787262108E+02  0.19999959256E+02 0.  0.
         12    1    1    2    0    0 -0.19558707468E+02  0.18887887758E+02  0.33827927926E+02  0.43400737892E+02  0.00000000000E+00 0. -1.
         11    1    3    3    0    0 -0.20358956699E+01 -0.17567005609E+01  0.67839627180E+00  0.27732814141E+01  0.51100000000E-03 0. -1.
        -11    1    3    3    0    0  0.21438250603E+02 -0.13924823886E+02 -0.29169502128E+02  0.38786069198E+02  0.51100000000E-03 0.  1.
         12    1    3    3    0    0  0.15635253512E+00 -0.32063633118E+01 -0.53368220692E+01  0.62279114959E+01  0.00000000000E+00 0. -1.
</event>
<event>
 7    1  0.2706925E-010  0.4778727E+02  0.7816164E-02  0.1312668E+00
        -11   -1    0    0    0    0  0.00000000000E+00  0.00000000000E+00  0.45593999997E+02  0.45594000000E+02  0.51100000000E-03 0.  1.
         11   -1    0    0    0    0 -0.00000000000E+00 -0.00000000000E+00 -0.45593999997E+02  0.45594000000E+02  0.51100000000E-03 0. -1.
    9900012    2    1    2    0    0 -0.14760675108E+02  0.32054445213E+02  0.25263776077E+02  0.47787269946E+02  0.19999994992E+02 0.  0.
         12    1    1    2    0    0  0.14760675108E+02 -0.32054445213E+02 -0.25263776077E+02  0.43400730054E+02  0.00000000000E+00 0. -1.
         11    1    3    3    0    0  0.21573989125E+01  0.31586013751E+01  0.18064939132E+01  0.42301954132E+01  0.51100000000E-03 0. -1.
        -11    1    3    3    0    0 -0.18941455146E+02  0.28427876324E+02  0.20175401444E+02  0.39673286970E+02  0.51100000000E-03 0.  1.
        -12    1    3    3    0    0  0.20233811258E+01  0.46796751416E+00  0.32818807192E+01  0.38837875624E+01  0.00000000000E+00 0.  1.
</event>
<event>
 7    1  0.2706925E-010  0.4778727E+02  0.7816164E-02  0.1312668E+00
        -11   -1    0    0    0    0  0.00000000000E+00  0.00000000000E+00  0.45593999997E+02  0.45594000000E+02  0.51100000000E-03 0. -1.
         11   -1    0    0    0    0 -0.00000000000E+00 -0.00000000000E+00 -0.45593999997E+02  0.45594000000E+02  0.51100000000E-03 0.  1.
    9900012    2    1    2    0    0  0.85974543785E+00  0.38215341519E+02 -0.20554115649E+02  0.47787272359E+02  0.20000005996E+02 0.  0.
         12    1    1    2    0    0 -0.85974543785E+00 -0.38215341519E+02  0.20554115649E+02  0.43400727641E+02  0.00000000000E+00 0. -1.
         11    1    3    3    0    0  0.67728326690E+01  0.82281783929E+01 -0.22770418126E+01  0.10897664966E+02  0.51100000000E-03 0. -1.
        -11    1    3    3    0    0  0.26531355711E+01  0.81836945833E+01 -0.54083771532E+01  0.10161817214E+02  0.51100000000E-03 0.  1.
         12    1    3    3    0    0 -0.85662228022E+01  0.21803468543E+02 -0.12868696683E+02  0.26727790180E+02  0.00000000000E+00 0. -1.
</event>
<event>
 7    1  0.2706925E-010  0.4778726E+02  0.7816164E-02  0.1312668E+00
        -11   -1    0    0    0    0  0.00000000000E+00  0.00000000000E+00  0.45593999997E+02  0.45594000000E+02  0.51100000000E-03 0.  1.
         11   -1    0    0    0    0 -0.00000000000E+00 -0.00000000000E+00 -0.45593999997E+02  0.45594000000E+02  0.51100000000E-03 0. -1.
    9900012    2    1    2    0    0 -0.30115923820E+02  0.16137707331E+01  0.31209787937E+02  0.47787262833E+02  0.19999962563E+02 0.  0.
         12    1    1    2    0    0  0.30115923820E+02 -0.16137707331E+01 -0.31209787937E+02  0.43400737167E+02  0.00000000000E+00 0. -1.
         11    1    3    3    0    0 -0.78911125663E+01 -0.36827639191E+01  0.14188529005E+02  0.16647725467E+02  0.51100000000E-03 0. -1.
        -11    1    3    3    0    0 -0.18900383949E+01  0.36979337788E+01 -0.58560884513E+00  0.41940311572E+01  0.51100000000E-03 0.  1.
        -12    1    3    3    0    0 -0.20334772859E+02  0.15986008734E+01  0.17606867777E+02  0.26945506210E+02  0.00000000000E+00 0.  1.
</event>
<event>
 7    1  0.2706925E-010  0.4778727E+02  0.7816164E-02  0.1312668E+00
        -11   -1    0    0    0    0  0.00000000000E+00  0.00000000000E+00  0.45593999997E+02  0.45594000000E+02  0.51100000000E-03 0.  1.
         11   -1    0    0    0    0 -0.00000000000E+00 -0.00000000000E+00 -0.45593999997E+02  0.45594000000E+02  0.51100000000E-03 0. -1.
    9900012    2    1    2    0    0  0.28389166738E+02  0.32807701872E+02 -0.11547092569E+01  0.47787269088E+02  0.19999991080E+02 0.  0.
         12    1    1    2    0    0 -0.28389166738E+02 -0.32807701872E+02  0.11547092569E+01  0.43400730912E+02  0.00000000000E+00 0. -1.
         11    1    3    3    0    0  0.18001317139E+02  0.10271624124E+02  0.24898954612E+01  0.20874703843E+02  0.51100000000E-03 0. -1.
        -11    1    3    3    0    0  0.84239641650E+01  0.22785632649E+02 -0.45834078823E+01  0.24721566608E+02  0.51100000000E-03 0.  1.
        -12    1    3    3    0    0  0.19638854342E+01 -0.24955490063E+00  0.93880316417E+00  0.21909986372E+01  0.00000000000E+00 0.  1.
</event>
<event>
 7    1  0.2706925E-010  0.4778727E+02  0.7816164E-02  0.1312668E+00
        -11   -1    0    0    0    0  0.00000000000E+00  0.00000000000E+00  0.45593999997E+02  0.45594000000E+02  0.51100000000E-03 0. -1.
         11   -1    0    0    0    0 -0.00000000000E+00 -0.00000000000E+00 -0.45593999997E+02  0.45594000000E+02  0.51100000000E-03 0.  1.
    9900012    2    1    2    0    0  0.30466117679E+02 -0.21827152037E+02 -0.21886404695E+02  0.47787267253E+02  0.19999982712E+02 0.  0.
         12    1    1    2    0    0 -0.30466117679E+02  0.21827152037E+02  0.21886404695E+02  0.43400732747E+02  0.00000000000E+00 0. -1.
         11    1    3    3    0    0  0.69904328402E+01 -0.63346125647E+01  0.27265544255E+01  0.98197539141E+01  0.51100000000E-03 0. -1.
        -11    1    3    3    0    0  0.13297277722E+02 -0.48781484946E+01 -0.13065172902E+02  0.19269475103E+02  0.51100000000E-03 0.  1.
        -12    1    3    3    0    0  0.10178407118E+02 -0.10614390978E+02 -0.11547786219E+02  0.18698038235E+02  0.00000000000E+00 0.  1.
</event>
<event>
 7    1  0.2706925E-010  0.4778726E+02  0.7816164E-02  0.1312668E+00
        -11   -1    0    0    0    0  0.00000000000E+00  0.00000000000E+00  0.45593999997E+02  0.45594000000E+02  0.51100000000E-03 0.  1.
         11   -1    0    0    0    0 -0.00000000000E+00 -0.00000000000E+00 -0.45593999997E+02  0.45594000000E+02  0.51100000000E-03 0. -1.
    9900012    2    1    2    0    0 -0.41735498238E+02  0.55234995855E+01  0.10548129427E+02  0.47787263886E+02  0.19999967362E+02 0.  0.
         12    1    1    2    0    0  0.41735498238E+02 -0.55234995855E+01 -0.10548129427E+02  0.43400736114E+02  0.00000000000E+00 0. -1.
         11    1    3    3    0    0  0.14329707024E+01  0.11446460544E+01  0.13191204735E+01  0.22591367175E+01  0.51100000000E-03 0. -1.
        -11    1    3    3    0    0 -0.30985643470E+02  0.28677860217E+01  0.17804513171E+01  0.31168963811E+02  0.51100000000E-03 0.  1.
        -12    1    3    3    0    0 -0.12182825470E+02  0.15110675094E+01  0.74485576365E+01  0.14359163357E+02  0.00000000000E+00 0.  1.
</event>
<event>
 7    1  0.2706925E-010  0.4778727E+02  0.7816164E-02  0.1312668E+00
        -11   -1    0    0    0    0  0.00000000000E+00  0.00000000000E+00  0.45593999997E+02  0.45594000000E+02  0.51100000000E-03 0. -1.
         11   -1    0    0    0    0 -0.00000000000E+00 -0.00000000000E+00 -0.45593999997E+02  0.45594000000E+02  0.51100000000E-03 0.  1.
    9900012    2    1    2    0    0 -0.27231281129E+02 -0.20852344591E+02 -0.26594362812E+02  0.47787273275E+02  0.20000010170E+02 0.  0.
         12    1    1    2    0    0  0.27231281129E+02  0.20852344591E+02  0.26594362812E+02  0.43400726725E+02  0.00000000000E+00 0. -1.
         11    1    3    3    0    0 -0.41155604522E+01 -0.40465031330E+01 -0.16340629243E+02  0.17329979508E+02  0.51100000000E-03 0. -1.
        -11    1    3    3    0    0 -0.12095242379E+02 -0.10066377001E+02 -0.62674551042E+01  0.16938353754E+02  0.51100000000E-03 0.  1.
         12    1    3    3    0    0 -0.11020478298E+02 -0.67394644564E+01 -0.39862784650E+01  0.13518940013E+02  0.00000000000E+00 0. -1.
</event>
<event>
 7    1  0.2706925E-010  0.4778730E+02  0.7816164E-02  0.1312668E+00
        -11   -1    0    0    0    0  0.00000000000E+00  0.00000000000E+00  0.45593999997E+02  0.45594000000E+02  0.51100000000E-03 0. -1.
         11   -1    0    0    0    0 -0.00000000000E+00 -0.00000000000E+00 -0.45593999997E+02  0.45594000000E+02  0.51100000000E-03 0.  1.
    9900012    2    1    2    0    0 -0.41208510409E+02 -0.38803254835E+00  0.13613565193E+02  0.47787296588E+02  0.20000116465E+02 0.  0.
         12    1    1    2    0    0  0.41208510409E+02  0.38803254835E+00 -0.13613565193E+02  0.43400703412E+02  0.00000000000E+00 0. -1.
         11    1    3    3    0    0 -0.27082190448E+01 -0.14377662170E+01  0.61499325683E+01  0.68719206155E+01  0.51100000000E-03 0. -1.
        -11    1    3    3    0    0 -0.34445160917E+02 -0.16736005769E+01  0.35726740777E+01  0.34670362701E+02  0.51100000000E-03 0.  1.
        -12    1    3    3    0    0 -0.40551304469E+01  0.27233342456E+01  0.38909585468E+01  0.62450132720E+01  0.00000000000E+00 0.  1.
</event>
<event>
 7    1  0.2706925E-010  0.4778727E+02  0.7816164E-02  0.1312668E+00
        -11   -1    0    0    0    0  0.00000000000E+00  0.00000000000E+00  0.45593999997E+02  0.45594000000E+02  0.51100000000E-03 0.  1.
         11   -1    0    0    0    0 -0.00000000000E+00 -0.00000000000E+00 -0.45593999997E+02  0.45594000000E+02  0.51100000000E-03 0. -1.
    9900012    2    1    2    0    0  0.40495101156E+02 -0.71864359652E+01  0.13860921960E+02  0.47787271468E+02  0.20000001933E+02 0.  0.
         12    1    1    2    0    0 -0.40495101156E+02  0.71864359652E+01 -0.13860921960E+02  0.43400728532E+02  0.00000000000E+00 0. -1.
         11    1    3    3    0    0  0.21682749916E+01 -0.50040845519E+01  0.35680885730E+01  0.65171723138E+01  0.51100000000E-03 0. -1.
        -11    1    3    3    0    0  0.20282838661E+02  0.37074794487E+01  0.81398546029E+01  0.22167457708E+02  0.51100000000E-03 0.  1.
         12    1    3    3    0    0  0.18043987503E+02 -0.58898308620E+01  0.21529787837E+01  0.19102641447E+02  0.00000000000E+00 0. -1.
</event>
<event>
 7    1  0.2706925E-010  0.4778727E+02  0.7816164E-02  0.1312668E+00
        -11   -1    0    0    0    0  0.00000000000E+00  0.00000000000E+00  0.45593999997E+02  0.45594000000E+02  0.51100000000E-03 0. -1.
         11   -1    0    0    0    0 -0.00000000000E+00 -0.00000000000E+00 -0.45593999997E+02  0.45594000000E+02  0.51100000000E-03 0.  1.
    9900012    2    1    2    0    0 -0.32427429329E+02 -0.36970749340E+01 -0.28607983410E+02  0.47787271311E+02  0.20000001215E+02 0.  0.
         12    1    1    2    0    0  0.32427429329E+02  0.36970749340E+01  0.28607983410E+02  0.43400728689E+02  0.00000000000E+00 0. -1.
         11    1    3    3    0    0 -0.20113270984E+02  0.27501424997E+01 -0.22521718860E+02  0.30320533869E+02  0.51100000000E-03 0.  1.
        -11    1    3    3    0    0 -0.20628518010E+01 -0.29554329764E+01 -0.55578608143E+01  0.66241798528E+01  0.51100000000E-03 0. -1.
         12    1    3    3    0    0 -0.10251306544E+02 -0.34917844573E+01 -0.52840373572E+00  0.10842557589E+02  0.00000000000E+00 0. -1.
</event>
<event>
 7    1  0.2706925E-010  0.4778727E+02  0.7816164E-02  0.1312668E+00
        -11   -1    0    0    0    0  0.00000000000E+00  0.00000000000E+00  0.45593999997E+02  0.45594000000E+02  0.51100000000E-03 0.  1.
         11   -1    0    0    0    0 -0.00000000000E+00 -0.00000000000E+00 -0.45593999997E+02  0.45594000000E+02  0.51100000000E-03 0. -1.
    9900012    2    1    2    0    0 -0.51496042724E+01 -0.43021786665E+02 -0.24961477783E+01  0.47787270677E+02  0.19999998327E+02 0.  0.
         12    1    1    2    0    0  0.51496042724E+01  0.43021786665E+02  0.24961477783E+01  0.43400729323E+02  0.00000000000E+00 0. -1.
         11    1    3    3    0    0  0.22857653965E+01 -0.83739556991E+01 -0.20416548513E+01  0.89171863439E+01  0.51100000000E-03 0. -1.
        -11    1    3    3    0    0  0.31006389866E+01 -0.21492076758E+02  0.21282573765E+01  0.21818634357E+02  0.51100000000E-03 0.  1.
        -12    1    3    3    0    0 -0.10536008655E+02 -0.13155754208E+02 -0.25827503035E+01  0.17051449976E+02  0.00000000000E+00 0.  1.
</event>
<event>
 7    1  0.2706925E-010  0.4778727E+02  0.7816164E-02  0.1312668E+00
        -11   -1    0    0    0    0  0.00000000000E+00  0.00000000000E+00  0.45593999997E+02  0.45594000000E+02  0.51100000000E-03 0.  1.
         11   -1    0    0    0    0 -0.00000000000E+00 -0.00000000000E+00 -0.45593999997E+02  0.45594000000E+02  0.51100000000E-03 0. -1.
    9900012    2    1    2    0    0  0.15402429468E+02 -0.31866137031E+02  0.25118477322E+02  0.47787269294E+02  0.19999992020E+02 0.  0.
         12    1    1    2    0    0 -0.15402429468E+02  0.31866137031E+02 -0.25118477322E+02  0.43400730706E+02  0.00000000000E+00 0. -1.
         11    1    3    3    0    0  0.91702660431E+01 -0.26020974076E+01  0.29278263629E+01  0.99718031315E+01  0.51100000000E-03 0. -1.
        -11    1    3    3    0    0  0.64473885833E+01 -0.25694056979E+02  0.16875842131E+02  0.31409352611E+02  0.51100000000E-03 0.  1.
         12    1    3    3    0    0 -0.21522515817E+00 -0.35699826450E+01  0.53148088283E+01  0.64061135516E+01  0.00000000000E+00 0. -1.
</event>
<event>
 7    1  0.2706925E-010  0.4778727E+02  0.7816164E-02  0.1312668E+00
        -11   -1    0    0    0    0  0.00000000000E+00  0.00000000000E+00  0.45593999997E+02  0.45594000000E+02  0.51100000000E-03 0. -1.
         11   -1    0    0    0    0 -0.00000000000E+00 -0.00000000000E+00 -0.45593999997E+02  0.45594000000E+02  0.51100000000E-03 0.  1.
    9900012    2    1    2    0    0  0.14496933821E+02 -0.40342786821E+02 -0.67765767979E+01  0.47787268073E+02  0.19999986454E+02 0.  0.
         12    1    1    2    0    0 -0.14496933821E+02  0.40342786821E+02  0.67765767979E+01  0.43400731927E+02  0.00000000000E+00 0. -1.
         11    1    3    3    0    0  0.55421075822E+01 -0.60816311562E+01  0.14685868297E+01  0.83581063352E+01  0.51100000000E-03 0. -1.
        -11    1    3    3    0    0 -0.14092629231E+01 -0.23227061177E+02 -0.66837349348E+01  0.24210632083E+02  0.51100000000E-03 0.  1.
        -12    1    3    3    0    0  0.10364089162E+02 -0.11034094487E+02 -0.15614286928E+01  0.15218529655E+02  0.00000000000E+00 0.  1.
</event>
<event>
 7    1  0.2706925E-010  0.4778727E+02  0.7816164E-02  0.1312668E+00
        -11   -1    0    0    0    0  0.00000000000E+00  0.00000000000E+00  0.45593999997E+02  0.45594000000E+02  0.51100000000E-03 0.  1.
         11   -1    0    0    0    0 -0.00000000000E+00 -0.00000000000E+00 -0.45593999997E+02  0.45594000000E+02  0.51100000000E-03 0. -1.
    9900012    2    1    2    0    0 -0.26634670915E+02 -0.18312724469E+02  0.28963107575E+02  0.47787272211E+02  0.20000005317E+02 0.  0.
         12    1    1    2    0    0  0.26634670915E+02  0.18312724469E+02 -0.28963107575E+02  0.43400727789E+02  0.00000000000E+00 0. -1.
         11    1    3    3    0    0 -0.54207806753E+01  0.36803119681E+01  0.55072927767E+01  0.85591958326E+01  0.51100000000E-03 0. -1.
        -11    1    3    3    0    0 -0.16332843479E+02 -0.16496064413E+02  0.13505266801E+02  0.26856547597E+02  0.51100000000E-03 0.  1.
        -12    1    3    3    0    0 -0.48810467614E+01 -0.54969720238E+01  0.99505479976E+01  0.12371528781E+02  0.00000000000E+00 0.  1.
</event>
<event>
 7    1  0.2706925E-010  0.4778727E+02  0.7816164E-02  0.1312668E+00
        -11   -1    0    0    0    0  0.00000000000E+00  0.00000000000E+00  0.45593999997E+02  0.45594000000E+02  0.51100000000E-03 0.  1.
         11   -1    0    0    0    0 -0.00000000000E+00 -0.00000000000E+00 -0.45593999997E+02  0.45594000000E+02  0.51100000000E-03 0. -1.
    9900012    2    1    2    0    0 -0.28802714037E+02 -0.21162072331E+02  0.24621005992E+02  0.47787267549E+02  0.19999984061E+02 0.  0.
         12    1    1    2    0    0  0.28802714037E+02  0.21162072331E+02 -0.24621005992E+02  0.43400732451E+02  0.00000000000E+00 0. -1.
         11    1    3    3    0    0  0.20208754177E+01 -0.72426221373E+00 -0.11646310211E+01  0.24423060587E+01  0.51100000000E-03 0. -1.
        -11    1    3    3    0    0 -0.16279834291E+02 -0.13442914648E+02  0.13463652893E+02  0.25040265738E+02  0.51100000000E-03 0.  1.
         12    1    3    3    0    0 -0.14543755163E+02 -0.69948954698E+01  0.12321984121E+02  0.20304695751E+02  0.00000000000E+00 0. -1.
</event>
<event>
 7    1  0.2706925E-010  0.4778727E+02  0.7816164E-02  0.1312668E+00
        -11   -1    0    0    0    0  0.00000000000E+00  0.00000000000E+00  0.45593999997E+02  0.45594000000E+02  0.51100000000E-03 0.  1.
         11   -1    0    0    0    0 -0.00000000000E+00 -0.00000000000E+00 -0.45593999997E+02  0.45594000000E+02  0.51100000000E-03 0. -1.
    9900012    2    1    2    0    0 -0.92961188794E+01  0.18753950629E+02  0.38019663808E+02  0.47787270438E+02  0.19999997236E+02 0.  0.
         12    1    1    2    0    0  0.92961188794E+01 -0.18753950629E+02 -0.38019663808E+02  0.43400729562E+02  0.00000000000E+00 0. -1.
         11    1    3    3    0    0 -0.23897751905E+01 -0.25811929001E+01  0.12487348223E+02  0.12973336046E+02  0.51100000000E-03 0. -1.
        -11    1    3    3    0    0 -0.34527913054E+00  0.11664700391E+02  0.99459492244E+01  0.15333178377E+02  0.51100000000E-03 0.  1.
         12    1    3    3    0    0 -0.65610645584E+01  0.96704431380E+01  0.15586366360E+02  0.19480756016E+02  0.00000000000E+00 0. -1.
</event>
<event>
 7    1  0.2706925E-010  0.4778726E+02  0.7816164E-02  0.1312668E+00
        -11   -1    0    0    0    0  0.00000000000E+00  0.00000000000E+00  0.45593999997E+02  0.45594000000E+02  0.51100000000E-03 0.  1.
         11   -1    0    0    0    0 -0.00000000000E+00 -0.00000000000E+00 -0.45593999997E+02  0.45594000000E+02  0.51100000000E-03 0. -1.
    9900012    2    1    2    0    0 -0.22158382016E+02  0.70380747673E+01  0.36648270267E+02  0.47787261486E+02  0.19999956420E+02 0.  0.
         12    1    1    2    0    0  0.22158382016E+02 -0.70380747673E+01 -0.36648270267E+02  0.43400738514E+02  0.00000000000E+00 0. -1.
         11    1    3    3    0    0 -0.17642189038E+02  0.10635428366E+02  0.17054007833E+02  0.26743192667E+02  0.51100000000E-03 0. -1.
        -11    1    3    3    0    0 -0.89350666017E+00 -0.49456994301E+00  0.12213945195E+02  0.12256566039E+02  0.51100000000E-03 0.  1.
         12    1    3    3    0    0 -0.36226863179E+01 -0.31027836555E+01  0.73803172384E+01  0.87875027801E+01  0.00000000000E+00 0. -1.
</event>
<event>
 7    1  0.2706925E-010  0.4778727E+02  0.7816164E-02  0.1312668E+00
        -11   -1    0    0    0    0  0.00000000000E+00  0.00000000000E+00  0.45593999997E+02  0.45594000000E+02  0.51100000000E-03 0.  1.
         11   -1    0    0    0    0 -0.00000000000E+00 -0.00000000000E+00 -0.45593999997E+02  0.45594000000E+02  0.51100000000E-03 0. -1.
    9900012    2    1    2    0    0  0.30275288602E+02 -0.15572299864E+02  0.26917163894E+02  0.47787270339E+02  0.19999996785E+02 0.  0.
         12    1    1    2    0    0 -0.30275288602E+02  0.15572299864E+02 -0.26917163894E+02  0.43400729661E+02  0.00000000000E+00 0. -1.
         11    1    3    3    0    0 -0.13647307501E+01 -0.17271458632E+01  0.71739116935E+00  0.23152047866E+01  0.51100000000E-03 0. -1.
        -11    1    3    3    0    0  0.14231471384E+02 -0.46558594921E+01  0.19693729746E+02  0.24739741246E+02  0.51100000000E-03 0.  1.
        -12    1    3    3    0    0  0.17408547968E+02 -0.91892945084E+01  0.65060429791E+01  0.20732324306E+02  0.00000000000E+00 0.  1.
</event>
<event>
 7    1  0.2706925E-010  0.4778727E+02  0.7816164E-02  0.1312668E+00
        -11   -1    0    0    0    0  0.00000000000E+00  0.00000000000E+00  0.45593999997E+02  0.45594000000E+02  0.51100000000E-03 0.  1.
         11   -1    0    0    0    0 -0.00000000000E+00 -0.00000000000E+00 -0.45593999997E+02  0.45594000000E+02  0.51100000000E-03 0. -1.
    9900012    2    1    2    0    0  0.36511655493E+02 -0.21972970413E+02  0.82286505338E+01  0.47787272988E+02  0.20000008860E+02 0.  0.
         12    1    1    2    0    0 -0.36511655493E+02  0.21972970413E+02 -0.82286505338E+01  0.43400727012E+02  0.00000000000E+00 0. -1.
         11    1    3    3    0    0  0.12028910466E+02 -0.37803694781E+01  0.96383120167E+01  0.15870820369E+02  0.51100000000E-03 0. -1.
        -11    1    3    3    0    0  0.21243588582E+02 -0.11693277700E+02  0.98741279202E+00  0.24269276535E+02  0.51100000000E-03 0.  1.
         12    1    3    3    0    0  0.32391564442E+01 -0.64993232351E+01 -0.23970742749E+01  0.76471760843E+01  0.00000000000E+00 0. -1.
</event>
<event>
 7    1  0.2706925E-010  0.4778727E+02  0.7816164E-02  0.1312668E+00
        -11   -1    0    0    0    0  0.00000000000E+00  0.00000000000E+00  0.45593999997E+02  0.45594000000E+02  0.51100000000E-03 0.  1.
         11   -1    0    0    0    0 -0.00000000000E+00 -0.00000000000E+00 -0.45593999997E+02  0.45594000000E+02  0.51100000000E-03 0. -1.
    9900012    2    1    2    0    0 -0.14152183482E+02 -0.30130273295E+02  0.27847898886E+02  0.47787272604E+02  0.20000007112E+02 0.  0.
         12    1    1    2    0    0  0.14152183482E+02  0.30130273295E+02 -0.27847898886E+02  0.43400727396E+02  0.00000000000E+00 0. -1.
         11    1    3    3    0    0 -0.69163363433E+00  0.27192622973E+01  0.12873316218E+01  0.30870645428E+01  0.51100000000E-03 0. -1.
        -11    1    3    3    0    0 -0.82395884392E+01 -0.26224547444E+02  0.21085003314E+02  0.34643831648E+02  0.51100000000E-03 0.  1.
         12    1    3    3    0    0 -0.52209614084E+01 -0.66249881484E+01  0.54755639500E+01  0.10056376413E+02  0.00000000000E+00 0. -1.
</event>
<event>
 7    1  0.2706925E-010  0.4778728E+02  0.7816164E-02  0.1312668E+00
        -11   -1    0    0    0    0  0.00000000000E+00  0.00000000000E+00  0.45593999997E+02  0.45594000000E+02  0.51100000000E-03 0.  1.
         11   -1    0    0    0    0 -0.00000000000E+00 -0.00000000000E+00 -0.45593999997E+02  0.45594000000E+02  0.51100000000E-03 0. -1.
    9900012    2    1    2    0    0 -0.32669139207E+02 -0.15182492885E+02 -0.24204164809E+02  0.47787281793E+02  0.20000049007E+02 0.  0.
         12    1    1    2    0    0  0.32669139207E+02  0.15182492885E+02  0.24204164809E+02  0.43400718207E+02  0.00000000000E+00 0. -1.
         11    1    3    3    0    0 -0.22440923853E+02 -0.14289516768E+02 -0.20385327596E+02  0.33516368155E+02  0.51100000000E-03 0. -1.
        -11    1    3    3    0    0 -0.11772279119E+02 -0.15514163586E+01 -0.24956190782E+01  0.12133489325E+02  0.51100000000E-03 0.  1.
         12    1    3    3    0    0  0.15440637643E+01  0.65844024140E+00 -0.13232181353E+01  0.21374243129E+01  0.00000000000E+00 0. -1.
</event>
<event>
 7    1  0.2706925E-010  0.4778726E+02  0.7816164E-02  0.1312668E+00
        -11   -1    0    0    0    0  0.00000000000E+00  0.00000000000E+00  0.45593999997E+02  0.45594000000E+02  0.51100000000E-03 0. -1.
         11   -1    0    0    0    0 -0.00000000000E+00 -0.00000000000E+00 -0.45593999997E+02  0.45594000000E+02  0.51100000000E-03 0.  1.
    9900012    2    1    2    0    0 -0.32981905523E+02 -0.28001437276E+02  0.34260252669E+01  0.47787260023E+02  0.19999949748E+02 0.  0.
         12    1    1    2    0    0  0.32981905523E+02  0.28001437276E+02 -0.34260252669E+01  0.43400739977E+02  0.00000000000E+00 0. -1.
         11    1    3    3    0    0 -0.51101626064E+01 -0.14894454043E+02  0.55676569025E+01  0.16702015649E+02  0.51100000000E-03 0. -1.
        -11    1    3    3    0    0 -0.16318358663E+02 -0.58850253627E+01 -0.19766319213E+01  0.17459365023E+02  0.51100000000E-03 0.  1.
         12    1    3    3    0    0 -0.11553384253E+02 -0.72219578704E+01 -0.16499971425E+00  0.13625879351E+02  0.00000000000E+00 0. -1.
</event>
<event>
 7    1  0.2706925E-010  0.4778727E+02  0.7816164E-02  0.1312668E+00
        -11   -1    0    0    0    0  0.00000000000E+00  0.00000000000E+00  0.45593999997E+02  0.45594000000E+02  0.51100000000E-03 0. -1.
         11   -1    0    0    0    0 -0.00000000000E+00 -0.00000000000E+00 -0.45593999997E+02  0.45594000000E+02  0.51100000000E-03 0.  1.
    9900012    2    1    2    0    0  0.37645059269E+02 -0.12381733260E+02 -0.17696484043E+02  0.47787270129E+02  0.19999995825E+02 0.  0.
         12    1    1    2    0    0 -0.37645059269E+02  0.12381733260E+02  0.17696484043E+02  0.43400729871E+02  0.00000000000E+00 0. -1.
         11    1    3    3    0    0  0.16593291880E+01 -0.33444807497E+01 -0.70940024927E+01  0.80164703247E+01  0.51100000000E-03 0. -1.
        -11    1    3    3    0    0  0.33279243183E+02 -0.60868591003E+01 -0.11376578162E+02  0.35692918225E+02  0.51100000000E-03 0.  1.
        -12    1    3    3    0    0  0.27064868981E+01 -0.29503934104E+01  0.77409661115E+00  0.40778815786E+01  0.00000000000E+00 0.  1.
</event>
<event>
 7    1  0.2706925E-010  0.4778727E+02  0.7816164E-02  0.1312668E+00
        -11   -1    0    0    0    0  0.00000000000E+00  0.00000000000E+00  0.45593999997E+02  0.45594000000E+02  0.51100000000E-03 0.  1.
         11   -1    0    0    0    0 -0.00000000000E+00 -0.00000000000E+00 -0.45593999997E+02  0.45594000000E+02  0.51100000000E-03 0. -1.
    9900012    2    1    2    0    0  0.39271812205E+01  0.43048499436E+02  0.38764860396E+01  0.47787271895E+02  0.20000003876E+02 0.  0.
         12    1    1    2    0    0 -0.39271812205E+01 -0.43048499436E+02 -0.38764860396E+01  0.43400728105E+02  0.00000000000E+00 0. -1.
         11    1    3    3    0    0  0.23821820162E+01  0.18424616800E+01  0.26764385501E+01  0.40289924019E+01  0.51100000000E-03 0. -1.
        -11    1    3    3    0    0 -0.27485285316E+01  0.34688244415E+02  0.48656189886E+01  0.35135494277E+02  0.51100000000E-03 0.  1.
        -12    1    3    3    0    0  0.42935277359E+01  0.65177933411E+01 -0.36655714991E+01  0.86227852154E+01  0.00000000000E+00 0.  1.
</event>
<event>
 7    1  0.2706925E-010  0.4778727E+02  0.7816164E-02  0.1312668E+00
        -11   -1    0    0    0    0  0.00000000000E+00  0.00000000000E+00  0.45593999997E+02  0.45594000000E+02  0.51100000000E-03 0.  1.
         11   -1    0    0    0    0 -0.00000000000E+00 -0.00000000000E+00 -0.45593999997E+02  0.45594000000E+02  0.51100000000E-03 0. -1.
    9900012    2    1    2    0    0  0.25985136278E+02  0.19123077393E+02  0.29029364212E+02  0.47787269788E+02  0.19999994272E+02 0.  0.
         12    1    1    2    0    0 -0.25985136278E+02 -0.19123077393E+02 -0.29029364212E+02  0.43400730212E+02  0.00000000000E+00 0. -1.
         11    1    3    3    0    0  0.10319273151E+02  0.11875567306E+01  0.18551758335E+02  0.21261830282E+02  0.51100000000E-03 0. -1.
        -11    1    3    3    0    0  0.70146212145E+01  0.11896949816E+02  0.62584094779E+01  0.15162783886E+02  0.51100000000E-03 0.  1.
         12    1    3    3    0    0  0.86512419125E+01  0.60385708465E+01  0.42191963990E+01  0.11362655621E+02  0.00000000000E+00 0. -1.
</event>
<event>
 7    1  0.2706925E-010  0.4778726E+02  0.7816164E-02  0.1312668E+00
        -11   -1    0    0    0    0  0.00000000000E+00  0.00000000000E+00  0.45593999997E+02  0.45594000000E+02  0.51100000000E-03 0.  1.
         11   -1    0    0    0    0 -0.00000000000E+00 -0.00000000000E+00 -0.45593999997E+02  0.45594000000E+02  0.51100000000E-03 0. -1.
    9900012    2    1    2    0    0 -0.36495397982E+02  0.23378088655E+02  0.22748625785E+01  0.47787261495E+02  0.19999956459E+02 0.  0.
         12    1    1    2    0    0  0.36495397982E+02 -0.23378088655E+02 -0.22748625785E+01  0.43400738505E+02  0.00000000000E+00 0. -1.
         11    1    3    3    0    0 -0.33502320187E+01  0.50056680718E+01  0.66602967461E+01  0.89799955697E+01  0.51100000000E-03 0. -1.
        -11    1    3    3    0    0 -0.29233246089E+02  0.17977273129E+02 -0.54143031018E+01  0.34743052606E+02  0.51100000000E-03 0.  1.
         12    1    3    3    0    0 -0.39119198751E+01  0.39514745386E+00  0.10288689342E+01  0.40642133191E+01  0.00000000000E+00 0. -1.
</event>
<event>
 7    1  0.2706925E-010  0.4778726E+02  0.7816164E-02  0.1312668E+00
        -11   -1    0    0    0    0  0.00000000000E+00  0.00000000000E+00  0.45593999997E+02  0.45594000000E+02  0.51100000000E-03 0. -1.
         11   -1    0    0    0    0 -0.00000000000E+00 -0.00000000000E+00 -0.45593999997E+02  0.45594000000E+02  0.51100000000E-03 0.  1.
    9900012    2    1    2    0    0 -0.20291259932E+02  0.14241228843E+02 -0.35624101022E+02  0.47787258045E+02  0.19999940730E+02 0.  0.
         12    1    1    2    0    0  0.20291259932E+02 -0.14241228843E+02  0.35624101022E+02  0.43400741955E+02  0.00000000000E+00 0. -1.
         11    1    3    3    0    0 -0.26394065158E+01  0.90406878787E+01 -0.75932726244E+01  0.12097863178E+02  0.51100000000E-03 0. -1.
        -11    1    3    3    0    0 -0.12951203171E+02  0.56421913561E+01 -0.27528162576E+02  0.30941359407E+02  0.51100000000E-03 0.  1.
        -12    1    3    3    0    0 -0.47006502457E+01 -0.44165039129E+00 -0.50266582195E+00  0.47480354599E+01  0.00000000000E+00 0.  1.
</event>
<event>
 7    1  0.2706925E-010  0.4778727E+02  0.7816164E-02  0.1312668E+00
        -11   -1    0    0    0    0  0.00000000000E+00  0.00000000000E+00  0.45593999997E+02  0.45594000000E+02  0.51100000000E-03 0. -1.
         11   -1    0    0    0    0 -0.00000000000E+00 -0.00000000000E+00 -0.45593999997E+02  0.45594000000E+02  0.51100000000E-03 0.  1.
    9900012    2    1    2    0    0  0.23697283548E+01 -0.23507022922E+02 -0.36406420088E+02  0.47787272324E+02  0.20000005836E+02 0.  0.
         12    1    1    2    0    0 -0.23697283548E+01  0.23507022922E+02  0.36406420088E+02  0.43400727676E+02  0.00000000000E+00 0. -1.
         11    1    3    3    0    0 -0.17017954921E+01 -0.18085073268E+02 -0.11707019761E+02  0.21610652349E+02  0.51100000000E-03 0. -1.
        -11    1    3    3    0    0  0.43028958167E+01 -0.18907399532E+01 -0.17957974782E+02  0.18562830294E+02  0.51100000000E-03 0.  1.
         12    1    3    3    0    0 -0.23137196983E+00 -0.35312097015E+01 -0.67414255448E+01  0.76137896819E+01  0.00000000000E+00 0. -1.
</event>
<event>
 7    1  0.2706925E-010  0.4778727E+02  0.7816164E-02  0.1312668E+00
        -11   -1    0    0    0    0  0.00000000000E+00  0.00000000000E+00  0.45593999997E+02  0.45594000000E+02  0.51100000000E-03 0.  1.
         11   -1    0    0    0    0 -0.00000000000E+00 -0.00000000000E+00 -0.45593999997E+02  0.45594000000E+02  0.51100000000E-03 0. -1.
    9900012    2    1    2    0    0 -0.19589063449E+02  0.21022809004E+02  0.32525892231E+02  0.47787267625E+02  0.19999984411E+02 0.  0.
         12    1    1    2    0    0  0.19589063449E+02 -0.21022809004E+02 -0.32525892231E+02  0.43400732375E+02  0.00000000000E+00 0. -1.
         11    1    3    3    0    0  0.10809485633E+01  0.20837999508E+01  0.52191134562E+00  0.24048001466E+01  0.51100000000E-03 0. -1.
        -11    1    3    3    0    0 -0.20258614661E+02  0.13167875932E+02  0.17696664982E+02  0.29949563875E+02  0.51100000000E-03 0.  1.
        -12    1    3    3    0    0 -0.41139735133E+00  0.57711331215E+01  0.14307315904E+02  0.15432903604E+02  0.00000000000E+00 0.  1.
</event>
<event>
 7    1  0.2706925E-010  0.4778727E+02  0.7816164E-02  0.1312668E+00
        -11   -1    0    0    0    0  0.00000000000E+00  0.00000000000E+00  0.45593999997E+02  0.45594000000E+02  0.51100000000E-03 0.  1.
         11   -1    0    0    0    0 -0.00000000000E+00 -0.00000000000E+00 -0.45593999997E+02  0.45594000000E+02  0.51100000000E-03 0. -1.
    9900012    2    1    2    0    0 -0.42609589121E+01  0.25018094525E+02  0.35207421407E+02  0.47787270206E+02  0.19999996177E+02 0.  0.
         12    1    1    2    0    0  0.42609589121E+01 -0.25018094525E+02 -0.35207421407E+02  0.43400729794E+02  0.00000000000E+00 0. -1.
         11    1    3    3    0    0 -0.86941443357E+01  0.17220296401E+02  0.11954960146E+02  0.22694665149E+02  0.51100000000E-03 0. -1.
        -11    1    3    3    0    0  0.36525792039E+01  0.52865792351E+01  0.12905617255E+02  0.14416803107E+02  0.51100000000E-03 0.  1.
         12    1    3    3    0    0  0.78060621976E+00  0.25112188892E+01  0.10346844007E+02  0.10675801950E+02  0.00000000000E+00 0. -1.
</event>
<event>
 7    1  0.2706925E-010  0.4778727E+02  0.7816164E-02  0.1312668E+00
        -11   -1    0    0    0    0  0.00000000000E+00  0.00000000000E+00  0.45593999997E+02  0.45594000000E+02  0.51100000000E-03 0. -1.
         11   -1    0    0    0    0 -0.00000000000E+00 -0.00000000000E+00 -0.45593999997E+02  0.45594000000E+02  0.51100000000E-03 0.  1.
    9900012    2    1    2    0    0  0.28555759570E+02  0.30378984927E+02 -0.12054438817E+02  0.47787266999E+02  0.19999981555E+02 0.  0.
         12    1    1    2    0    0 -0.28555759570E+02 -0.30378984927E+02  0.12054438817E+02  0.43400733001E+02  0.00000000000E+00 0. -1.
         11    1    3    3    0    0  0.23606056927E+01  0.14853663857E+02 -0.72554700381E+00  0.15057563147E+02  0.51100000000E-03 0. -1.
        -11    1    3    3    0    0  0.65117185672E+01  0.54922049307E+01 -0.20150256629E+01  0.87536919287E+01  0.51100000000E-03 0.  1.
         12    1    3    3    0    0  0.19683435310E+02  0.10033116140E+02 -0.93138661501E+01  0.23976011923E+02  0.00000000000E+00 0. -1.
</event>
<event>
 7    1  0.2706925E-010  0.4778726E+02  0.7816164E-02  0.1312668E+00
        -11   -1    0    0    0    0  0.00000000000E+00  0.00000000000E+00  0.45593999997E+02  0.45594000000E+02  0.51100000000E-03 0.  1.
         11   -1    0    0    0    0 -0.00000000000E+00 -0.00000000000E+00 -0.45593999997E+02  0.45594000000E+02  0.51100000000E-03 0. -1.
    9900012    2    1    2    0    0  0.78591231407E+01 -0.70863672132E+01  0.42090878945E+02  0.47787256836E+02  0.19999935218E+02 0.  0.
         12    1    1    2    0    0 -0.78591231407E+01  0.70863672132E+01 -0.42090878945E+02  0.43400743164E+02  0.00000000000E+00 0. -1.
         11    1    3    3    0    0  0.72692135509E+01 -0.19560636772E+00  0.53311863302E+01  0.90167219902E+01  0.51100000000E-03 0. -1.
        -11    1    3    3    0    0  0.21746368182E+01 -0.36114690053E+01  0.33842764673E+02  0.34104317536E+02  0.51100000000E-03 0.  1.
        -12    1    3    3    0    0 -0.15847272283E+01 -0.32792918402E+01  0.29169279422E+01  0.46662173097E+01  0.00000000000E+00 0.  1.
</event>
<event>
 7    1  0.2706925E-010  0.4778727E+02  0.7816164E-02  0.1312668E+00
        -11   -1    0    0    0    0  0.00000000000E+00  0.00000000000E+00  0.45593999997E+02  0.45594000000E+02  0.51100000000E-03 0.  1.
         11   -1    0    0    0    0 -0.00000000000E+00 -0.00000000000E+00 -0.45593999997E+02  0.45594000000E+02  0.51100000000E-03 0. -1.
    9900012    2    1    2    0    0 -0.42301296813E+02 -0.25801374281E+01  0.93577026067E+01  0.47787269369E+02  0.19999992361E+02 0.  0.
         12    1    1    2    0    0  0.42301296813E+02  0.25801374281E+01 -0.93577026067E+01  0.43400730631E+02  0.00000000000E+00 0. -1.
         11    1    3    3    0    0 -0.75499283794E+01 -0.16203172236E+01 -0.41495290586E+00  0.77329834226E+01  0.51100000000E-03 0. -1.
        -11    1    3    3    0    0 -0.21026486660E+02 -0.90418920685E+01  0.50146575799E+01  0.23431085002E+02  0.51100000000E-03 0.  1.
        -12    1    3    3    0    0 -0.13724881774E+02  0.80820718641E+01  0.47579979327E+01  0.16623200945E+02  0.00000000000E+00 0.  1.
</event>
<event>
 7    1  0.2706925E-010  0.4778724E+02  0.7816164E-02  0.1312668E+00
        -11   -1    0    0    0    0  0.00000000000E+00  0.00000000000E+00  0.45593999997E+02  0.45594000000E+02  0.51100000000E-03 0.  1.
         11   -1    0    0    0    0 -0.00000000000E+00 -0.00000000000E+00 -0.45593999997E+02  0.45594000000E+02  0.51100000000E-03 0. -1.
    9900012    2    1    2    0    0 -0.18527471900E+01  0.90270044959E+01  0.42411156107E+02  0.47787243732E+02  0.19999875471E+02 0.  0.
         12    1    1    2    0    0  0.18527471900E+01 -0.90270044959E+01 -0.42411156107E+02  0.43400756268E+02  0.00000000000E+00 0. -1.
         11    1    3    3    0    0  0.54102004376E+01  0.81457926443E+01  0.14694791630E+02  0.17651093674E+02  0.51100000000E-03 0. -1.
        -11    1    3    3    0    0  0.33340294040E+00 -0.36134748027E+00  0.16643273699E+02  0.16650534201E+02  0.51100000000E-03 0.  1.
         12    1    3    3    0    0 -0.75963505680E+01  0.12425593319E+01  0.11073090778E+02  0.13485615856E+02  0.00000000000E+00 0. -1.
</event>
<event>
 7    1  0.2706925E-010  0.4778727E+02  0.7816164E-02  0.1312668E+00
        -11   -1    0    0    0    0  0.00000000000E+00  0.00000000000E+00  0.45593999997E+02  0.45594000000E+02  0.51100000000E-03 0.  1.
         11   -1    0    0    0    0 -0.00000000000E+00 -0.00000000000E+00 -0.45593999997E+02  0.45594000000E+02  0.51100000000E-03 0. -1.
    9900012    2    1    2    0    0 -0.69292965858E+01  0.10176520405E+02  0.41617866701E+02  0.47787267893E+02  0.19999985629E+02 0.  0.
         12    1    1    2    0    0  0.69292965858E+01 -0.10176520405E+02 -0.41617866701E+02  0.43400732107E+02  0.00000000000E+00 0. -1.
         11    1    3    3    0    0 -0.24666071342E+01  0.56820810357E+01  0.13503230419E+01  0.63398397637E+01  0.51100000000E-03 0. -1.
        -11    1    3    3    0    0 -0.48684188342E+01 -0.14565092556E+00  0.25561190599E+02  0.26021091085E+02  0.51100000000E-03 0.  1.
        -12    1    3    3    0    0  0.40572938256E+00  0.46400902951E+01  0.14706353060E+02  0.15426337044E+02  0.00000000000E+00 0.  1.
</event>
<event>
 7    1  0.2706925E-010  0.4778727E+02  0.7816164E-02  0.1312668E+00
        -11   -1    0    0    0    0  0.00000000000E+00  0.00000000000E+00  0.45593999997E+02  0.45594000000E+02  0.51100000000E-03 0.  1.
         11   -1    0    0    0    0 -0.00000000000E+00 -0.00000000000E+00 -0.45593999997E+02  0.45594000000E+02  0.51100000000E-03 0. -1.
    9900012    2    1    2    0    0 -0.51395681597E+01  0.38572151922E+02 -0.19219709717E+02  0.47787270670E+02  0.19999998293E+02 0.  0.
         12    1    1    2    0    0  0.51395681597E+01 -0.38572151922E+02  0.19219709717E+02  0.43400729330E+02  0.00000000000E+00 0. -1.
         11    1    3    3    0    0 -0.65687479790E+01  0.12786772589E+02 -0.12468621917E+02  0.19029359843E+02  0.51100000000E-03 0. -1.
        -11    1    3    3    0    0  0.40443014986E+00  0.17784604287E+02 -0.95866217835E+01  0.20207895261E+02  0.51100000000E-03 0.  1.
         12    1    3    3    0    0  0.10247496695E+01  0.80007750459E+01  0.28355339829E+01  0.85500155666E+01  0.00000000000E+00 0. -1.
</event>
<event>
 7    1  0.2706925E-010  0.4778727E+02  0.7816164E-02  0.1312668E+00
        -11   -1    0    0    0    0  0.00000000000E+00  0.00000000000E+00  0.45593999997E+02  0.45594000000E+02  0.51100000000E-03 0.  1.
         11   -1    0    0    0    0 -0.00000000000E+00 -0.00000000000E+00 -0.45593999997E+02  0.45594000000E+02  0.51100000000E-03 0. -1.
    9900012    2    1    2    0    0  0.34296229010E+02  0.19597828248E+01  0.26524538163E+02  0.47787271921E+02  0.20000003997E+02 0.  0.
         12    1    1    2    0    0 -0.34296229010E+02 -0.19597828248E+01 -0.26524538163E+02  0.43400728079E+02  0.00000000000E+00 0. -1.
         11    1    3    3    0    0  0.41558427431E+01  0.53266968264E+01  0.68543747719E+01  0.96243016246E+01  0.51100000000E-03 0. -1.
        -11    1    3    3    0    0  0.19213338186E+02 -0.73551723893E+01  0.15673839500E+02  0.25863491065E+02  0.51100000000E-03 0.  1.
        -12    1    3    3    0    0  0.10927048081E+02  0.39882583876E+01  0.39963238911E+01  0.12299479232E+02  0.00000000000E+00 0.  1.
</event>
<event>
 7    1  0.2706925E-010  0.4778727E+02  0.7816164E-02  0.1312668E+00
        -11   -1    0    0    0    0  0.00000000000E+00  0.00000000000E+00  0.45593999997E+02  0.45594000000E+02  0.51100000000E-03 0.  1.
         11   -1    0    0    0    0 -0.00000000000E+00 -0.00000000000E+00 -0.45593999997E+02  0.45594000000E+02  0.51100000000E-03 0. -1.
    9900012    2    1    2    0    0 -0.41210942363E+02 -0.53148725120E+01  0.12531299332E+02  0.47787273010E+02  0.20000008963E+02 0.  0.
         12    1    1    2    0    0  0.41210942363E+02  0.53148725120E+01 -0.12531299332E+02  0.43400726990E+02  0.00000000000E+00 0. -1.
         11    1    3    3    0    0 -0.11265304653E+02  0.52801723824E+01  0.83369382939E+01  0.14976376387E+02  0.51100000000E-03 0. -1.
        -11    1    3    3    0    0 -0.25519616514E+02 -0.69627211877E+01  0.53033533877E+01  0.26978804102E+02  0.51100000000E-03 0.  1.
         12    1    3    3    0    0 -0.44260211960E+01 -0.36323237067E+01 -0.11089923498E+01  0.58320925206E+01  0.00000000000E+00 0. -1.
</event>
<event>
 7    1  0.2706925E-010  0.4778728E+02  0.7816164E-02  0.1312668E+00
        -11   -1    0    0    0    0  0.00000000000E+00  0.00000000000E+00  0.45593999997E+02  0.45594000000E+02  0.51100000000E-03 0.  1.
         11   -1    0    0    0    0 -0.00000000000E+00 -0.00000000000E+00 -0.45593999997E+02  0.45594000000E+02  0.51100000000E-03 0. -1.
    9900012    2    1    2    0    0  0.23587409067E+02  0.52223886953E+01  0.36055286456E+02  0.47787275448E+02  0.20000020079E+02 0.  0.
         12    1    1    2    0    0 -0.23587409067E+02 -0.52223886953E+01 -0.36055286456E+02  0.43400724552E+02  0.00000000000E+00 0. -1.
         11    1    3    3    0    0  0.42650703377E+01 -0.16709995525E+01  0.20277702842E+02  0.20788657900E+02  0.51100000000E-03 0.  1.
        -11    1    3    3    0    0  0.95770420231E+01  0.10712421488E+00  0.43546521088E+01  0.10521131344E+02  0.51100000000E-03 0. -1.
         12    1    3    3    0    0  0.97452967065E+01  0.67862640329E+01  0.11422931505E+02  0.16477486204E+02  0.00000000000E+00 0. -1.
</event>
<event>
 7    1  0.2706925E-010  0.4778727E+02  0.7816164E-02  0.1312668E+00
        -11   -1    0    0    0    0  0.00000000000E+00  0.00000000000E+00  0.45593999997E+02  0.45594000000E+02  0.51100000000E-03 0. -1.
         11   -1    0    0    0    0 -0.00000000000E+00 -0.00000000000E+00 -0.45593999997E+02  0.45594000000E+02  0.51100000000E-03 0.  1.
    9900012    2    1    2    0    0 -0.21244166688E+01 -0.26771209924E+02 -0.34094171363E+02  0.47787270191E+02  0.19999996110E+02 0.  0.
         12    1    1    2    0    0  0.21244166688E+01  0.26771209924E+02  0.34094171363E+02  0.43400729809E+02  0.00000000000E+00 0. -1.
         11    1    3    3    0    0 -0.11012494178E+01 -0.22865760653E+00  0.18178811782E+01  0.21376919376E+01  0.51100000000E-03 0. -1.
        -11    1    3    3    0    0 -0.11347014053E+01 -0.19878016648E+02 -0.32617898182E+02  0.38214530943E+02  0.51100000000E-03 0.  1.
        -12    1    3    3    0    0  0.11153415423E+00 -0.66645356700E+01 -0.32941543591E+01  0.74350473103E+01  0.00000000000E+00 0.  1.
</event>
<event>
 7    1  0.2706925E-010  0.4778727E+02  0.7816164E-02  0.1312668E+00
        -11   -1    0    0    0    0  0.00000000000E+00  0.00000000000E+00  0.45593999997E+02  0.45594000000E+02  0.51100000000E-03 0.  1.
         11   -1    0    0    0    0 -0.00000000000E+00 -0.00000000000E+00 -0.45593999997E+02  0.45594000000E+02  0.51100000000E-03 0. -1.
    9900012    2    1    2    0    0 -0.16428821907E+02 -0.37854340982E+02 -0.13444924705E+02  0.47787270504E+02  0.19999997536E+02 0.  0.
         12    1    1    2    0    0  0.16428821907E+02  0.37854340982E+02  0.13444924705E+02  0.43400729496E+02  0.00000000000E+00 0. -1.
         11    1    3    3    0    0 -0.19670091358E+01  0.46945740666E+00  0.16078090444E+01  0.25835180242E+01  0.51100000000E-03 0. -1.
        -11    1    3    3    0    0 -0.11848784864E+02 -0.34083598101E+02 -0.86766788355E+01  0.37112937342E+02  0.51100000000E-03 0.  1.
        -12    1    3    3    0    0 -0.26130279070E+01 -0.42402002877E+01 -0.63760549141E+01  0.80908151376E+01  0.00000000000E+00 0.  1.
</event>
<event>
 7    1  0.2706925E-010  0.4778727E+02  0.7816164E-02  0.1312668E+00
        -11   -1    0    0    0    0  0.00000000000E+00  0.00000000000E+00  0.45593999997E+02  0.45594000000E+02  0.51100000000E-03 0. -1.
         11   -1    0    0    0    0 -0.00000000000E+00 -0.00000000000E+00 -0.45593999997E+02  0.45594000000E+02  0.51100000000E-03 0.  1.
    9900012    2    1    2    0    0 -0.20582162351E+02  0.35663921624E+02 -0.13714327408E+02  0.47787268568E+02  0.19999988707E+02 0.  0.
         12    1    1    2    0    0  0.20582162351E+02 -0.35663921624E+02  0.13714327408E+02  0.43400731432E+02  0.00000000000E+00 0. -1.
         11    1    3    3    0    0  0.38830589719E+01  0.37272888604E+01 -0.24784630707E+01  0.59256736901E+01  0.51100000000E-03 0. -1.
        -11    1    3    3    0    0 -0.94963116584E+01  0.12626045215E+02 -0.30227888348E+01  0.16085216986E+02  0.51100000000E-03 0.  1.
         12    1    3    3    0    0 -0.14968909664E+02  0.19310587548E+02 -0.82130755030E+01  0.25776377891E+02  0.00000000000E+00 0. -1.
</event>
<event>
 7    1  0.2706925E-010  0.4778727E+02  0.7816164E-02  0.1312668E+00
        -11   -1    0    0    0    0  0.00000000000E+00  0.00000000000E+00  0.45593999997E+02  0.45594000000E+02  0.51100000000E-03 0. -1.
         11   -1    0    0    0    0 -0.00000000000E+00 -0.00000000000E+00 -0.45593999997E+02  0.45594000000E+02  0.51100000000E-03 0.  1.
    9900012    2    1    2    0    0  0.30230668563E+02 -0.13595907545E+02  0.28015729524E+02  0.47787272765E+02  0.20000007846E+02 0.  0.
         12    1    1    2    0    0 -0.30230668563E+02  0.13595907545E+02 -0.28015729524E+02  0.43400727235E+02  0.00000000000E+00 0. -1.
         11    1    3    3    0    0  0.17675817032E+02 -0.69495391660E+01  0.44130580485E+01  0.19498863659E+02  0.51100000000E-03 0. -1.
        -11    1    3    3    0    0  0.12666159257E+02 -0.46949834832E+01  0.19246865089E+02  0.23514171817E+02  0.51100000000E-03 0.  1.
         12    1    3    3    0    0 -0.11130772578E+00 -0.19513848958E+01  0.43558063867E+01  0.47742372898E+01  0.00000000000E+00 0. -1.
</event>
<event>
 7    1  0.2706925E-010  0.4778727E+02  0.7816164E-02  0.1312668E+00
        -11   -1    0    0    0    0  0.00000000000E+00  0.00000000000E+00  0.45593999997E+02  0.45594000000E+02  0.51100000000E-03 0.  1.
         11   -1    0    0    0    0 -0.00000000000E+00 -0.00000000000E+00 -0.45593999997E+02  0.45594000000E+02  0.51100000000E-03 0. -1.
    9900012    2    1    2    0    0  0.41555028227E+00 -0.78928211481E+01  0.42674980981E+02  0.47787270634E+02  0.19999998131E+02 0.  0.
         12    1    1    2    0    0 -0.41555028227E+00  0.78928211481E+01 -0.42674980981E+02  0.43400729366E+02  0.00000000000E+00 0. -1.
         11    1    3    3    0    0 -0.12924201575E+00 -0.95646805710E+01  0.69788906826E+01  0.11840807968E+02  0.51100000000E-03 0. -1.
        -11    1    3    3    0    0 -0.31895665536E+00 -0.50338947555E-01  0.28352496288E+02  0.28354335001E+02  0.51100000000E-03 0.  1.
         12    1    3    3    0    0  0.86374895338E+00  0.17221983704E+01  0.73435940109E+01  0.75921276648E+01  0.00000000000E+00 0. -1.
</event>
<event>
 7    1  0.2706925E-010  0.4778727E+02  0.7816164E-02  0.1312668E+00
        -11   -1    0    0    0    0  0.00000000000E+00  0.00000000000E+00  0.45593999997E+02  0.45594000000E+02  0.51100000000E-03 0.  1.
         11   -1    0    0    0    0 -0.00000000000E+00 -0.00000000000E+00 -0.45593999997E+02  0.45594000000E+02  0.51100000000E-03 0. -1.
    9900012    2    1    2    0    0 -0.14808547641E+02  0.16974398182E+02  0.37097174239E+02  0.47787267133E+02  0.19999982167E+02 0.  0.
         12    1    1    2    0    0  0.14808547641E+02 -0.16974398182E+02 -0.37097174239E+02  0.43400732867E+02  0.00000000000E+00 0. -1.
         11    1    3    3    0    0 -0.11092628060E+02  0.12069913298E+01  0.70162558489E+01  0.13180708318E+02  0.51100000000E-03 0. -1.
        -11    1    3    3    0    0 -0.12557296666E+01  0.12705702289E+02  0.25864911282E+02  0.28844503177E+02  0.51100000000E-03 0.  1.
         12    1    3    3    0    0 -0.24601899140E+01  0.30617045634E+01  0.42160071079E+01  0.57620556385E+01  0.00000000000E+00 0. -1.
</event>
<event>
 7    1  0.2706925E-010  0.4778727E+02  0.7816164E-02  0.1312668E+00
        -11   -1    0    0    0    0  0.00000000000E+00  0.00000000000E+00  0.45593999997E+02  0.45594000000E+02  0.51100000000E-03 0.  1.
         11   -1    0    0    0    0 -0.00000000000E+00 -0.00000000000E+00 -0.45593999997E+02  0.45594000000E+02  0.51100000000E-03 0. -1.
    9900012    2    1    2    0    0 -0.55631381875E+01 -0.30119344422E+02  0.30748984220E+02  0.47787269067E+02  0.19999990986E+02 0.  0.
         12    1    1    2    0    0  0.55631381875E+01  0.30119344422E+02 -0.30748984220E+02  0.43400730933E+02  0.00000000000E+00 0. -1.
         11    1    3    3    0    0 -0.42402550883E+01 -0.84731386144E+01  0.55471074385E+01  0.10979264201E+02  0.51100000000E-03 0. -1.
        -11    1    3    3    0    0 -0.60365031021E+01 -0.11091708527E+02  0.21008466758E+02  0.24511651179E+02  0.51100000000E-03 0.  1.
        -12    1    3    3    0    0  0.47136200030E+01 -0.10554497281E+02  0.41934100238E+01  0.12296353688E+02  0.00000000000E+00 0.  1.
</event>
<event>
 7    1  0.2706925E-010  0.4778727E+02  0.7816164E-02  0.1312668E+00
        -11   -1    0    0    0    0  0.00000000000E+00  0.00000000000E+00  0.45593999997E+02  0.45594000000E+02  0.51100000000E-03 0.  1.
         11   -1    0    0    0    0 -0.00000000000E+00 -0.00000000000E+00 -0.45593999997E+02  0.45594000000E+02  0.51100000000E-03 0. -1.
    9900012    2    1    2    0    0  0.31774096231E+02 -0.15890181626E+02  0.24930549685E+02  0.47787269926E+02  0.19999994900E+02 0.  0.
         12    1    1    2    0    0 -0.31774096231E+02  0.15890181626E+02 -0.24930549685E+02  0.43400730074E+02  0.00000000000E+00 0. -1.
         11    1    3    3    0    0  0.12647234011E+02 -0.59913814607E+00  0.28536488053E+01  0.12979014077E+02  0.51100000000E-03 0. -1.
        -11    1    3    3    0    0  0.78378512535E+01 -0.12657717419E+02  0.15449254656E+02  0.21455283551E+02  0.51100000000E-03 0.  1.
        -12    1    3    3    0    0  0.11289010966E+02 -0.26333260602E+01  0.66276462236E+01  0.13352972299E+02  0.00000000000E+00 0.  1.
</event>
<event>
 7    1  0.2706925E-010  0.4778727E+02  0.7816164E-02  0.1312668E+00
        -11   -1    0    0    0    0  0.00000000000E+00  0.00000000000E+00  0.45593999997E+02  0.45594000000E+02  0.51100000000E-03 0. -1.
         11   -1    0    0    0    0 -0.00000000000E+00 -0.00000000000E+00 -0.45593999997E+02  0.45594000000E+02  0.51100000000E-03 0.  1.
    9900012    2    1    2    0    0  0.34393911315E+02 -0.13775892191E+02  0.22603245613E+02  0.47787273584E+02  0.20000011581E+02 0.  0.
         12    1    1    2    0    0 -0.34393911315E+02  0.13775892191E+02 -0.22603245613E+02  0.43400726416E+02  0.00000000000E+00 0. -1.
         11    1    3    3    0    0  0.24349300022E+00 -0.11362212754E+01  0.59294496508E+01  0.60422397379E+01  0.51100000000E-03 0. -1.
        -11    1    3    3    0    0  0.28651131931E+02 -0.90711485272E+01  0.18035740902E+02  0.35049408649E+02  0.51100000000E-03 0.  1.
        -12    1    3    3    0    0  0.54992863838E+01 -0.35685223884E+01 -0.13619449397E+01  0.66956251976E+01  0.00000000000E+00 0.  1.
</event>
<event>
 7    1  0.2706925E-010  0.4778726E+02  0.7816164E-02  0.1312668E+00
        -11   -1    0    0    0    0  0.00000000000E+00  0.00000000000E+00  0.45593999997E+02  0.45594000000E+02  0.51100000000E-03 0. -1.
         11   -1    0    0    0    0 -0.00000000000E+00 -0.00000000000E+00 -0.45593999997E+02  0.45594000000E+02  0.51100000000E-03 0.  1.
    9900012    2    1    2    0    0  0.20886488916E+02  0.36435202390E+02 -0.10947828440E+02  0.47787258762E+02  0.19999944001E+02 0.  0.
         12    1    1    2    0    0 -0.20886488916E+02 -0.36435202390E+02  0.10947828440E+02  0.43400741238E+02  0.00000000000E+00 0. -1.
         11    1    3    3    0    0 -0.14832916372E+01 -0.27192069748E+00 -0.25485869174E+01  0.29613156676E+01  0.51100000000E-03 0. -1.
        -11    1    3    3    0    0  0.19274726545E+02  0.34328325476E+02 -0.50681781486E+01  0.39694274693E+02  0.51100000000E-03 0.  1.
         12    1    3    3    0    0  0.30950540084E+01  0.23787976114E+01 -0.33310633737E+01  0.51316684022E+01  0.00000000000E+00 0. -1.
</event>
<event>
 7    1  0.2706925E-010  0.4778727E+02  0.7816164E-02  0.1312668E+00
        -11   -1    0    0    0    0  0.00000000000E+00  0.00000000000E+00  0.45593999997E+02  0.45594000000E+02  0.51100000000E-03 0.  1.
         11   -1    0    0    0    0 -0.00000000000E+00 -0.00000000000E+00 -0.45593999997E+02  0.45594000000E+02  0.51100000000E-03 0. -1.
    9900012    2    1    2    0    0 -0.16760456894E+02 -0.43737369458E+01  0.39794229971E+02  0.47787271560E+02  0.20000002349E+02 0.  0.
         12    1    1    2    0    0  0.16760456894E+02  0.43737369458E+01 -0.39794229971E+02  0.43400728440E+02  0.00000000000E+00 0. -1.
         11    1    3    3    0    0 -0.17174197378E+01 -0.19177564931E+01  0.85366350884E-01  0.25757733203E+01  0.51100000000E-03 0. -1.
        -11    1    3    3    0    0 -0.87867541361E+01 -0.25765112961E+01  0.60475852692E+01  0.10973547583E+02  0.51100000000E-03 0.  1.
         12    1    3    3    0    0 -0.62562830202E+01  0.12053084346E+00  0.33661278351E+02  0.34237950656E+02  0.00000000000E+00 0. -1.
</event>
<event>
 7    1  0.2706925E-010  0.4778728E+02  0.7816164E-02  0.1312668E+00
        -11   -1    0    0    0    0  0.00000000000E+00  0.00000000000E+00  0.45593999997E+02  0.45594000000E+02  0.51100000000E-03 0.  1.
         11   -1    0    0    0    0 -0.00000000000E+00 -0.00000000000E+00 -0.45593999997E+02  0.45594000000E+02  0.51100000000E-03 0. -1.
    9900012    2    1    2    0    0 -0.11378921414E+01 -0.32737018198E+02  0.28471312143E+02  0.47787276801E+02  0.20000026247E+02 0.  0.
         12    1    1    2    0    0  0.11378921414E+01  0.32737018198E+02 -0.28471312143E+02  0.43400723199E+02  0.00000000000E+00 0. -1.
         11    1    3    3    0    0 -0.78927287496E+01 -0.72586876012E+01  0.52148615175E+01  0.11923862366E+02  0.51100000000E-03 0. -1.
        -11    1    3    3    0    0  0.60117365169E+01 -0.91762505426E+01  0.88425509271E+01  0.14090253977E+02  0.51100000000E-03 0.  1.
        -12    1    3    3    0    0  0.74310009120E+00 -0.16302080054E+02  0.14413899699E+02  0.21773160459E+02  0.00000000000E+00 0.  1.
</event>
<event>
 7    1  0.2706925E-010  0.4778730E+02  0.7816164E-02  0.1312668E+00
        -11   -1    0    0    0    0  0.00000000000E+00  0.00000000000E+00  0.45593999997E+02  0.45594000000E+02  0.51100000000E-03 0. -1.
         11   -1    0    0    0    0 -0.00000000000E+00 -0.00000000000E+00 -0.45593999997E+02  0.45594000000E+02  0.51100000000E-03 0.  1.
    9900012    2    1    2    0    0 -0.14141964733E+01  0.31886222624E+01 -0.43260298595E+02  0.47787300718E+02  0.20000135295E+02 0.  0.
         12    1    1    2    0    0  0.14141964733E+01 -0.31886222624E+01  0.43260298595E+02  0.43400699282E+02  0.00000000000E+00 0. -1.
         11    1    3    3    0    0 -0.65749079046E+01 -0.26773739400E+01 -0.10884035520E+02  0.12994613293E+02  0.51100000000E-03 0. -1.
        -11    1    3    3    0    0 -0.93920555766E-01 -0.26519658279E+01 -0.53299374832E+01  0.59539883825E+01  0.51100000000E-03 0.  1.
         12    1    3    3    0    0  0.52546319870E+01  0.85179620302E+01 -0.27046325592E+02  0.28838699043E+02  0.00000000000E+00 0. -1.
</event>
<event>
 7    1  0.2706925E-010  0.4778728E+02  0.7816164E-02  0.1312668E+00
        -11   -1    0    0    0    0  0.00000000000E+00  0.00000000000E+00  0.45593999997E+02  0.45594000000E+02  0.51100000000E-03 0.  1.
         11   -1    0    0    0    0 -0.00000000000E+00 -0.00000000000E+00 -0.45593999997E+02  0.45594000000E+02  0.51100000000E-03 0. -1.
    9900012    2    1    2    0    0 -0.20240775516E+02  0.16144859079E+02  0.34832125035E+02  0.47787281082E+02  0.20000045763E+02 0.  0.
         12    1    1    2    0    0  0.20240775516E+02 -0.16144859079E+02 -0.34832125035E+02  0.43400718918E+02  0.00000000000E+00 0. -1.
         11    1    3    3    0    0 -0.84306272816E+01  0.18370581950E+02  0.21324674788E+02  0.29381890897E+02  0.51100000000E-03 0. -1.
        -11    1    3    3    0    0 -0.60688743657E+01 -0.28487969193E+01  0.78119060936E+01  0.10294307020E+02  0.51100000000E-03 0.  1.
        -12    1    3    3    0    0 -0.57412738687E+01  0.62307404785E+00  0.56955441531E+01  0.81110831647E+01  0.00000000000E+00 0.  1.
</event>
<event>
 7    1  0.2706925E-010  0.4778727E+02  0.7816164E-02  0.1312668E+00
        -11   -1    0    0    0    0  0.00000000000E+00  0.00000000000E+00  0.45593999997E+02  0.45594000000E+02  0.51100000000E-03 0.  1.
         11   -1    0    0    0    0 -0.00000000000E+00 -0.00000000000E+00 -0.45593999997E+02  0.45594000000E+02  0.51100000000E-03 0. -1.
    9900012    2    1    2    0    0  0.25942230448E+02  0.28729392247E+02  0.19627689992E+02  0.47787268279E+02  0.19999987391E+02 0.  0.
         12    1    1    2    0    0 -0.25942230448E+02 -0.28729392247E+02 -0.19627689992E+02  0.43400731721E+02  0.00000000000E+00 0. -1.
         11    1    3    3    0    0  0.65603565698E+01  0.10504672082E+02  0.14636084408E+02  0.19172933551E+02  0.51100000000E-03 0.  1.
        -11    1    3    3    0    0  0.18448059965E+02  0.15045151935E+02  0.69067114275E+01  0.24786895251E+02  0.51100000000E-03 0. -1.
         12    1    3    3    0    0  0.93381391387E+00  0.31795682300E+01 -0.19151058439E+01  0.38274394768E+01  0.00000000000E+00 0. -1.
</event>
<event>
 7    1  0.2706925E-010  0.4778725E+02  0.7816164E-02  0.1312668E+00
        -11   -1    0    0    0    0  0.00000000000E+00  0.00000000000E+00  0.45593999997E+02  0.45594000000E+02  0.51100000000E-03 0.  1.
         11   -1    0    0    0    0 -0.00000000000E+00 -0.00000000000E+00 -0.45593999997E+02  0.45594000000E+02  0.51100000000E-03 0. -1.
    9900012    2    1    2    0    0  0.84576244978E+01 -0.14106874695E+02  0.40163286642E+02  0.47787252083E+02  0.19999913549E+02 0.  0.
         12    1    1    2    0    0 -0.84576244978E+01  0.14106874695E+02 -0.40163286642E+02  0.43400747917E+02  0.00000000000E+00 0. -1.
         11    1    3    3    0    0 -0.14778107994E+01 -0.64226663462E+01  0.45424845821E+01  0.80042947343E+01  0.51100000000E-03 0. -1.
        -11    1    3    3    0    0  0.12349484145E+02 -0.83031937163E+01  0.32806225042E+02  0.36023619839E+02  0.51100000000E-03 0.  1.
        -12    1    3    3    0    0 -0.24140488475E+01  0.61898536784E+00  0.28145770186E+01  0.37593375105E+01  0.00000000000E+00 0.  1.
</event>
<event>
 7    1  0.2706925E-010  0.4778727E+02  0.7816164E-02  0.1312668E+00
        -11   -1    0    0    0    0  0.00000000000E+00  0.00000000000E+00  0.45593999997E+02  0.45594000000E+02  0.51100000000E-03 0.  1.
         11   -1    0    0    0    0 -0.00000000000E+00 -0.00000000000E+00 -0.45593999997E+02  0.45594000000E+02  0.51100000000E-03 0. -1.
    9900012    2    1    2    0    0 -0.24145061434E+02 -0.25424237015E+02  0.25578261448E+02  0.47787270995E+02  0.19999999774E+02 0.  0.
         12    1    1    2    0    0  0.24145061434E+02  0.25424237015E+02 -0.25578261448E+02  0.43400729005E+02  0.00000000000E+00 0. -1.
         11    1    3    3    0    0 -0.19317451460E+01  0.95065622674E+00 -0.17616812912E+01  0.27818892507E+01  0.51100000000E-03 0. -1.
        -11    1    3    3    0    0 -0.19612460665E+02 -0.17653048633E+02  0.22606556301E+02  0.34746728298E+02  0.51100000000E-03 0.  1.
        -12    1    3    3    0    0 -0.26008556233E+01 -0.87218446087E+01  0.47333864383E+01  0.10258653446E+02  0.00000000000E+00 0.  1.
</event>
<event>
 7    1  0.2706925E-010  0.4778727E+02  0.7816164E-02  0.1312668E+00
        -11   -1    0    0    0    0  0.00000000000E+00  0.00000000000E+00  0.45593999997E+02  0.45594000000E+02  0.51100000000E-03 0.  1.
         11   -1    0    0    0    0 -0.00000000000E+00 -0.00000000000E+00 -0.45593999997E+02  0.45594000000E+02  0.51100000000E-03 0. -1.
    9900012    2    1    2    0    0 -0.16413031330E+02  0.21702035422E+02  0.33812095233E+02  0.47787265871E+02  0.19999976412E+02 0.  0.
         12    1    1    2    0    0  0.16413031330E+02 -0.21702035422E+02 -0.33812095233E+02  0.43400734129E+02  0.00000000000E+00 0. -1.
         11    1    3    3    0    0 -0.97768188635E+01  0.59859656400E+01  0.44306188446E+01  0.12290173121E+02  0.51100000000E-03 0. -1.
        -11    1    3    3    0    0 -0.67404648983E+01  0.16113748185E+02  0.21937471409E+02  0.28041743877E+02  0.51100000000E-03 0.  1.
        -12    1    3    3    0    0  0.10425243196E+00 -0.39767840251E+00  0.74440049795E+01  0.74553488729E+01  0.00000000000E+00 0.  1.
</event>
<event>
 7    1  0.2706925E-010  0.4778727E+02  0.7816164E-02  0.1312668E+00
        -11   -1    0    0    0    0  0.00000000000E+00  0.00000000000E+00  0.45593999997E+02  0.45594000000E+02  0.51100000000E-03 0.  1.
         11   -1    0    0    0    0 -0.00000000000E+00 -0.00000000000E+00 -0.45593999997E+02  0.45594000000E+02  0.51100000000E-03 0. -1.
    9900012    2    1    2    0    0 -0.30497648606E+02 -0.11753649596E+02  0.28554662269E+02  0.47787267441E+02  0.19999983571E+02 0.  0.
         12    1    1    2    0    0  0.30497648606E+02  0.11753649596E+02 -0.28554662269E+02  0.43400732559E+02  0.00000000000E+00 0. -1.
         11    1    3    3    0    0 -0.66976288398E+01 -0.28412127477E+01  0.12386293525E+02  0.14364922189E+02  0.51100000000E-03 0. -1.
        -11    1    3    3    0    0 -0.24663999485E+02 -0.51677633472E+01  0.15305876993E+02  0.29483699215E+02  0.51100000000E-03 0.  1.
        -12    1    3    3    0    0  0.86397971904E+00 -0.37446735010E+01  0.86249175182E+00  0.39386460372E+01  0.00000000000E+00 0.  1.
</event>
<event>
 7    1  0.2706925E-010  0.4778726E+02  0.7816164E-02  0.1312668E+00
        -11   -1    0    0    0    0  0.00000000000E+00  0.00000000000E+00  0.45593999997E+02  0.45594000000E+02  0.51100000000E-03 0. -1.
         11   -1    0    0    0    0 -0.00000000000E+00 -0.00000000000E+00 -0.45593999997E+02  0.45594000000E+02  0.51100000000E-03 0.  1.
    9900012    2    1    2    0    0 -0.43327553751E+02 -0.17010991246E+01  0.18583051399E+01  0.47787263252E+02  0.19999964470E+02 0.  0.
         12    1    1    2    0    0  0.43327553751E+02  0.17010991246E+01 -0.18583051399E+01  0.43400736748E+02  0.00000000000E+00 0. -1.
         11    1    3    3    0    0 -0.11444170185E+02 -0.21538024998E+01  0.14274552973E+01  0.11732242979E+02  0.51100000000E-03 0. -1.
        -11    1    3    3    0    0 -0.30439139626E+02 -0.46078940403E+01  0.18163747697E+00  0.30786472697E+02  0.51100000000E-03 0.  1.
        -12    1    3    3    0    0 -0.14442439401E+01  0.50605974154E+01  0.24921236558E+00  0.52685475762E+01  0.00000000000E+00 0.  1.
</event>
<event>
 7    1  0.2706925E-010  0.4778727E+02  0.7816164E-02  0.1312668E+00
        -11   -1    0    0    0    0  0.00000000000E+00  0.00000000000E+00  0.45593999997E+02  0.45594000000E+02  0.51100000000E-03 0.  1.
         11   -1    0    0    0    0 -0.00000000000E+00 -0.00000000000E+00 -0.45593999997E+02  0.45594000000E+02  0.51100000000E-03 0. -1.
    9900012    2    1    2    0    0  0.78180478838E+01 -0.31084435371E+02  0.29261911919E+02  0.47787268621E+02  0.19999988952E+02 0.  0.
         12    1    1    2    0    0 -0.78180478838E+01  0.31084435371E+02 -0.29261911919E+02  0.43400731379E+02  0.00000000000E+00 0. -1.
         11    1    3    3    0    0  0.50345681508E+01 -0.60183126636E+01 -0.73040863202E+00  0.78803845599E+01  0.51100000000E-03 0. -1.
        -11    1    3    3    0    0  0.39521458052E+01 -0.16552172645E+02  0.24037591015E+02  0.29451649492E+02  0.51100000000E-03 0.  1.
        -12    1    3    3    0    0 -0.11686660722E+01 -0.85139500620E+01  0.59547295361E+01  0.10455234569E+02  0.00000000000E+00 0.  1.
</event>
<event>
 7    1  0.2706925E-010  0.4778727E+02  0.7816164E-02  0.1312668E+00
        -11   -1    0    0    0    0  0.00000000000E+00  0.00000000000E+00  0.45593999997E+02  0.45594000000E+02  0.51100000000E-03 0.  1.
         11   -1    0    0    0    0 -0.00000000000E+00 -0.00000000000E+00 -0.45593999997E+02  0.45594000000E+02  0.51100000000E-03 0. -1.
    9900012    2    1    2    0    0 -0.69124111546E+01 -0.10345453646E+02  0.41579002334E+02  0.47787271040E+02  0.19999999980E+02 0.  0.
         12    1    1    2    0    0  0.69124111546E+01  0.10345453646E+02 -0.41579002334E+02  0.43400728960E+02  0.00000000000E+00 0. -1.
         11    1    3    3    0    0  0.46979838779E+01  0.29495632641E+01  0.68868241203E+01  0.88430380916E+01  0.51100000000E-03 0.  1.
        -11    1    3    3    0    0 -0.11122924488E+02 -0.12798766245E+02  0.33780394574E+02  0.37797393090E+02  0.51100000000E-03 0. -1.
        -12    1    3    3    0    0 -0.48747054479E+00 -0.49625066512E+00  0.91178364034E+00  0.11468398587E+01  0.00000000000E+00 0.  1.
</event>
<event>
 7    1  0.2706925E-010  0.4778725E+02  0.7816164E-02  0.1312668E+00
        -11   -1    0    0    0    0  0.00000000000E+00  0.00000000000E+00  0.45593999997E+02  0.45594000000E+02  0.51100000000E-03 0.  1.
         11   -1    0    0    0    0 -0.00000000000E+00 -0.00000000000E+00 -0.45593999997E+02  0.45594000000E+02  0.51100000000E-03 0. -1.
    9900012    2    1    2    0    0 -0.71166925520E+01 -0.43495311722E+00  0.42811079007E+02  0.47787251356E+02  0.19999910233E+02 0.  0.
         12    1    1    2    0    0  0.71166925520E+01  0.43495311722E+00 -0.42811079007E+02  0.43400748644E+02  0.00000000000E+00 0. -1.
         11    1    3    3    0    0 -0.10402757442E+02  0.23376574754E+01  0.18854732135E+02  0.21660630855E+02  0.51100000000E-03 0. -1.
        -11    1    3    3    0    0 -0.17767924900E+01  0.17233749627E+01  0.13100185420E+02  0.13331986766E+02  0.51100000000E-03 0.  1.
         12    1    3    3    0    0  0.50628573801E+01 -0.44959855554E+01  0.10856161451E+02  0.12794633736E+02  0.00000000000E+00 0. -1.
</event>
<event>
 7    1  0.2706925E-010  0.4778727E+02  0.7816164E-02  0.1312668E+00
        -11   -1    0    0    0    0  0.00000000000E+00  0.00000000000E+00  0.45593999997E+02  0.45594000000E+02  0.51100000000E-03 0.  1.
         11   -1    0    0    0    0 -0.00000000000E+00 -0.00000000000E+00 -0.45593999997E+02  0.45594000000E+02  0.51100000000E-03 0. -1.
    9900012    2    1    2    0    0  0.17624178403E+02  0.11959076171E+02  0.37815240383E+02  0.47787267604E+02  0.19999984315E+02 0.  0.
         12    1    1    2    0    0 -0.17624178403E+02 -0.11959076171E+02 -0.37815240383E+02  0.43400732396E+02  0.00000000000E+00 0. -1.
         11    1    3    3    0    0  0.17712951645E+01  0.37512265460E+01  0.47787864877E+01  0.63281899241E+01  0.51100000000E-03 0.  1.
        -11    1    3    3    0    0  0.87345163175E+01  0.13402056073E+02  0.18469513211E+02  0.24434193271E+02  0.51100000000E-03 0. -1.
        -12    1    3    3    0    0  0.71183669206E+01 -0.51942064482E+01  0.14566940684E+02  0.17024884409E+02  0.00000000000E+00 0.  1.
</event>
<event>
 7    1  0.2706925E-010  0.4778727E+02  0.7816164E-02  0.1312668E+00
        -11   -1    0    0    0    0  0.00000000000E+00  0.00000000000E+00  0.45593999997E+02  0.45594000000E+02  0.51100000000E-03 0.  1.
         11   -1    0    0    0    0 -0.00000000000E+00 -0.00000000000E+00 -0.45593999997E+02  0.45594000000E+02  0.51100000000E-03 0. -1.
    9900012    2    1    2    0    0 -0.77998962743E+01  0.14023534355E+02  0.40325245817E+02  0.47787270192E+02  0.19999996113E+02 0.  0.
         12    1    1    2    0    0  0.77998962743E+01 -0.14023534355E+02 -0.40325245817E+02  0.43400729808E+02  0.00000000000E+00 0. -1.
         11    1    3    3    0    0 -0.78316648494E+01  0.52412355297E+01  0.12063539285E+02  0.15307988259E+02  0.51100000000E-03 0. -1.
        -11    1    3    3    0    0  0.13596867672E+01  0.50317647183E+01  0.28011976358E+02  0.28492774945E+02  0.51100000000E-03 0.  1.
        -12    1    3    3    0    0 -0.13279181921E+01  0.37505341067E+01  0.24973017371E+00  0.39865069886E+01  0.00000000000E+00 0.  1.
</event>
<event>
 7    1  0.2706925E-010  0.4778727E+02  0.7816164E-02  0.1312668E+00
        -11   -1    0    0    0    0  0.00000000000E+00  0.00000000000E+00  0.45593999997E+02  0.45594000000E+02  0.51100000000E-03 0. -1.
         11   -1    0    0    0    0 -0.00000000000E+00 -0.00000000000E+00 -0.45593999997E+02  0.45594000000E+02  0.51100000000E-03 0.  1.
    9900012    2    1    2    0    0 -0.26230745564E+02 -0.96978467631E+01 -0.33189201041E+02  0.47787270624E+02  0.19999998082E+02 0.  0.
         12    1    1    2    0    0  0.26230745564E+02  0.96978467631E+01  0.33189201041E+02  0.43400729376E+02  0.00000000000E+00 0. -1.
         11    1    3    3    0    0  0.50897971038E+00 -0.48511634357E+00  0.12496860053E+01  0.14339154736E+01  0.51100000000E-03 0. -1.
        -11    1    3    3    0    0 -0.26946793264E+02 -0.11023268489E+02 -0.31488279881E+02  0.42885357472E+02  0.51100000000E-03 0.  1.
        -12    1    3    3    0    0  0.20706798998E+00  0.18105380691E+01 -0.29506071649E+01  0.34679976779E+01  0.00000000000E+00 0.  1.
</event>
<event>
 7    1  0.2706925E-010  0.4778728E+02  0.7816164E-02  0.1312668E+00
        -11   -1    0    0    0    0  0.00000000000E+00  0.00000000000E+00  0.45593999997E+02  0.45594000000E+02  0.51100000000E-03 0.  1.
         11   -1    0    0    0    0 -0.00000000000E+00 -0.00000000000E+00 -0.45593999997E+02  0.45594000000E+02  0.51100000000E-03 0. -1.
    9900012    2    1    2    0    0 -0.28283776773E+02 -0.12020979202E+01  0.32896885802E+02  0.47787283838E+02  0.20000058331E+02 0.  0.
         12    1    1    2    0    0  0.28283776773E+02  0.12020979202E+01 -0.32896885802E+02  0.43400716162E+02  0.00000000000E+00 0. -1.
         11    1    3    3    0    0 -0.20192740613E+01 -0.29151960445E+01  0.10666072960E+02  0.11240148948E+02  0.51100000000E-03 0. -1.
        -11    1    3    3    0    0 -0.25955274486E+02  0.18305132394E+01  0.23606331140E+02  0.35132405590E+02  0.51100000000E-03 0.  1.
        -12    1    3    3    0    0 -0.30922822555E+00 -0.11741511515E+00 -0.13755182986E+01  0.14147293008E+01  0.00000000000E+00 0.  1.
</event>
<event>
 7    1  0.2706925E-010  0.4778727E+02  0.7816164E-02  0.1312668E+00
        -11   -1    0    0    0    0  0.00000000000E+00  0.00000000000E+00  0.45593999997E+02  0.45594000000E+02  0.51100000000E-03 0.  1.
         11   -1    0    0    0    0 -0.00000000000E+00 -0.00000000000E+00 -0.45593999997E+02  0.45594000000E+02  0.51100000000E-03 0. -1.
    9900012    2    1    2    0    0 -0.10094873245E+02 -0.23150886266E+02  0.35295227581E+02  0.47787273154E+02  0.20000009620E+02 0.  0.
         12    1    1    2    0    0  0.10094873245E+02  0.23150886266E+02 -0.35295227581E+02  0.43400726846E+02  0.00000000000E+00 0. -1.
         11    1    3    3    0    0 -0.12797668093E+02 -0.21140831762E+02  0.25338081108E+02  0.35393974497E+02  0.51100000000E-03 0. -1.
        -11    1    3    3    0    0 -0.44688681377E+00 -0.37386125153E+01  0.55605866011E+01  0.67154340868E+01  0.51100000000E-03 0.  1.
         12    1    3    3    0    0  0.31496816623E+01  0.17285580112E+01  0.43965598717E+01  0.56778645702E+01  0.00000000000E+00 0. -1.
</event>
<event>
 7    1  0.2706925E-010  0.4778727E+02  0.7816164E-02  0.1312668E+00
        -11   -1    0    0    0    0  0.00000000000E+00  0.00000000000E+00  0.45593999997E+02  0.45594000000E+02  0.51100000000E-03 0.  1.
         11   -1    0    0    0    0 -0.00000000000E+00 -0.00000000000E+00 -0.45593999997E+02  0.45594000000E+02  0.51100000000E-03 0. -1.
    9900012    2    1    2    0    0  0.39085597797E+02  0.17558363933E+02  0.69024175974E+01  0.47787268810E+02  0.19999989812E+02 0.  0.
         12    1    1    2    0    0 -0.39085597797E+02 -0.17558363933E+02 -0.69024175974E+01  0.43400731190E+02  0.00000000000E+00 0. -1.
         11    1    3    3    0    0  0.24360649648E+02  0.11968149667E+02  0.57712202226E+01  0.27748600700E+02  0.51100000000E-03 0. -1.
        -11    1    3    3    0    0  0.12744100887E+02  0.38932855961E+01  0.59232979494E+01  0.14582703419E+02  0.51100000000E-03 0.  1.
         12    1    3    3    0    0  0.19808472625E+01  0.16969286704E+01 -0.47921005746E+01  0.54559646908E+01  0.00000000000E+00 0. -1.
</event>
<event>
 7    1  0.2706925E-010  0.4778727E+02  0.7816164E-02  0.1312668E+00
        -11   -1    0    0    0    0  0.00000000000E+00  0.00000000000E+00  0.45593999997E+02  0.45594000000E+02  0.51100000000E-03 0.  1.
         11   -1    0    0    0    0 -0.00000000000E+00 -0.00000000000E+00 -0.45593999997E+02  0.45594000000E+02  0.51100000000E-03 0. -1.
    9900012    2    1    2    0    0  0.40767044132E+02 -0.13597032106E+02 -0.60656365402E+01  0.47787272864E+02  0.20000008294E+02 0.  0.
         12    1    1    2    0    0 -0.40767044132E+02  0.13597032106E+02  0.60656365402E+01  0.43400727136E+02  0.00000000000E+00 0. -1.
         11    1    3    3    0    0  0.20134841607E+02  0.30980314276E+01 -0.22402809192E+00  0.20373017305E+02  0.51100000000E-03 0.  1.
        -11    1    3    3    0    0  0.13576540831E+02 -0.11530711148E+02 -0.22199585129E+01  0.17950152550E+02  0.51100000000E-03 0. -1.
        -12    1    3    3    0    0  0.70556616942E+01 -0.51643523855E+01 -0.36216499355E+01  0.94641030088E+01  0.00000000000E+00 0.  1.
</event>
<event>
 7    1  0.2706925E-010  0.4778727E+02  0.7816164E-02  0.1312668E+00
        -11   -1    0    0    0    0  0.00000000000E+00  0.00000000000E+00  0.45593999997E+02  0.45594000000E+02  0.51100000000E-03 0.  1.
         11   -1    0    0    0    0 -0.00000000000E+00 -0.00000000000E+00 -0.45593999997E+02  0.45594000000E+02  0.51100000000E-03 0. -1.
    9900012    2    1    2    0    0 -0.44761577642E+01 -0.42609474989E+02  0.69296353718E+01  0.47787271969E+02  0.20000004218E+02 0.  0.
         12    1    1    2    0    0  0.44761577642E+01  0.42609474989E+02 -0.69296353718E+01  0.43400728031E+02  0.00000000000E+00 0. -1.
         11    1    3    3    0    0 -0.10489335456E+02 -0.22158881385E+02  0.36066974130E+01  0.24780041345E+02  0.51100000000E-03 0. -1.
        -11    1    3    3    0    0  0.31214877272E+01 -0.18954071923E+02  0.14811014552E+01  0.19266400543E+02  0.51100000000E-03 0.  1.
         12    1    3    3    0    0  0.28916899649E+01 -0.14965216808E+01  0.18418365036E+01  0.37408300817E+01  0.00000000000E+00 0. -1.
</event>
<event>
 7    1  0.2706925E-010  0.4778727E+02  0.7816164E-02  0.1312668E+00
        -11   -1    0    0    0    0  0.00000000000E+00  0.00000000000E+00  0.45593999997E+02  0.45594000000E+02  0.51100000000E-03 0.  1.
         11   -1    0    0    0    0 -0.00000000000E+00 -0.00000000000E+00 -0.45593999997E+02  0.45594000000E+02  0.51100000000E-03 0. -1.
    9900012    2    1    2    0    0  0.13543361192E+02  0.71325730685E+01  0.40611909868E+02  0.47787268968E+02  0.19999990534E+02 0.  0.
         12    1    1    2    0    0 -0.13543361192E+02 -0.71325730685E+01 -0.40611909868E+02  0.43400731032E+02  0.00000000000E+00 0. -1.
         11    1    3    3    0    0  0.37526488868E+01 -0.21635375356E+01  0.12618268628E+01  0.45117042931E+01  0.51100000000E-03 0. -1.
        -11    1    3    3    0    0  0.61634248629E+01  0.10910838478E+02  0.35869650249E+02  0.37995605161E+02  0.51100000000E-03 0.  1.
        -12    1    3    3    0    0  0.36272874426E+01 -0.16147278740E+01  0.34804327560E+01  0.52799595138E+01  0.00000000000E+00 0.  1.
</event>
<event>
 7    1  0.2706925E-010  0.4778729E+02  0.7816164E-02  0.1312668E+00
        -11   -1    0    0    0    0  0.00000000000E+00  0.00000000000E+00  0.45593999997E+02  0.45594000000E+02  0.51100000000E-03 0. -1.
         11   -1    0    0    0    0 -0.00000000000E+00 -0.00000000000E+00 -0.45593999997E+02  0.45594000000E+02  0.51100000000E-03 0.  1.
    9900012    2    1    2    0    0  0.25316406278E+02  0.63378776298E+01  0.34677545869E+02  0.47787293702E+02  0.20000103304E+02 0.  0.
         12    1    1    2    0    0 -0.25316406278E+02 -0.63378776298E+01 -0.34677545869E+02  0.43400706298E+02  0.00000000000E+00 0. -1.
         11    1    3    3    0    0 -0.10849705660E+01 -0.19850156899E+01  0.22344505438E+01  0.31796568859E+01  0.51100000000E-03 0. -1.
        -11    1    3    3    0    0  0.69519713976E+01 -0.35439224356E+01  0.74566408185E+01  0.10793089692E+02  0.51100000000E-03 0.  1.
        -12    1    3    3    0    0  0.19449405446E+02  0.11866815755E+02  0.24986454507E+02  0.33814547124E+02  0.00000000000E+00 0.  1.
</event>
<event>
 7    1  0.2706925E-010  0.4778727E+02  0.7816164E-02  0.1312668E+00
        -11   -1    0    0    0    0  0.00000000000E+00  0.00000000000E+00  0.45593999997E+02  0.45594000000E+02  0.51100000000E-03 0. -1.
         11   -1    0    0    0    0 -0.00000000000E+00 -0.00000000000E+00 -0.45593999997E+02  0.45594000000E+02  0.51100000000E-03 0.  1.
    9900012    2    1    2    0    0 -0.27966114988E+02 -0.33145484883E+02 -0.17018634910E+01  0.47787273106E+02  0.20000009398E+02 0.  0.
         12    1    1    2    0    0  0.27966114988E+02  0.33145484883E+02  0.17018634910E+01  0.43400726894E+02  0.00000000000E+00 0. -1.
         11    1    3    3    0    0 -0.11634728490E+02 -0.11555395962E+02  0.38176866950E+01  0.16836532150E+02  0.51100000000E-03 0. -1.
        -11    1    3    3    0    0 -0.41505274999E+01 -0.71444705645E+01 -0.84624123928E+01  0.11827204316E+02  0.51100000000E-03 0.  1.
        -12    1    3    3    0    0 -0.12180858998E+02 -0.14445618357E+02  0.29428622068E+01  0.19123536639E+02  0.00000000000E+00 0.  1.
</event>
<event>
 7    1  0.2706925E-010  0.4778727E+02  0.7816164E-02  0.1312668E+00
        -11   -1    0    0    0    0  0.00000000000E+00  0.00000000000E+00  0.45593999997E+02  0.45594000000E+02  0.51100000000E-03 0.  1.
         11   -1    0    0    0    0 -0.00000000000E+00 -0.00000000000E+00 -0.45593999997E+02  0.45594000000E+02  0.51100000000E-03 0. -1.
    9900012    2    1    2    0    0  0.19010699985E+02 -0.37160491739E+02  0.11887566655E+02  0.47787273034E+02  0.20000009071E+02 0.  0.
         12    1    1    2    0    0 -0.19010699985E+02  0.37160491739E+02 -0.11887566655E+02  0.43400726966E+02  0.00000000000E+00 0. -1.
         11    1    3    3    0    0 -0.18256519969E+01 -0.40135791209E+01  0.32113817302E+01  0.54547956379E+01  0.51100000000E-03 0. -1.
        -11    1    3    3    0    0  0.17264108468E+02 -0.22818866486E+02  0.11822798915E+02  0.30960114395E+02  0.51100000000E-03 0.  1.
        -12    1    3    3    0    0  0.35722435145E+01 -0.10328046132E+02 -0.31466139904E+01  0.11372363001E+02  0.00000000000E+00 0.  1.
</event>
<event>
 7    1  0.2706925E-010  0.4778726E+02  0.7816164E-02  0.1312668E+00
        -11   -1    0    0    0    0  0.00000000000E+00  0.00000000000E+00  0.45593999997E+02  0.45594000000E+02  0.51100000000E-03 0.  1.
         11   -1    0    0    0    0 -0.00000000000E+00 -0.00000000000E+00 -0.45593999997E+02  0.45594000000E+02  0.51100000000E-03 0. -1.
    9900012    2    1    2    0    0  0.10338265079E+02 -0.34928802148E+02  0.23594989555E+02  0.47787257190E+02  0.19999936834E+02 0.  0.
         12    1    1    2    0    0 -0.10338265079E+02  0.34928802148E+02 -0.23594989555E+02  0.43400742810E+02  0.00000000000E+00 0. -1.
         11    1    3    3    0    0  0.29943681141E+00 -0.24081271407E+01 -0.11018594260E+01  0.26651141037E+01  0.51100000000E-03 0. -1.
        -11    1    3    3    0    0  0.86909496268E+01 -0.25416210062E+02  0.98539382993E+01  0.28611473915E+02  0.51100000000E-03 0.  1.
        -12    1    3    3    0    0  0.13478786407E+01 -0.71044649453E+01  0.14842910682E+02  0.16510669172E+02  0.00000000000E+00 0.  1.
</event>
<event>
 7    1  0.2706925E-010  0.4778726E+02  0.7816164E-02  0.1312668E+00
        -11   -1    0    0    0    0  0.00000000000E+00  0.00000000000E+00  0.45593999997E+02  0.45594000000E+02  0.51100000000E-03 0.  1.
         11   -1    0    0    0    0 -0.00000000000E+00 -0.00000000000E+00 -0.45593999997E+02  0.45594000000E+02  0.51100000000E-03 0. -1.
    9900012    2    1    2    0    0  0.30423911196E+02 -0.27312195320E+02  0.14562057138E+02  0.47787263903E+02  0.19999967439E+02 0.  0.
         12    1    1    2    0    0 -0.30423911196E+02  0.27312195320E+02 -0.14562057138E+02  0.43400736097E+02  0.00000000000E+00 0. -1.
         11    1    3    3    0    0  0.65985692800E+01 -0.50861269280E+01 -0.46193976494E+01  0.95262079851E+01  0.51100000000E-03 0. -1.
        -11    1    3    3    0    0  0.14539925475E+02 -0.17081224562E+02  0.14069658296E+02  0.26478915200E+02  0.51100000000E-03 0.  1.
         12    1    3    3    0    0  0.92854164409E+01 -0.51448438301E+01  0.51117964913E+01  0.11782140717E+02  0.00000000000E+00 0. -1.
</event>
<event>
 7    1  0.2706925E-010  0.4778727E+02  0.7816164E-02  0.1312668E+00
        -11   -1    0    0    0    0  0.00000000000E+00  0.00000000000E+00  0.45593999997E+02  0.45594000000E+02  0.51100000000E-03 0.  1.
         11   -1    0    0    0    0 -0.00000000000E+00 -0.00000000000E+00 -0.45593999997E+02  0.45594000000E+02  0.51100000000E-03 0. -1.
    9900012    2    1    2    0    0 -0.25891754613E+02 -0.60700426333E+00  0.34826310050E+02  0.47787270942E+02  0.19999999531E+02 0.  0.
         12    1    1    2    0    0  0.25891754613E+02  0.60700426333E+00 -0.34826310050E+02  0.43400729058E+02  0.00000000000E+00 0. -1.
         11    1    3    3    0    0  0.51182902543E+00  0.28229357737E+01  0.14871669259E+01  0.32315013632E+01  0.51100000000E-03 0. -1.
        -11    1    3    3    0    0 -0.14772472405E+02 -0.77545103223E+01  0.22939587457E+02  0.28365173087E+02  0.51100000000E-03 0.  1.
         12    1    3    3    0    0 -0.11631111234E+02  0.43245702853E+01  0.10399555667E+02  0.16190596491E+02  0.00000000000E+00 0. -1.
</event>
<event>
 7    1  0.2706925E-010  0.4778727E+02  0.7816164E-02  0.1312668E+00
        -11   -1    0    0    0    0  0.00000000000E+00  0.00000000000E+00  0.45593999997E+02  0.45594000000E+02  0.51100000000E-03 0. -1.
         11   -1    0    0    0    0 -0.00000000000E+00 -0.00000000000E+00 -0.45593999997E+02  0.45594000000E+02  0.51100000000E-03 0.  1.
    9900012    2    1    2    0    0 -0.17397276545E+02 -0.39202269166E+02  0.66438183205E+01  0.47787268891E+02  0.19999990180E+02 0.  0.
         12    1    1    2    0    0  0.17397276545E+02  0.39202269166E+02 -0.66438183205E+01  0.43400731109E+02  0.00000000000E+00 0. -1.
         11    1    3    3    0    0 -0.29695984978E+01  0.10098342784E+01  0.10703485823E+01  0.33142007870E+01  0.51100000000E-03 0. -1.
        -11    1    3    3    0    0 -0.36282848863E+01 -0.21572956543E+02 -0.11510152702E+01  0.21906203268E+02  0.51100000000E-03 0.  1.
         12    1    3    3    0    0 -0.10799393161E+02 -0.18639146901E+02  0.67244850085E+01  0.22566864835E+02  0.00000000000E+00 0. -1.
</event>
<event>
 7    1  0.2706925E-010  0.4778727E+02  0.7816164E-02  0.1312668E+00
        -11   -1    0    0    0    0  0.00000000000E+00  0.00000000000E+00  0.45593999997E+02  0.45594000000E+02  0.51100000000E-03 0.  1.
         11   -1    0    0    0    0 -0.00000000000E+00 -0.00000000000E+00 -0.45593999997E+02  0.45594000000E+02  0.51100000000E-03 0. -1.
    9900012    2    1    2    0    0 -0.63071083436E+01  0.18119086541E+02  0.38929969551E+02  0.47787269108E+02  0.19999991170E+02 0.  0.
         12    1    1    2    0    0  0.63071083436E+01 -0.18119086541E+02 -0.38929969551E+02  0.43400730892E+02  0.00000000000E+00 0. -1.
         11    1    3    3    0    0  0.19227847268E+01  0.17338211970E+01  0.58808751118E+01  0.64255684100E+01  0.51100000000E-03 0.  1.
        -11    1    3    3    0    0  0.68290681704E-01  0.13812113089E+01 -0.19487239616E+01  0.23895467429E+01  0.51100000000E-03 0. -1.
        -12    1    3    3    0    0 -0.82981837522E+01  0.15004054035E+02  0.34997818401E+02  0.38972153955E+02  0.00000000000E+00 0.  1.
</event>
<event>
 7    1  0.2706925E-010  0.4778727E+02  0.7816164E-02  0.1312668E+00
        -11   -1    0    0    0    0  0.00000000000E+00  0.00000000000E+00  0.45593999997E+02  0.45594000000E+02  0.51100000000E-03 0. -1.
         11   -1    0    0    0    0 -0.00000000000E+00 -0.00000000000E+00 -0.45593999997E+02  0.45594000000E+02  0.51100000000E-03 0.  1.
    9900012    2    1    2    0    0 -0.95110940381E+01  0.24479008782E+02 -0.34553446992E+02  0.47787268673E+02  0.19999989186E+02 0.  0.
         12    1    1    2    0    0  0.95110940381E+01 -0.24479008782E+02  0.34553446992E+02  0.43400731327E+02  0.00000000000E+00 0. -1.
         11    1    3    3    0    0 -0.81941675654E-01  0.12564197596E+02 -0.48697790954E+01  0.13475181794E+02  0.51100000000E-03 0. -1.
        -11    1    3    3    0    0 -0.36007086090E+01  0.22204106689E+00 -0.10496833312E+02  0.11099455597E+02  0.51100000000E-03 0.  1.
         12    1    3    3    0    0 -0.58284437534E+01  0.11692770119E+02 -0.19186834585E+02  0.23212631282E+02  0.00000000000E+00 0. -1.
</event>
<event>
 7    1  0.2706925E-010  0.4778727E+02  0.7816164E-02  0.1312668E+00
        -11   -1    0    0    0    0  0.00000000000E+00  0.00000000000E+00  0.45593999997E+02  0.45594000000E+02  0.51100000000E-03 0.  1.
         11   -1    0    0    0    0 -0.00000000000E+00 -0.00000000000E+00 -0.45593999997E+02  0.45594000000E+02  0.51100000000E-03 0. -1.
    9900012    2    1    2    0    0  0.17446040379E+01  0.41123817329E+02  0.13762665399E+02  0.47787274732E+02  0.20000016811E+02 0.  0.
         12    1    1    2    0    0 -0.17446040379E+01 -0.41123817329E+02 -0.13762665399E+02  0.43400725268E+02  0.00000000000E+00 0. -1.
         11    1    3    3    0    0 -0.87619198208E+01  0.18407618591E+02  0.60148304469E+01  0.21255348661E+02  0.51100000000E-03 0. -1.
        -11    1    3    3    0    0  0.75831179989E+01  0.18992833057E+02  0.49802487999E+01  0.21048379141E+02  0.51100000000E-03 0.  1.
         12    1    3    3    0    0  0.29234058598E+01  0.37233656812E+01  0.27675861526E+01  0.54835469296E+01  0.00000000000E+00 0. -1.
</event>
<event>
 7    1  0.2706925E-010  0.4778727E+02  0.7816164E-02  0.1312668E+00
        -11   -1    0    0    0    0  0.00000000000E+00  0.00000000000E+00  0.45593999997E+02  0.45594000000E+02  0.51100000000E-03 0.  1.
         11   -1    0    0    0    0 -0.00000000000E+00 -0.00000000000E+00 -0.45593999997E+02  0.45594000000E+02  0.51100000000E-03 0. -1.
    9900012    2    1    2    0    0  0.17248843694E+02 -0.13710728249E+02  0.37391399656E+02  0.47787269060E+02  0.19999990953E+02 0.  0.
         12    1    1    2    0    0 -0.17248843694E+02  0.13710728249E+02 -0.37391399656E+02  0.43400730940E+02  0.00000000000E+00 0. -1.
         11    1    3    3    0    0  0.65482247304E+01 -0.50215363778E+01  0.14604879923E+02  0.16774909614E+02  0.51100000000E-03 0.  1.
        -11    1    3    3    0    0  0.13810008976E+02 -0.25268919445E+01  0.13856161968E+02  0.19725484926E+02  0.51100000000E-03 0. -1.
        -12    1    3    3    0    0 -0.31093900128E+01 -0.61622999272E+01  0.89303577640E+01  0.11286874520E+02  0.00000000000E+00 0.  1.
</event>
<event>
 7    1  0.2706925E-010  0.4778724E+02  0.7816164E-02  0.1312668E+00
        -11   -1    0    0    0    0  0.00000000000E+00  0.00000000000E+00  0.45593999997E+02  0.45594000000E+02  0.51100000000E-03 0.  1.
         11   -1    0    0    0    0 -0.00000000000E+00 -0.00000000000E+00 -0.45593999997E+02  0.45594000000E+02  0.51100000000E-03 0. -1.
    9900012    2    1    2    0    0 -0.17403375620E+02  0.18808741025E+02  0.35028272755E+02  0.47787238323E+02  0.19999850811E+02 0.  0.
         12    1    1    2    0    0  0.17403375620E+02 -0.18808741025E+02 -0.35028272755E+02  0.43400761677E+02  0.00000000000E+00 0. -1.
         11    1    3    3    0    0 -0.49844491661E+01  0.13536836933E+02  0.10796250556E+02  0.18018038572E+02  0.51100000000E-03 0. -1.
        -11    1    3    3    0    0 -0.10103050193E+02  0.37021405449E+01  0.24691341518E+02  0.26933989939E+02  0.51100000000E-03 0.  1.
         12    1    3    3    0    0 -0.23158762605E+01  0.15697635464E+01 -0.45931931827E+00  0.28352098127E+01  0.00000000000E+00 0. -1.
</event>
<event>
 7    1  0.2706925E-010  0.4778727E+02  0.7816164E-02  0.1312668E+00
        -11   -1    0    0    0    0  0.00000000000E+00  0.00000000000E+00  0.45593999997E+02  0.45594000000E+02  0.51100000000E-03 0.  1.
         11   -1    0    0    0    0 -0.00000000000E+00 -0.00000000000E+00 -0.45593999997E+02  0.45594000000E+02  0.51100000000E-03 0. -1.
    9900012    2    1    2    0    0 -0.12161923791E+02 -0.10479913694E+02  0.40322232491E+02  0.47787269426E+02  0.19999992621E+02 0.  0.
         12    1    1    2    0    0  0.12161923791E+02  0.10479913694E+02 -0.40322232491E+02  0.43400730574E+02  0.00000000000E+00 0. -1.
         11    1    3    3    0    0  0.11802487504E+01 -0.27516810478E+01  0.81533850030E+01  0.86857597808E+01  0.51100000000E-03 0. -1.
        -11    1    3    3    0    0 -0.67312883614E+01 -0.11406931137E+02  0.13289436817E+02  0.18762661116E+02  0.51100000000E-03 0.  1.
        -12    1    3    3    0    0 -0.66108841800E+01  0.36786984912E+01  0.18879410671E+02  0.20338848530E+02  0.00000000000E+00 0.  1.
</event>
<event>
 7    1  0.2706925E-010  0.4778728E+02  0.7816164E-02  0.1312668E+00
        -11   -1    0    0    0    0  0.00000000000E+00  0.00000000000E+00  0.45593999997E+02  0.45594000000E+02  0.51100000000E-03 0.  1.
         11   -1    0    0    0    0 -0.00000000000E+00 -0.00000000000E+00 -0.45593999997E+02  0.45594000000E+02  0.51100000000E-03 0. -1.
    9900012    2    1    2    0    0  0.28406175838E+01 -0.43212629716E+02 -0.28674706814E+01  0.47787275774E+02  0.20000021565E+02 0.  0.
         12    1    1    2    0    0 -0.28406175838E+01  0.43212629716E+02  0.28674706814E+01  0.43400724226E+02  0.00000000000E+00 0. -1.
         11    1    3    3    0    0 -0.18263302336E+01 -0.15359626147E+02 -0.88552798207E+01  0.17823287532E+02  0.51100000000E-03 0. -1.
        -11    1    3    3    0    0  0.23203173830E+01 -0.26514120418E+02  0.49617918772E+01  0.27074006597E+02  0.51100000000E-03 0.  1.
         12    1    3    3    0    0  0.23466304345E+01 -0.13388831508E+01  0.10260172620E+01  0.28899816452E+01  0.00000000000E+00 0. -1.
</event>
<event>
 7    1  0.2706925E-010  0.4778732E+02  0.7816164E-02  0.1312668E+00
        -11   -1    0    0    0    0  0.00000000000E+00  0.00000000000E+00  0.45593999997E+02  0.45594000000E+02  0.51100000000E-03 0.  1.
         11   -1    0    0    0    0 -0.00000000000E+00 -0.00000000000E+00 -0.45593999997E+02  0.45594000000E+02  0.51100000000E-03 0. -1.
    9900012    2    1    2    0    0  0.72941869912E+01  0.36120981890E+02  0.22927895235E+02  0.47787321705E+02  0.20000230980E+02 0.  0.
         12    1    1    2    0    0 -0.72941869912E+01 -0.36120981890E+02 -0.22927895235E+02  0.43400678295E+02  0.00000000000E+00 0. -1.
         11    1    3    3    0    0 -0.27543561491E+01 -0.76454546547E+00  0.60603688186E-01  0.28591398414E+01  0.51100000000E-03 0. -1.
        -11    1    3    3    0    0  0.74336764626E+01  0.19106042769E+02  0.14462492438E+02  0.25089123217E+02  0.51100000000E-03 0.  1.
         12    1    3    3    0    0  0.26148666776E+01  0.17779484586E+02  0.84047991089E+01  0.19839058646E+02  0.00000000000E+00 0. -1.
</event>
<event>
 7    1  0.2706925E-010  0.4778727E+02  0.7816164E-02  0.1312668E+00
        -11   -1    0    0    0    0  0.00000000000E+00  0.00000000000E+00  0.45593999997E+02  0.45594000000E+02  0.51100000000E-03 0.  1.
         11   -1    0    0    0    0 -0.00000000000E+00 -0.00000000000E+00 -0.45593999997E+02  0.45594000000E+02  0.51100000000E-03 0. -1.
    9900012    2    1    2    0    0 -0.33289016728E+01 -0.14514785041E+02  0.40765950104E+02  0.47787271215E+02  0.20000000779E+02 0.  0.
         12    1    1    2    0    0  0.33289016728E+01  0.14514785041E+02 -0.40765950104E+02  0.43400728785E+02  0.00000000000E+00 0. -1.
         11    1    3    3    0    0  0.74111801861E+00  0.22106588974E+01 -0.31116180218E+00  0.23522522412E+01  0.51100000000E-03 0. -1.
        -11    1    3    3    0    0  0.15812150157E+01 -0.14433885260E+01  0.11210300514E+02  0.11412907134E+02  0.51100000000E-03 0.  1.
         12    1    3    3    0    0 -0.56512347071E+01 -0.15282055412E+02  0.29866811392E+02  0.34022111840E+02  0.00000000000E+00 0. -1.
</event>
<event>
 7    1  0.2706925E-010  0.4778727E+02  0.7816164E-02  0.1312668E+00
        -11   -1    0    0    0    0  0.00000000000E+00  0.00000000000E+00  0.45593999997E+02  0.45594000000E+02  0.51100000000E-03 0. -1.
         11   -1    0    0    0    0 -0.00000000000E+00 -0.00000000000E+00 -0.45593999997E+02  0.45594000000E+02  0.51100000000E-03 0.  1.
    9900012    2    1    2    0    0  0.60816142667E+01 -0.42846458089E+02 -0.32890863729E+01  0.47787273139E+02  0.20000009551E+02 0.  0.
         12    1    1    2    0    0 -0.60816142667E+01  0.42846458089E+02  0.32890863729E+01  0.43400726861E+02  0.00000000000E+00 0. -1.
         11    1    3    3    0    0 -0.50181575006E+01 -0.91412794233E+01 -0.25273328216E+01  0.10729972304E+02  0.51100000000E-03 0. -1.
        -11    1    3    3    0    0  0.47488841475E+01 -0.20215392112E+02  0.44970892516E+01  0.21247065465E+02  0.51100000000E-03 0.  1.
         12    1    3    3    0    0  0.63508876198E+01 -0.13489786554E+02 -0.52588428029E+01  0.15810235370E+02  0.00000000000E+00 0. -1.
</event>
<event>
 7    1  0.2706925E-010  0.4778728E+02  0.7816164E-02  0.1312668E+00
        -11   -1    0    0    0    0  0.00000000000E+00  0.00000000000E+00  0.45593999997E+02  0.45594000000E+02  0.51100000000E-03 0.  1.
         11   -1    0    0    0    0 -0.00000000000E+00 -0.00000000000E+00 -0.45593999997E+02  0.45594000000E+02  0.51100000000E-03 0. -1.
    9900012    2    1    2    0    0  0.24947439066E+02 -0.15307157492E+02  0.32045888668E+02  0.47787276884E+02  0.20000026627E+02 0.  0.
         12    1    1    2    0    0 -0.24947439066E+02  0.15307157492E+02 -0.32045888668E+02  0.43400723116E+02  0.00000000000E+00 0. -1.
         11    1    3    3    0    0  0.40516339083E+01 -0.15453639167E+01  0.11735482370E+02  0.12511012496E+02  0.51100000000E-03 0. -1.
        -11    1    3    3    0    0  0.22891584360E+02 -0.13910683719E+02  0.18310559397E+02  0.32447008209E+02  0.51100000000E-03 0.  1.
        -12    1    3    3    0    0 -0.19957792024E+01  0.14889014338E+00  0.19998469013E+01  0.28292561793E+01  0.00000000000E+00 0.  1.
</event>
<event>
 7    1  0.2706925E-010  0.4778721E+02  0.7816164E-02  0.1312668E+00
        -11   -1    0    0    0    0  0.00000000000E+00  0.00000000000E+00  0.45593999997E+02  0.45594000000E+02  0.51100000000E-03 0.  1.
         11   -1    0    0    0    0 -0.00000000000E+00 -0.00000000000E+00 -0.45593999997E+02  0.45594000000E+02  0.51100000000E-03 0. -1.
    9900012    2    1    2    0    0  0.30209405420E+02 -0.12122896949E+02  0.28706374173E+02  0.47787208251E+02  0.19999713698E+02 0.  0.
         12    1    1    2    0    0 -0.30209405420E+02  0.12122896949E+02 -0.28706374173E+02  0.43400791749E+02  0.00000000000E+00 0. -1.
         11    1    3    3    0    0  0.17326045130E+02 -0.69090530727E+01  0.58444940851E+01  0.19546993774E+02  0.51100000000E-03 0. -1.
        -11    1    3    3    0    0  0.13738317715E+02 -0.28123867937E+01  0.19063295261E+02  0.23665589356E+02  0.51100000000E-03 0.  1.
         12    1    3    3    0    0 -0.85495742433E+00 -0.24014570823E+01  0.37985848268E+01  0.45746251215E+01  0.00000000000E+00 0. -1.
</event>
<event>
 7    1  0.2706925E-010  0.4778727E+02  0.7816164E-02  0.1312668E+00
        -11   -1    0    0    0    0  0.00000000000E+00  0.00000000000E+00  0.45593999997E+02  0.45594000000E+02  0.51100000000E-03 0.  1.
         11   -1    0    0    0    0 -0.00000000000E+00 -0.00000000000E+00 -0.45593999997E+02  0.45594000000E+02  0.51100000000E-03 0. -1.
    9900012    2    1    2    0    0  0.11025832301E+02 -0.32900725276E+02  0.26069071232E+02  0.47787272166E+02  0.20000005115E+02 0.  0.
         12    1    1    2    0    0 -0.11025832301E+02  0.32900725276E+02 -0.26069071232E+02  0.43400727834E+02  0.00000000000E+00 0. -1.
         11    1    3    3    0    0  0.12659218219E+02 -0.19621168082E+02  0.12753057954E+02  0.26606137079E+02  0.51100000000E-03 0. -1.
        -11    1    3    3    0    0  0.23402300591E+01 -0.11677217851E+02  0.79705974174E+01  0.14330544892E+02  0.51100000000E-03 0.  1.
         12    1    3    3    0    0 -0.39736159764E+01 -0.16023393428E+01  0.53454158603E+01  0.68505901948E+01  0.00000000000E+00 0. -1.
</event>
<event>
 7    1  0.2706925E-010  0.4778728E+02  0.7816164E-02  0.1312668E+00
        -11   -1    0    0    0    0  0.00000000000E+00  0.00000000000E+00  0.45593999997E+02  0.45594000000E+02  0.51100000000E-03 0.  1.
         11   -1    0    0    0    0 -0.00000000000E+00 -0.00000000000E+00 -0.45593999997E+02  0.45594000000E+02  0.51100000000E-03 0. -1.
    9900012    2    1    2    0    0  0.29269522275E+02 -0.32008607765E+02 -0.15383292153E+01  0.47787281549E+02  0.20000047895E+02 0.  0.
         12    1    1    2    0    0 -0.29269522275E+02  0.32008607765E+02  0.15383292153E+01  0.43400718451E+02  0.00000000000E+00 0. -1.
         11    1    3    3    0    0  0.14145666621E+01 -0.64582230203E+01 -0.56116184479E+01  0.86717878945E+01  0.51100000000E-03 0. -1.
        -11    1    3    3    0    0  0.24874144197E+02 -0.17853878481E+02  0.38442225432E+01  0.30858743876E+02  0.51100000000E-03 0.  1.
        -12    1    3    3    0    0  0.29808114154E+01 -0.76965062638E+01  0.22906668944E+00  0.82567497789E+01  0.00000000000E+00 0.  1.
</event>
<event>
 7    1  0.2706925E-010  0.4778728E+02  0.7816164E-02  0.1312668E+00
        -11   -1    0    0    0    0  0.00000000000E+00  0.00000000000E+00  0.45593999997E+02  0.45594000000E+02  0.51100000000E-03 0.  1.
         11   -1    0    0    0    0 -0.00000000000E+00 -0.00000000000E+00 -0.45593999997E+02  0.45594000000E+02  0.51100000000E-03 0. -1.
    9900012    2    1    2    0    0 -0.10183019268E+01 -0.35023369528E+02  0.25611511189E+02  0.47787275844E+02  0.20000021881E+02 0.  0.
         12    1    1    2    0    0  0.10183019268E+01  0.35023369528E+02 -0.25611511189E+02  0.43400724156E+02  0.00000000000E+00 0. -1.
         11    1    3    3    0    0 -0.30389568211E+01 -0.60294652146E+01  0.48693214345E+01  0.83246622050E+01  0.51100000000E-03 0. -1.
        -11    1    3    3    0    0 -0.55291615235E+01 -0.23379400799E+02  0.16480887006E+02  0.29133960349E+02  0.51100000000E-03 0.  1.
        -12    1    3    3    0    0  0.75498164178E+01 -0.56145035150E+01  0.42613027486E+01  0.10328653290E+02  0.00000000000E+00 0.  1.
</event>
<event>
 7    1  0.2706925E-010  0.4778727E+02  0.7816164E-02  0.1312668E+00
        -11   -1    0    0    0    0  0.00000000000E+00  0.00000000000E+00  0.45593999997E+02  0.45594000000E+02  0.51100000000E-03 0. -1.
         11   -1    0    0    0    0 -0.00000000000E+00 -0.00000000000E+00 -0.45593999997E+02  0.45594000000E+02  0.51100000000E-03 0.  1.
    9900012    2    1    2    0    0  0.21839986783E+02 -0.36561226563E+02  0.83615160095E+01  0.47787271199E+02  0.20000000704E+02 0.  0.
         12    1    1    2    0    0 -0.21839986783E+02  0.36561226563E+02 -0.83615160095E+01  0.43400728801E+02  0.00000000000E+00 0. -1.
         11    1    3    3    0    0  0.81541362791E+01 -0.18379426540E+01  0.39582891945E+01  0.92485688226E+01  0.51100000000E-03 0. -1.
        -11    1    3    3    0    0  0.13109081572E+02 -0.22432484648E+02  0.29785682432E+01  0.26152174980E+02  0.51100000000E-03 0.  1.
         12    1    3    3    0    0  0.57676893161E+00 -0.12290799262E+02  0.14246585718E+01  0.12386527396E+02  0.00000000000E+00 0. -1.
</event>
<event>
 7    1  0.2706925E-010  0.4778728E+02  0.7816164E-02  0.1312668E+00
        -11   -1    0    0    0    0  0.00000000000E+00  0.00000000000E+00  0.45593999997E+02  0.45594000000E+02  0.51100000000E-03 0.  1.
         11   -1    0    0    0    0 -0.00000000000E+00 -0.00000000000E+00 -0.45593999997E+02  0.45594000000E+02  0.51100000000E-03 0. -1.
    9900012    2    1    2    0    0  0.86097475195E+00 -0.26220795297E+02  0.34573854932E+02  0.47787276176E+02  0.20000023399E+02 0.  0.
         12    1    1    2    0    0 -0.86097475195E+00  0.26220795297E+02 -0.34573854932E+02  0.43400723824E+02  0.00000000000E+00 0. -1.
         11    1    3    3    0    0 -0.20655816213E+01 -0.95954852965E+01  0.74023671042E+01  0.12293697756E+02  0.51100000000E-03 0. -1.
        -11    1    3    3    0    0 -0.81000068954E+00 -0.15619841217E+02  0.27472014476E+02  0.31612451983E+02  0.51100000000E-03 0.  1.
        -12    1    3    3    0    0  0.37365570628E+01 -0.10054687836E+01 -0.30052664765E+00  0.38811264376E+01  0.00000000000E+00 0.  1.
</event>
<event>
 7    1  0.2706925E-010  0.4778727E+02  0.7816164E-02  0.1312668E+00
        -11   -1    0    0    0    0  0.00000000000E+00  0.00000000000E+00  0.45593999997E+02  0.45594000000E+02  0.51100000000E-03 0.  1.
         11   -1    0    0    0    0 -0.00000000000E+00 -0.00000000000E+00 -0.45593999997E+02  0.45594000000E+02  0.51100000000E-03 0. -1.
    9900012    2    1    2    0    0 -0.75020867714E+01 -0.26335296422E+02  0.33671856121E+02  0.47787273759E+02  0.20000012379E+02 0.  0.
         12    1    1    2    0    0  0.75020867714E+01  0.26335296422E+02 -0.33671856121E+02  0.43400726241E+02  0.00000000000E+00 0. -1.
         11    1    3    3    0    0 -0.38750787541E+01 -0.14122526994E+02  0.74362048499E+01  0.16424346163E+02  0.51100000000E-03 0. -1.
        -11    1    3    3    0    0 -0.17498782300E+01 -0.31126443830E+01  0.19655506500E+02  0.19977226156E+02  0.51100000000E-03 0.  1.
        -12    1    3    3    0    0 -0.18771297872E+01 -0.91001250453E+01  0.65801447713E+01  0.11385701440E+02  0.00000000000E+00 0.  1.
</event>
<event>
 7    1  0.2706925E-010  0.4778727E+02  0.7816164E-02  0.1312668E+00
        -11   -1    0    0    0    0  0.00000000000E+00  0.00000000000E+00  0.45593999997E+02  0.45594000000E+02  0.51100000000E-03 0.  1.
         11   -1    0    0    0    0 -0.00000000000E+00 -0.00000000000E+00 -0.45593999997E+02  0.45594000000E+02  0.51100000000E-03 0. -1.
    9900012    2    1    2    0    0 -0.22140124904E+02 -0.25534924906E+02  0.27228774927E+02  0.47787266080E+02  0.19999977367E+02 0.  0.
         12    1    1    2    0    0  0.22140124904E+02  0.25534924906E+02 -0.27228774927E+02  0.43400733920E+02  0.00000000000E+00 0. -1.
         11    1    3    3    0    0 -0.16857374968E+01 -0.25382894860E+01 -0.17432846117E+00  0.30520509656E+01  0.51100000000E-03 0. -1.
        -11    1    3    3    0    0 -0.20552280265E+02 -0.14337285167E+02  0.13794673225E+02  0.28605016687E+02  0.51100000000E-03 0.  1.
        -12    1    3    3    0    0  0.97892856944E-01 -0.86593502538E+01  0.13608430162E+02  0.16130198428E+02  0.00000000000E+00 0.  1.
</event>
<event>
 7    1  0.2706925E-010  0.4778727E+02  0.7816164E-02  0.1312668E+00
        -11   -1    0    0    0    0  0.00000000000E+00  0.00000000000E+00  0.45593999997E+02  0.45594000000E+02  0.51100000000E-03 0. -1.
         11   -1    0    0    0    0 -0.00000000000E+00 -0.00000000000E+00 -0.45593999997E+02  0.45594000000E+02  0.51100000000E-03 0.  1.
    9900012    2    1    2    0    0  0.43314807989E+02  0.12066221571E+00 -0.27268756735E+01  0.47787274183E+02  0.20000014311E+02 0.  0.
         12    1    1    2    0    0 -0.43314807989E+02 -0.12066221571E+00  0.27268756735E+01  0.43400725817E+02  0.00000000000E+00 0. -1.
         11    1    3    3    0    0 -0.49898031304E+00 -0.22604509007E+01  0.17603356398E+01  0.29081611808E+01  0.51100000000E-03 0. -1.
        -11    1    3    3    0    0  0.29436921636E+02  0.23872470168E+01  0.84398889253E+00  0.29545619324E+02  0.51100000000E-03 0.  1.
         12    1    3    3    0    0  0.14376866666E+02 -0.61339003418E-02 -0.53312002058E+01  0.15333493679E+02  0.00000000000E+00 0. -1.
</event>
<event>
 7    1  0.2706925E-010  0.4778727E+02  0.7816164E-02  0.1312668E+00
        -11   -1    0    0    0    0  0.00000000000E+00  0.00000000000E+00  0.45593999997E+02  0.45594000000E+02  0.51100000000E-03 0. -1.
         11   -1    0    0    0    0 -0.00000000000E+00 -0.00000000000E+00 -0.45593999997E+02  0.45594000000E+02  0.51100000000E-03 0.  1.
    9900012    2    1    2    0    0  0.14851726928E+02  0.38941396799E+02  0.12108549290E+02  0.47787272548E+02  0.20000006857E+02 0.  0.
         12    1    1    2    0    0 -0.14851726928E+02 -0.38941396799E+02 -0.12108549290E+02  0.43400727452E+02  0.00000000000E+00 0. -1.
         11    1    3    3    0    0 -0.74385732316E+00  0.57520345435E+01  0.75380405765E+01  0.95111135574E+01  0.51100000000E-03 0. -1.
        -11    1    3    3    0    0  0.14930064079E+02  0.20971412563E+02  0.24728020416E+01  0.25861587509E+02  0.51100000000E-03 0.  1.
        -12    1    3    3    0    0  0.66552017160E+00  0.12217949693E+02  0.20977066720E+01  0.12414571482E+02  0.00000000000E+00 0.  1.
</event>
<event>
 7    1  0.2706925E-010  0.4778727E+02  0.7816164E-02  0.1312668E+00
        -11   -1    0    0    0    0  0.00000000000E+00  0.00000000000E+00  0.45593999997E+02  0.45594000000E+02  0.51100000000E-03 0.  1.
         11   -1    0    0    0    0 -0.00000000000E+00 -0.00000000000E+00 -0.45593999997E+02  0.45594000000E+02  0.51100000000E-03 0. -1.
    9900012    2    1    2    0    0  0.44863450366E+01  0.24892952805E+01  0.43096395119E+02  0.47787272414E+02  0.20000006243E+02 0.  0.
         12    1    1    2    0    0 -0.44863450366E+01 -0.24892952805E+01 -0.43096395119E+02  0.43400727586E+02  0.00000000000E+00 0. -1.
         11    1    3    3    0    0 -0.30318168687E+01  0.22068091586E+01  0.17272673021E+01  0.41286042171E+01  0.51100000000E-03 0. -1.
        -11    1    3    3    0    0  0.15787984508E+01 -0.36955547566E+01  0.29724401415E+02  0.29994829041E+02  0.51100000000E-03 0.  1.
        -12    1    3    3    0    0  0.59393634544E+01  0.39780408785E+01  0.11644726402E+02  0.13663839155E+02  0.00000000000E+00 0.  1.
</event>
<event>
 7    1  0.2706925E-010  0.4778727E+02  0.7816164E-02  0.1312668E+00
        -11   -1    0    0    0    0  0.00000000000E+00  0.00000000000E+00  0.45593999997E+02  0.45594000000E+02  0.51100000000E-03 0.  1.
         11   -1    0    0    0    0 -0.00000000000E+00 -0.00000000000E+00 -0.45593999997E+02  0.45594000000E+02  0.51100000000E-03 0. -1.
    9900012    2    1    2    0    0 -0.54565518685E+01  0.34841561433E+02  0.25296538901E+02  0.47787271414E+02  0.20000001687E+02 0.  0.
         12    1    1    2    0    0  0.54565518685E+01 -0.34841561433E+02 -0.25296538901E+02  0.43400728586E+02  0.00000000000E+00 0. -1.
         11    1    3    3    0    0 -0.43583205201E+01  0.15397002158E+02  0.54542602375E+01  0.16905963096E+02  0.51100000000E-03 0. -1.
        -11    1    3    3    0    0 -0.68081114189E+00 -0.19838195067E+01  0.91705885823E+00  0.22891135526E+01  0.51100000000E-03 0.  1.
        -12    1    3    3    0    0 -0.41742020651E+00  0.21428378781E+02  0.18925219805E+02  0.28592194766E+02  0.00000000000E+00 0.  1.
</event>
<event>
 7    1  0.2706925E-010  0.4778728E+02  0.7816164E-02  0.1312668E+00
        -11   -1    0    0    0    0  0.00000000000E+00  0.00000000000E+00  0.45593999997E+02  0.45594000000E+02  0.51100000000E-03 0.  1.
         11   -1    0    0    0    0 -0.00000000000E+00 -0.00000000000E+00 -0.45593999997E+02  0.45594000000E+02  0.51100000000E-03 0. -1.
    9900012    2    1    2    0    0  0.37401837793E+02  0.20777868258E+02  0.72804800986E+01  0.47787278000E+02  0.20000031715E+02 0.  0.
         12    1    1    2    0    0 -0.37401837793E+02 -0.20777868258E+02 -0.72804800986E+01  0.43400722000E+02  0.00000000000E+00 0. -1.
         11    1    3    3    0    0 -0.94002292947E+00  0.30275596319E+01 -0.22109784735E+01  0.38649950199E+01  0.51100000000E-03 0. -1.
        -11    1    3    3    0    0  0.19623191400E+02  0.12905732211E+02  0.63823503591E+01  0.24338487237E+02  0.51100000000E-03 0.  1.
         12    1    3    3    0    0  0.18718669322E+02  0.48445764157E+01  0.31091082130E+01  0.19583795744E+02  0.00000000000E+00 0. -1.
</event>
<event>
 7    1  0.2706925E-010  0.4778727E+02  0.7816164E-02  0.1312668E+00
        -11   -1    0    0    0    0  0.00000000000E+00  0.00000000000E+00  0.45593999997E+02  0.45594000000E+02  0.51100000000E-03 0. -1.
         11   -1    0    0    0    0 -0.00000000000E+00 -0.00000000000E+00 -0.45593999997E+02  0.45594000000E+02  0.51100000000E-03 0.  1.
    9900012    2    1    2    0    0 -0.28545405900E+02  0.18720942331E+02 -0.26801295453E+02  0.47787270539E+02  0.19999997695E+02 0.  0.
         12    1    1    2    0    0  0.28545405900E+02 -0.18720942331E+02  0.26801295453E+02  0.43400729461E+02  0.00000000000E+00 0. -1.
         11    1    3    3    0    0  0.26429915050E+01 -0.58635043667E-01 -0.13643754149E+01  0.29749559153E+01  0.51100000000E-03 0. -1.
        -11    1    3    3    0    0 -0.19975982208E+02  0.14231494963E+02 -0.14440881776E+02  0.28462508336E+02  0.51100000000E-03 0.  1.
         12    1    3    3    0    0 -0.11212415197E+02  0.45480824123E+01 -0.10996038262E+02  0.16349806288E+02  0.00000000000E+00 0. -1.
</event>
<event>
 7    1 -0.2706925E-010  0.4778727E+02  0.7816164E-02  0.1312668E+00
        -11   -1    0    0    0    0  0.00000000000E+00  0.00000000000E+00  0.45593999997E+02  0.45594000000E+02  0.51100000000E-03 0.  1.
         11   -1    0    0    0    0 -0.00000000000E+00 -0.00000000000E+00 -0.45593999997E+02  0.45594000000E+02  0.51100000000E-03 0. -1.
    9900012    2    1    2    0    0 -0.30076764023E+02  0.30864122916E+02 -0.51397892489E+01  0.47787271308E+02  0.20000001203E+02 0.  0.
         12    1    1    2    0    0  0.30076764023E+02 -0.30864122916E+02  0.51397892489E+01  0.43400728692E+02  0.00000000000E+00 0. -1.
         11    1    3    3    0    0 -0.26039638642E+02  0.24499937313E+02 -0.54016630209E+01  0.36159199004E+02  0.51100000000E-03 0. -1.
        -11    1    3    3    0    0 -0.53883094906E+01  0.32807311519E+00 -0.36665691770E+00  0.54107253388E+01  0.51100000000E-03 0.  1.
         12    1    3    3    0    0  0.13511841097E+01  0.60361124877E+01  0.62853068967E+00  0.62173469656E+01  0.00000000000E+00 0. -1.
</event>
<event>
 7    1  0.2706925E-010  0.4778727E+02  0.7816164E-02  0.1312668E+00
        -11   -1    0    0    0    0  0.00000000000E+00  0.00000000000E+00  0.45593999997E+02  0.45594000000E+02  0.51100000000E-03 0.  1.
         11   -1    0    0    0    0 -0.00000000000E+00 -0.00000000000E+00 -0.45593999997E+02  0.45594000000E+02  0.51100000000E-03 0. -1.
    9900012    2    1    2    0    0 -0.35566645360E+02 -0.24199555380E+02  0.57461663240E+01  0.47787272239E+02  0.20000005447E+02 0.  0.
         12    1    1    2    0    0  0.35566645360E+02  0.24199555380E+02 -0.57461663240E+01  0.43400727761E+02  0.00000000000E+00 0. -1.
         11    1    3    3    0    0 -0.19369769519E+02 -0.46507444706E+01  0.80928861675E+00  0.19936708447E+02  0.51100000000E-03 0. -1.
        -11    1    3    3    0    0 -0.98743475434E+01 -0.43223950634E+01  0.33496689556E+01  0.11287431987E+02  0.51100000000E-03 0.  1.
         12    1    3    3    0    0 -0.63225282974E+01 -0.15226415846E+02  0.15872087516E+01  0.16563131805E+02  0.00000000000E+00 0. -1.
</event>
<event>
 7    1  0.2706925E-010  0.4778728E+02  0.7816164E-02  0.1312668E+00
        -11   -1    0    0    0    0  0.00000000000E+00  0.00000000000E+00  0.45593999997E+02  0.45594000000E+02  0.51100000000E-03 0.  1.
         11   -1    0    0    0    0 -0.00000000000E+00 -0.00000000000E+00 -0.45593999997E+02  0.45594000000E+02  0.51100000000E-03 0. -1.
    9900012    2    1    2    0    0 -0.68838730455E+01 -0.11050071585E+02  0.41402066779E+02  0.47787275078E+02  0.20000018390E+02 0.  0.
         12    1    1    2    0    0  0.68838730455E+01  0.11050071585E+02 -0.41402066779E+02  0.43400724922E+02  0.00000000000E+00 0. -1.
         11    1    3    3    0    0 -0.25590020086E+01 -0.10789080251E+02  0.16651883586E+02  0.20005948395E+02  0.51100000000E-03 0. -1.
        -11    1    3    3    0    0 -0.34132443842E+01  0.20593764344E+01  0.12912521876E+01  0.41902984378E+01  0.51100000000E-03 0.  1.
        -12    1    3    3    0    0 -0.91162665265E+00 -0.23203677685E+01  0.23458931006E+02  0.23591028245E+02  0.00000000000E+00 0.  1.
</event>
<event>
 7    1  0.2706925E-010  0.4778727E+02  0.7816164E-02  0.1312668E+00
        -11   -1    0    0    0    0  0.00000000000E+00  0.00000000000E+00  0.45593999997E+02  0.45594000000E+02  0.51100000000E-03 0. -1.
         11   -1    0    0    0    0 -0.00000000000E+00 -0.00000000000E+00 -0.45593999997E+02  0.45594000000E+02  0.51100000000E-03 0.  1.
    9900012    2    1    2    0    0  0.32980784986E+02  0.19843390381E+02 -0.20053203259E+02  0.47787270961E+02  0.19999999621E+02 0.  0.
         12    1    1    2    0    0 -0.32980784986E+02 -0.19843390381E+02  0.20053203259E+02  0.43400729039E+02  0.00000000000E+00 0. -1.
         11    1    3    3    0    0  0.11509355524E+02  0.83241860695E+01 -0.17378906717E+02  0.22445127249E+02  0.51100000000E-03 0.  1.
        -11    1    3    3    0    0  0.60210984400E+01  0.88350347194E+00  0.11650421098E+01  0.61960897498E+01  0.51100000000E-03 0. -1.
         12    1    3    3    0    0  0.15450331022E+02  0.10635700840E+02 -0.38393386523E+01  0.19146053962E+02  0.00000000000E+00 0. -1.
</event>
<event>
 7    1  0.2706925E-010  0.4778727E+02  0.7816164E-02  0.1312668E+00
        -11   -1    0    0    0    0  0.00000000000E+00  0.00000000000E+00  0.45593999997E+02  0.45594000000E+02  0.51100000000E-03 0. -1.
         11   -1    0    0    0    0 -0.00000000000E+00 -0.00000000000E+00 -0.45593999997E+02  0.45594000000E+02  0.51100000000E-03 0.  1.
    9900012    2    1    2    0    0  0.16761254963E+02 -0.38982801199E+02  0.91117815342E+01  0.47787273970E+02  0.20000013337E+02 0.  0.
         12    1    1    2    0    0 -0.16761254963E+02  0.38982801199E+02 -0.91117815342E+01  0.43400726030E+02  0.00000000000E+00 0. -1.
         11    1    3    3    0    0  0.29965409909E+01 -0.16523472472E+02  0.90645973021E+01  0.19083273434E+02  0.51100000000E-03 0. -1.
        -11    1    3    3    0    0  0.10104020806E+02 -0.60354193993E+01  0.12420497737E+01  0.11834703700E+02  0.51100000000E-03 0.  1.
        -12    1    3    3    0    0  0.36606931661E+01 -0.16423909328E+02 -0.11948655415E+01  0.16869296836E+02  0.00000000000E+00 0.  1.
</event>
<event>
 7    1  0.2706925E-010  0.4778727E+02  0.7816164E-02  0.1312668E+00
        -11   -1    0    0    0    0  0.00000000000E+00  0.00000000000E+00  0.45593999997E+02  0.45594000000E+02  0.51100000000E-03 0. -1.
         11   -1    0    0    0    0 -0.00000000000E+00 -0.00000000000E+00 -0.45593999997E+02  0.45594000000E+02  0.51100000000E-03 0.  1.
    9900012    2    1    2    0    0 -0.41495258800E+02 -0.12581503186E+02 -0.18634731711E+01  0.47787271233E+02  0.20000000858E+02 0.  0.
         12    1    1    2    0    0  0.41495258800E+02  0.12581503186E+02  0.18634731711E+01  0.43400728767E+02  0.00000000000E+00 0. -1.
         11    1    3    3    0    0 -0.56602589964E+01  0.60926277065E+00  0.14137959295E+01  0.58658803450E+01  0.51100000000E-03 0. -1.
        -11    1    3    3    0    0 -0.17267273252E+01 -0.12037049833E+01  0.44758346499E+01  0.49460680360E+01  0.51100000000E-03 0.  1.
        -12    1    3    3    0    0 -0.34108272478E+02 -0.11987060973E+02 -0.77531037505E+01  0.36975322852E+02  0.00000000000E+00 0.  1.
</event>
<event>
 7    1  0.2706925E-010  0.4778727E+02  0.7816164E-02  0.1312668E+00
        -11   -1    0    0    0    0  0.00000000000E+00  0.00000000000E+00  0.45593999997E+02  0.45594000000E+02  0.51100000000E-03 0. -1.
         11   -1    0    0    0    0 -0.00000000000E+00 -0.00000000000E+00 -0.45593999997E+02  0.45594000000E+02  0.51100000000E-03 0.  1.
    9900012    2    1    2    0    0  0.29429118981E+01 -0.38047606235E+02 -0.20672251541E+02  0.47787273572E+02  0.20000011526E+02 0.  0.
         12    1    1    2    0    0 -0.29429118981E+01  0.38047606235E+02  0.20672251541E+02  0.43400726428E+02  0.00000000000E+00 0. -1.
         11    1    3    3    0    0  0.69394927665E+01 -0.24693989804E+02 -0.13837862497E+02  0.29145087598E+02  0.51100000000E-03 0. -1.
        -11    1    3    3    0    0 -0.56116915698E+01 -0.11019807461E+02 -0.88103967489E+01  0.15183883887E+02  0.51100000000E-03 0.  1.
         12    1    3    3    0    0  0.16151107013E+01 -0.23338089696E+01  0.19760077048E+01  0.34583020882E+01  0.00000000000E+00 0. -1.
</event>
<event>
 7    1  0.2706925E-010  0.4778727E+02  0.7816164E-02  0.1312668E+00
        -11   -1    0    0    0    0  0.00000000000E+00  0.00000000000E+00  0.45593999997E+02  0.45594000000E+02  0.51100000000E-03 0.  1.
         11   -1    0    0    0    0 -0.00000000000E+00 -0.00000000000E+00 -0.45593999997E+02  0.45594000000E+02  0.51100000000E-03 0. -1.
    9900012    2    1    2    0    0  0.34898234769E+02 -0.86004087429E+01  0.24326311216E+02  0.47787271459E+02  0.20000001888E+02 0.  0.
         12    1    1    2    0    0 -0.34898234769E+02  0.86004087429E+01 -0.24326311216E+02  0.43400728541E+02  0.00000000000E+00 0. -1.
         11    1    3    3    0    0  0.76948911046E+01  0.20442605841E+01  0.12854904154E+02  0.15120810544E+02  0.51100000000E-03 0. -1.
        -11    1    3    3    0    0  0.13059277593E+02 -0.42606950927E+01  0.10174324701E+02  0.17094301311E+02  0.51100000000E-03 0.  1.
         12    1    3    3    0    0  0.14144066071E+02 -0.63839742343E+01  0.12970823609E+01  0.15572159603E+02  0.00000000000E+00 0. -1.
</event>
<event>
 7    1  0.2706925E-010  0.4778727E+02  0.7816164E-02  0.1312668E+00
        -11   -1    0    0    0    0  0.00000000000E+00  0.00000000000E+00  0.45593999997E+02  0.45594000000E+02  0.51100000000E-03 0. -1.
         11   -1    0    0    0    0 -0.00000000000E+00 -0.00000000000E+00 -0.45593999997E+02  0.45594000000E+02  0.51100000000E-03 0.  1.
    9900012    2    1    2    0    0  0.20988614726E+02 -0.12694169320E+02 -0.35804459771E+02  0.47787271638E+02  0.20000002707E+02 0.  0.
         12    1    1    2    0    0 -0.20988614726E+02  0.12694169320E+02  0.35804459771E+02  0.43400728362E+02  0.00000000000E+00 0. -1.
         11    1    3    3    0    0  0.18780120718E+02 -0.30166526385E+01 -0.15864594024E+02  0.24768497555E+02  0.51100000000E-03 0. -1.
        -11    1    3    3    0    0 -0.16503261587E+01 -0.54638472374E+01 -0.86145650497E+01  0.10333824767E+02  0.51100000000E-03 0.  1.
        -12    1    3    3    0    0  0.38588201665E+01 -0.42136694445E+01 -0.11325300697E+02  0.12684949316E+02  0.00000000000E+00 0.  1.
</event>
<event>
 7    1  0.2706925E-010  0.4778727E+02  0.7816164E-02  0.1312668E+00
        -11   -1    0    0    0    0  0.00000000000E+00  0.00000000000E+00  0.45593999997E+02  0.45594000000E+02  0.51100000000E-03 0.  1.
         11   -1    0    0    0    0 -0.00000000000E+00 -0.00000000000E+00 -0.45593999997E+02  0.45594000000E+02  0.51100000000E-03 0. -1.
    9900012    2    1    2    0    0 -0.26472188157E+02 -0.21809977800E+01  0.34323308405E+02  0.47787274235E+02  0.20000014545E+02 0.  0.
         12    1    1    2    0    0  0.26472188157E+02  0.21809977800E+01 -0.34323308405E+02  0.43400725765E+02  0.00000000000E+00 0. -1.
         11    1    3    3    0    0 -0.91296789878E+01 -0.61443846667E+01  0.54460591489E+01  0.12278601788E+02  0.51100000000E-03 0. -1.
        -11    1    3    3    0    0 -0.17037696069E+02  0.72010853466E+00  0.26345714307E+02  0.31383089495E+02  0.51100000000E-03 0.  1.
        -12    1    3    3    0    0 -0.30481309962E+00  0.32432783520E+01  0.25315349490E+01  0.41255829519E+01  0.00000000000E+00 0.  1.
</event>
<event>
 7    1  0.2706925E-010  0.4778727E+02  0.7816164E-02  0.1312668E+00
        -11   -1    0    0    0    0  0.00000000000E+00  0.00000000000E+00  0.45593999997E+02  0.45594000000E+02  0.51100000000E-03 0.  1.
         11   -1    0    0    0    0 -0.00000000000E+00 -0.00000000000E+00 -0.45593999997E+02  0.45594000000E+02  0.51100000000E-03 0. -1.
    9900012    2    1    2    0    0 -0.21751270091E+02  0.30872579277E+01  0.37429588674E+02  0.47787273965E+02  0.20000013315E+02 0.  0.
         12    1    1    2    0    0  0.21751270091E+02 -0.30872579277E+01 -0.37429588674E+02  0.43400726035E+02  0.00000000000E+00 0. -1.
         11    1    3    3    0    0 -0.15029002287E+02  0.23662832705E+01  0.24510963928E+02  0.28848874488E+02  0.51100000000E-03 0. -1.
        -11    1    3    3    0    0 -0.74377602247E+01 -0.29782543564E+01  0.12882230006E+02  0.15170435932E+02  0.51100000000E-03 0.  1.
         12    1    3    3    0    0  0.71549242114E+00  0.36992290136E+01  0.36394739523E-01  0.37679635450E+01  0.00000000000E+00 0. -1.
</event>
<event>
 7    1  0.2706925E-010  0.4778727E+02  0.7816164E-02  0.1312668E+00
        -11   -1    0    0    0    0  0.00000000000E+00  0.00000000000E+00  0.45593999997E+02  0.45594000000E+02  0.51100000000E-03 0.  1.
         11   -1    0    0    0    0 -0.00000000000E+00 -0.00000000000E+00 -0.45593999997E+02  0.45594000000E+02  0.51100000000E-03 0. -1.
    9900012    2    1    2    0    0  0.16179198216E+02  0.17601454020E+02  0.36222172620E+02  0.47787269271E+02  0.19999991913E+02 0.  0.
         12    1    1    2    0    0 -0.16179198216E+02 -0.17601454020E+02 -0.36222172620E+02  0.43400730729E+02  0.00000000000E+00 0. -1.
         11    1    3    3    0    0 -0.24369923304E+01  0.21681112293E+01 -0.74688877546E+00  0.33462637412E+01  0.51100000000E-03 0. -1.
        -11    1    3    3    0    0  0.70806746937E+01  0.90101743213E+01  0.16990519296E+02  0.20493826915E+02  0.51100000000E-03 0.  1.
         12    1    3    3    0    0  0.11535515853E+02  0.64231684695E+01  0.19978542099E+02  0.23947178614E+02  0.00000000000E+00 0. -1.
</event>
<event>
 7    1  0.2706925E-010  0.4778723E+02  0.7816164E-02  0.1312668E+00
        -11   -1    0    0    0    0  0.00000000000E+00  0.00000000000E+00  0.45593999997E+02  0.45594000000E+02  0.51100000000E-03 0.  1.
         11   -1    0    0    0    0 -0.00000000000E+00 -0.00000000000E+00 -0.45593999997E+02  0.45594000000E+02  0.51100000000E-03 0. -1.
    9900012    2    1    2    0    0  0.38059252223E+02  0.11375890443E+02  0.17484542339E+02  0.47787230606E+02  0.19999815625E+02 0.  0.
         12    1    1    2    0    0 -0.38059252223E+02 -0.11375890443E+02 -0.17484542339E+02  0.43400769394E+02  0.00000000000E+00 0. -1.
         11    1    3    3    0    0  0.12470005570E+02 -0.11995625217E+01  0.11772419076E+02  0.17190981366E+02  0.51100000000E-03 0. -1.
        -11    1    3    3    0    0  0.15804315964E+02  0.55398667525E+01  0.76116179947E+01  0.18395740145E+02  0.51100000000E-03 0.  1.
         12    1    3    3    0    0  0.97849306890E+01  0.70355862122E+01 -0.18994947317E+01  0.12200509095E+02  0.00000000000E+00 0. -1.
</event>
<event>
 7    1  0.2706925E-010  0.4778727E+02  0.7816164E-02  0.1312668E+00
        -11   -1    0    0    0    0  0.00000000000E+00  0.00000000000E+00  0.45593999997E+02  0.45594000000E+02  0.51100000000E-03 0.  1.
         11   -1    0    0    0    0 -0.00000000000E+00 -0.00000000000E+00 -0.45593999997E+02  0.45594000000E+02  0.51100000000E-03 0. -1.
    9900012    2    1    2    0    0 -0.21560100376E+02  0.26096321687E+02  0.27161874751E+02  0.47787269893E+02  0.19999994752E+02 0.  0.
         12    1    1    2    0    0  0.21560100376E+02 -0.26096321687E+02 -0.27161874751E+02  0.43400730107E+02  0.00000000000E+00 0. -1.
         11    1    3    3    0    0 -0.36446842021E+01  0.73703528404E+01 -0.14456120928E+01  0.83483901747E+01  0.51100000000E-03 0. -1.
        -11    1    3    3    0    0 -0.14746513574E+02  0.17556126196E+02  0.20901291160E+02  0.31024848138E+02  0.51100000000E-03 0.  1.
        -12    1    3    3    0    0 -0.31689026000E+01  0.11698426498E+01  0.77061956841E+01  0.84140315804E+01  0.00000000000E+00 0.  1.
</event>
<event>
 7    1  0.2706925E-010  0.4778728E+02  0.7816164E-02  0.1312668E+00
        -11   -1    0    0    0    0  0.00000000000E+00  0.00000000000E+00  0.45593999997E+02  0.45594000000E+02  0.51100000000E-03 0. -1.
         11   -1    0    0    0    0 -0.00000000000E+00 -0.00000000000E+00 -0.45593999997E+02  0.45594000000E+02  0.51100000000E-03 0.  1.
    9900012    2    1    2    0    0  0.14806890268E+02 -0.38476531506E+02  0.13562277014E+02  0.47787276113E+02  0.20000023108E+02 0.  0.
         12    1    1    2    0    0 -0.14806890268E+02  0.38476531506E+02 -0.13562277014E+02  0.43400723887E+02  0.00000000000E+00 0. -1.
         11    1    3    3    0    0 -0.56998168678E-01 -0.16188138716E+02  0.41977782986E+01  0.16723648728E+02  0.51100000000E-03 0. -1.
        -11    1    3    3    0    0  0.16002138655E+02 -0.14029351760E+02  0.67722457004E+01  0.22332811386E+02  0.51100000000E-03 0.  1.
        -12    1    3    3    0    0 -0.11382502184E+01 -0.82590410306E+01  0.25922530154E+01  0.87308159985E+01  0.00000000000E+00 0.  1.
</event>
<event>
 7    1  0.2706925E-010  0.4778727E+02  0.7816164E-02  0.1312668E+00
        -11   -1    0    0    0    0  0.00000000000E+00  0.00000000000E+00  0.45593999997E+02  0.45594000000E+02  0.51100000000E-03 0. -1.
         11   -1    0    0    0    0 -0.00000000000E+00 -0.00000000000E+00 -0.45593999997E+02  0.45594000000E+02  0.51100000000E-03 0.  1.
    9900012    2    1    2    0    0  0.34664101170E+02  0.14041300017E+02 -0.22019653683E+02  0.47787272306E+02  0.20000005750E+02 0.  0.
         12    1    1    2    0    0 -0.34664101170E+02 -0.14041300017E+02  0.22019653683E+02  0.43400727694E+02  0.00000000000E+00 0. -1.
         11    1    3    3    0    0  0.33925590340E+01  0.91556682705E+01 -0.68357099070E+01  0.11919003669E+02  0.51100000000E-03 0. -1.
        -11    1    3    3    0    0  0.20926621326E+02  0.27280083637E+01 -0.13788761441E+02  0.25209035128E+02  0.51100000000E-03 0.  1.
         12    1    3    3    0    0  0.10344920810E+02  0.21576233830E+01 -0.13951823342E+01  0.10659233508E+02  0.00000000000E+00 0. -1.
</event>
<event>
 7    1  0.2706925E-010  0.4778727E+02  0.7816164E-02  0.1312668E+00
        -11   -1    0    0    0    0  0.00000000000E+00  0.00000000000E+00  0.45593999997E+02  0.45594000000E+02  0.51100000000E-03 0.  1.
         11   -1    0    0    0    0 -0.00000000000E+00 -0.00000000000E+00 -0.45593999997E+02  0.45594000000E+02  0.51100000000E-03 0. -1.
    9900012    2    1    2    0    0  0.40883860923E+02 -0.10484590969E+02  0.10109726748E+02  0.47787270667E+02  0.19999998277E+02 0.  0.
         12    1    1    2    0    0 -0.40883860923E+02  0.10484590969E+02 -0.10109726748E+02  0.43400729333E+02  0.00000000000E+00 0. -1.
         11    1    3    3    0    0  0.11817047483E+01  0.27235329453E+01  0.31509341008E+01  0.43292544145E+01  0.51100000000E-03 0. -1.
        -11    1    3    3    0    0  0.35029881369E+02 -0.85266300705E+01  0.74903800178E+01  0.36822571911E+02  0.51100000000E-03 0.  1.
         12    1    3    3    0    0  0.46722748054E+01 -0.46814938438E+01 -0.53158737065E+00  0.66354443408E+01  0.00000000000E+00 0. -1.
</event>
<event>
 7    1  0.2706925E-010  0.4778727E+02  0.7816164E-02  0.1312668E+00
        -11   -1    0    0    0    0  0.00000000000E+00  0.00000000000E+00  0.45593999997E+02  0.45594000000E+02  0.51100000000E-03 0.  1.
         11   -1    0    0    0    0 -0.00000000000E+00 -0.00000000000E+00 -0.45593999997E+02  0.45594000000E+02  0.51100000000E-03 0. -1.
    9900012    2    1    2    0    0 -0.25165548865E+02  0.34842626876E+02  0.60257691886E+01  0.47787269688E+02  0.19999993814E+02 0.  0.
         12    1    1    2    0    0  0.25165548865E+02 -0.34842626876E+02 -0.60257691886E+01  0.43400730312E+02  0.00000000000E+00 0. -1.
         11    1    3    3    0    0  0.30565625125E+01  0.53970743354E+01  0.27641035727E+01  0.67905268276E+01  0.51100000000E-03 0. -1.
        -11    1    3    3    0    0 -0.18636265614E+02  0.20988679359E+02  0.17202727607E+01  0.28121066763E+02  0.51100000000E-03 0.  1.
         12    1    3    3    0    0 -0.95858457639E+01  0.84568731820E+01  0.15413928552E+01  0.12875676097E+02  0.00000000000E+00 0. -1.
</event>
<event>
 7    1  0.2706925E-010  0.4778727E+02  0.7816164E-02  0.1312668E+00
        -11   -1    0    0    0    0  0.00000000000E+00  0.00000000000E+00  0.45593999997E+02  0.45594000000E+02  0.51100000000E-03 0.  1.
         11   -1    0    0    0    0 -0.00000000000E+00 -0.00000000000E+00 -0.45593999997E+02  0.45594000000E+02  0.51100000000E-03 0. -1.
    9900012    2    1    2    0    0  0.37524217050E+02  0.21784976203E+02 -0.98552623993E+00  0.47787270567E+02  0.19999997822E+02 0.  0.
         12    1    1    2    0    0 -0.37524217050E+02 -0.21784976203E+02  0.98552623993E+00  0.43400729433E+02  0.00000000000E+00 0. -1.
         11    1    3    3    0    0  0.74926432200E+01 -0.24997732110E+01 -0.37698271185E+01  0.87521520378E+01  0.51100000000E-03 0. -1.
        -11    1    3    3    0    0  0.19914731141E+02  0.17083717283E+02 -0.29932644398E+00  0.26240036379E+02  0.51100000000E-03 0.  1.
         12    1    3    3    0    0  0.10116842689E+02  0.72010321311E+01  0.30836273226E+01  0.12795082150E+02  0.00000000000E+00 0. -1.
</event>
<event>
 7    1  0.2706925E-010  0.4778727E+02  0.7816164E-02  0.1312668E+00
        -11   -1    0    0    0    0  0.00000000000E+00  0.00000000000E+00  0.45593999997E+02  0.45594000000E+02  0.51100000000E-03 0.  1.
         11   -1    0    0    0    0 -0.00000000000E+00 -0.00000000000E+00 -0.45593999997E+02  0.45594000000E+02  0.51100000000E-03 0. -1.
    9900012    2    1    2    0    0 -0.17103635699E+02  0.15747327677E+02  0.36648474886E+02  0.47787269654E+02  0.19999993660E+02 0.  0.
         12    1    1    2    0    0  0.17103635699E+02 -0.15747327677E+02 -0.36648474886E+02  0.43400730346E+02  0.00000000000E+00 0. -1.
         11    1    3    3    0    0 -0.10320789502E+02 -0.14383269296E+01  0.11251550944E+02  0.15335738626E+02  0.51100000000E-03 0. -1.
        -11    1    3    3    0    0 -0.83350134924E+01  0.13226304391E+02  0.22099541605E+02  0.27070229352E+02  0.51100000000E-03 0.  1.
         12    1    3    3    0    0  0.15521672956E+01  0.39593502161E+01  0.32973823374E+01  0.53813016758E+01  0.00000000000E+00 0. -1.
</event>
<event>
 7    1  0.2706925E-010  0.4778727E+02  0.7816164E-02  0.1312668E+00
        -11   -1    0    0    0    0  0.00000000000E+00  0.00000000000E+00  0.45593999997E+02  0.45594000000E+02  0.51100000000E-03 0.  1.
         11   -1    0    0    0    0 -0.00000000000E+00 -0.00000000000E+00 -0.45593999997E+02  0.45594000000E+02  0.51100000000E-03 0. -1.
    9900012    2    1    2    0    0 -0.13619059107E+02  0.91453787184E+01  0.40180924699E+02  0.47787269217E+02  0.19999991668E+02 0.  0.
         12    1    1    2    0    0  0.13619059107E+02 -0.91453787184E+01 -0.40180924699E+02  0.43400730783E+02  0.00000000000E+00 0. -1.
         11    1    3    3    0    0 -0.62008351606E+01 -0.50316353426E+01  0.79472424449E+01  0.11266160555E+02  0.51100000000E-03 0. -1.
        -11    1    3    3    0    0 -0.85497452568E+01  0.12526058022E+02  0.28648698889E+02  0.32415246750E+02  0.51100000000E-03 0.  1.
         12    1    3    3    0    0  0.11315213108E+01  0.16509560390E+01  0.35849833644E+01  0.41058619123E+01  0.00000000000E+00 0. -1.
</event>
<event>
 7    1  0.2706925E-010  0.4778728E+02  0.7816164E-02  0.1312668E+00
        -11   -1    0    0    0    0  0.00000000000E+00  0.00000000000E+00  0.45593999997E+02  0.45594000000E+02  0.51100000000E-03 0.  1.
         11   -1    0    0    0    0 -0.00000000000E+00 -0.00000000000E+00 -0.45593999997E+02  0.45594000000E+02  0.51100000000E-03 0. -1.
    9900012    2    1    2    0    0  0.16890934019E+02  0.10492584813E+02  0.38577512969E+02  0.47787280018E+02  0.20000040915E+02 0.  0.
         12    1    1    2    0    0 -0.16890934019E+02 -0.10492584813E+02 -0.38577512969E+02  0.43400719982E+02  0.00000000000E+00 0. -1.
         11    1    3    3    0    0  0.10565663023E+02  0.70086040168E+01  0.16643093643E+02  0.20922388288E+02  0.51100000000E-03 0. -1.
        -11    1    3    3    0    0 -0.34901306259E+01  0.44247649228E+01  0.85599216924E+01  0.10248503113E+02  0.51100000000E-03 0.  1.
        -12    1    3    3    0    0  0.98154016211E+01 -0.94078412694E+00  0.13374497633E+02  0.16616388618E+02  0.00000000000E+00 0.  1.
</event>
<event>
 7    1  0.2706925E-010  0.4778727E+02  0.7816164E-02  0.1312668E+00
        -11   -1    0    0    0    0  0.00000000000E+00  0.00000000000E+00  0.45593999997E+02  0.45594000000E+02  0.51100000000E-03 0. -1.
         11   -1    0    0    0    0 -0.00000000000E+00 -0.00000000000E+00 -0.45593999997E+02  0.45594000000E+02  0.51100000000E-03 0.  1.
    9900012    2    1    2    0    0 -0.41507227435E+02 -0.12585617259E+02  0.15412351286E+01  0.47787273084E+02  0.20000009301E+02 0.  0.
         12    1    1    2    0    0  0.41507227435E+02  0.12585617259E+02 -0.15412351286E+01  0.43400726916E+02  0.00000000000E+00 0. -1.
         11    1    3    3    0    0 -0.45335961701E+01 -0.36878043079E+01 -0.40916964759E+01  0.71340994638E+01  0.51100000000E-03 0. -1.
        -11    1    3    3    0    0 -0.37221268476E+02 -0.64230845878E+01  0.53946078503E+01  0.38154693509E+02  0.51100000000E-03 0.  1.
        -12    1    3    3    0    0  0.24763721205E+00 -0.24747283628E+01  0.23832375415E+00  0.24984801120E+01  0.00000000000E+00 0.  1.
</event>
<event>
 7    1  0.2706925E-010  0.4778727E+02  0.7816164E-02  0.1312668E+00
        -11   -1    0    0    0    0  0.00000000000E+00  0.00000000000E+00  0.45593999997E+02  0.45594000000E+02  0.51100000000E-03 0.  1.
         11   -1    0    0    0    0 -0.00000000000E+00 -0.00000000000E+00 -0.45593999997E+02  0.45594000000E+02  0.51100000000E-03 0. -1.
    9900012    2    1    2    0    0  0.11846984966E+02  0.36982539516E+02  0.19379486347E+02  0.47787265295E+02  0.19999973787E+02 0.  0.
         12    1    1    2    0    0 -0.11846984966E+02 -0.36982539516E+02 -0.19379486347E+02  0.43400734705E+02  0.00000000000E+00 0. -1.
         11    1    3    3    0    0  0.11606679092E+02  0.17535710177E+02  0.11666357723E+02  0.24048285463E+02  0.51100000000E-03 0.  1.
        -11    1    3    3    0    0 -0.19397450388E+01  0.14754286779E+02  0.53565197967E+00  0.14890886893E+02  0.51100000000E-03 0. -1.
        -12    1    3    3    0    0  0.21800509131E+01  0.46925425603E+01  0.71774766448E+01  0.88480929386E+01  0.00000000000E+00 0.  1.
</event>
<event>
 7    1  0.2706925E-010  0.4778728E+02  0.7816164E-02  0.1312668E+00
        -11   -1    0    0    0    0  0.00000000000E+00  0.00000000000E+00  0.45593999997E+02  0.45594000000E+02  0.51100000000E-03 0.  1.
         11   -1    0    0    0    0 -0.00000000000E+00 -0.00000000000E+00 -0.45593999997E+02  0.45594000000E+02  0.51100000000E-03 0. -1.
    9900012    2    1    2    0    0  0.13624054374E+02  0.24801100047E+02  0.32907648396E+02  0.47787277148E+02  0.20000027829E+02 0.  0.
         12    1    1    2    0    0 -0.13624054374E+02 -0.24801100047E+02 -0.32907648396E+02  0.43400722852E+02  0.00000000000E+00 0. -1.
         11    1    3    3    0    0  0.85231022447E+01  0.15612827236E+02  0.28229138095E+02  0.33365968950E+02  0.51100000000E-03 0. -1.
        -11    1    3    3    0    0  0.35839836170E+00  0.18291956158E+01  0.53257717871E+01  0.56425394438E+01  0.51100000000E-03 0.  1.
         12    1    3    3    0    0  0.47425537673E+01  0.73590771954E+01 -0.64726148568E+00  0.87787687539E+01  0.00000000000E+00 0. -1.
</event>
<event>
 7    1  0.2706925E-010  0.4778727E+02  0.7816164E-02  0.1312668E+00
        -11   -1    0    0    0    0  0.00000000000E+00  0.00000000000E+00  0.45593999997E+02  0.45594000000E+02  0.51100000000E-03 0. -1.
         11   -1    0    0    0    0 -0.00000000000E+00 -0.00000000000E+00 -0.45593999997E+02  0.45594000000E+02  0.51100000000E-03 0.  1.
    9900012    2    1    2    0    0  0.12465389263E+02 -0.38664112148E+02  0.15274939999E+02  0.47787270863E+02  0.19999999172E+02 0.  0.
         12    1    1    2    0    0 -0.12465389263E+02  0.38664112148E+02 -0.15274939999E+02  0.43400729137E+02  0.00000000000E+00 0. -1.
         11    1    3    3    0    0  0.85980533412E+01 -0.50654669295E+01  0.62025478154E+00  0.99985095253E+01  0.51100000000E-03 0. -1.
        -11    1    3    3    0    0  0.51339245280E+01 -0.10616732525E+02  0.43351839835E+01  0.12564474163E+02  0.51100000000E-03 0.  1.
         12    1    3    3    0    0 -0.12665886059E+01 -0.22981912693E+02  0.10319501234E+02  0.25224287174E+02  0.00000000000E+00 0. -1.
</event>
<event>
 7    1  0.2706925E-010  0.4778727E+02  0.7816164E-02  0.1312668E+00
        -11   -1    0    0    0    0  0.00000000000E+00  0.00000000000E+00  0.45593999997E+02  0.45594000000E+02  0.51100000000E-03 0.  1.
         11   -1    0    0    0    0 -0.00000000000E+00 -0.00000000000E+00 -0.45593999997E+02  0.45594000000E+02  0.51100000000E-03 0. -1.
    9900012    2    1    2    0    0 -0.17014355849E+02 -0.32097345727E+02  0.23746486839E+02  0.47787267922E+02  0.19999985765E+02 0.  0.
         12    1    1    2    0    0  0.17014355849E+02  0.32097345727E+02 -0.23746486839E+02  0.43400732078E+02  0.00000000000E+00 0. -1.
         11    1    3    3    0    0 -0.81043263634E+01 -0.10704193028E+01  0.82294225318E+01  0.11599538730E+02  0.51100000000E-03 0. -1.
        -11    1    3    3    0    0 -0.41334918120E+01 -0.21893224805E+02  0.11937873761E+02  0.25276706215E+02  0.51100000000E-03 0.  1.
         12    1    3    3    0    0 -0.47765376737E+01 -0.91337016198E+01  0.35791905463E+01  0.10911022977E+02  0.00000000000E+00 0. -1.
</event>
<event>
 7    1  0.2706925E-010  0.4778727E+02  0.7816164E-02  0.1312668E+00
        -11   -1    0    0    0    0  0.00000000000E+00  0.00000000000E+00  0.45593999997E+02  0.45594000000E+02  0.51100000000E-03 0. -1.
         11   -1    0    0    0    0 -0.00000000000E+00 -0.00000000000E+00 -0.45593999997E+02  0.45594000000E+02  0.51100000000E-03 0.  1.
    9900012    2    1    2    0    0 -0.53499684959E+01 -0.32360271984E+02 -0.28422074937E+02  0.47787266025E+02  0.19999977115E+02 0.  0.
         12    1    1    2    0    0  0.53499684959E+01  0.32360271984E+02  0.28422074937E+02  0.43400733975E+02  0.00000000000E+00 0. -1.
         11    1    3    3    0    0 -0.84460130047E+01 -0.73949610418E+01 -0.10167771342E+02  0.15146093846E+02  0.51100000000E-03 0. -1.
        -11    1    3    3    0    0  0.67109254913E+00 -0.19828963236E+02 -0.18255584495E+02  0.26961166773E+02  0.51100000000E-03 0.  1.
         12    1    3    3    0    0  0.24249519597E+01 -0.51363477063E+01  0.12808998857E-02  0.56800054056E+01  0.00000000000E+00 0. -1.
</event>
<event>
 7    1  0.2706925E-010  0.4778727E+02  0.7816164E-02  0.1312668E+00
        -11   -1    0    0    0    0  0.00000000000E+00  0.00000000000E+00  0.45593999997E+02  0.45594000000E+02  0.51100000000E-03 0. -1.
         11   -1    0    0    0    0 -0.00000000000E+00 -0.00000000000E+00 -0.45593999997E+02  0.45594000000E+02  0.51100000000E-03 0.  1.
    9900012    2    1    2    0    0  0.36930884146E+02  0.18425828675E+02 -0.13424666528E+02  0.47787273767E+02  0.20000012414E+02 0.  0.
         12    1    1    2    0    0 -0.36930884146E+02 -0.18425828675E+02  0.13424666528E+02  0.43400726233E+02  0.00000000000E+00 0. -1.
         11    1    3    3    0    0  0.85511564878E+01  0.21784156207E+01 -0.10144453634E+02  0.13445360229E+02  0.51100000000E-03 0.  1.
        -11    1    3    3    0    0  0.14986413119E+02  0.13929810956E+02 -0.34453288927E+01  0.20748554236E+02  0.51100000000E-03 0. -1.
         12    1    3    3    0    0  0.13393314539E+02  0.23176020977E+01  0.16511599822E+00  0.13593359302E+02  0.00000000000E+00 0. -1.
</event>
<event>
 7    1  0.2706925E-010  0.4778727E+02  0.7816164E-02  0.1312668E+00
        -11   -1    0    0    0    0  0.00000000000E+00  0.00000000000E+00  0.45593999997E+02  0.45594000000E+02  0.51100000000E-03 0.  1.
         11   -1    0    0    0    0 -0.00000000000E+00 -0.00000000000E+00 -0.45593999997E+02  0.45594000000E+02  0.51100000000E-03 0. -1.
    9900012    2    1    2    0    0 -0.25289635218E+02 -0.32805091929E+02 -0.12956987520E+02  0.47787271532E+02  0.20000002225E+02 0.  0.
         12    1    1    2    0    0  0.25289635218E+02  0.32805091929E+02  0.12956987520E+02  0.43400728468E+02  0.00000000000E+00 0. -1.
         11    1    3    3    0    0 -0.85632347233E+01 -0.12027710304E+02 -0.11612364041E+02  0.18784083767E+02  0.51100000000E-03 0. -1.
        -11    1    3    3    0    0 -0.38301178329E+01 -0.64977706212E+01  0.46367034031E+01  0.88538039491E+01  0.51100000000E-03 0.  1.
        -12    1    3    3    0    0 -0.12896282662E+02 -0.14279611003E+02 -0.59813268824E+01  0.20149383816E+02  0.00000000000E+00 0.  1.
</event>
<event>
 7    1  0.2706925E-010  0.4778727E+02  0.7816164E-02  0.1312668E+00
        -11   -1    0    0    0    0  0.00000000000E+00  0.00000000000E+00  0.45593999997E+02  0.45594000000E+02  0.51100000000E-03 0. -1.
         11   -1    0    0    0    0 -0.00000000000E+00 -0.00000000000E+00 -0.45593999997E+02  0.45594000000E+02  0.51100000000E-03 0.  1.
    9900012    2    1    2    0    0 -0.43254363190E+02 -0.65805674129E+00 -0.35000208489E+01  0.47787272822E+02  0.20000008105E+02 0.  0.
         12    1    1    2    0    0  0.43254363190E+02  0.65805674129E+00  0.35000208489E+01  0.43400727178E+02  0.00000000000E+00 0. -1.
         11    1    3    3    0    0 -0.17857141943E+02 -0.29280655107E+01  0.13604462909E+01  0.18146677392E+02  0.51100000000E-03 0. -1.
        -11    1    3    3    0    0 -0.36987015211E+01  0.42480362532E+01 -0.54589685560E+01  0.78438857021E+01  0.51100000000E-03 0.  1.
        -12    1    3    3    0    0 -0.21698519725E+02 -0.19780274838E+01  0.59850141618E+00  0.21796709728E+02  0.00000000000E+00 0.  1.
</event>
<event>
 7    1  0.2706925E-010  0.4778727E+02  0.7816164E-02  0.1312668E+00
        -11   -1    0    0    0    0  0.00000000000E+00  0.00000000000E+00  0.45593999997E+02  0.45594000000E+02  0.51100000000E-03 0.  1.
         11   -1    0    0    0    0 -0.00000000000E+00 -0.00000000000E+00 -0.45593999997E+02  0.45594000000E+02  0.51100000000E-03 0. -1.
    9900012    2    1    2    0    0 -0.22222747275E+02 -0.19229427655E+01  0.37230029541E+02  0.47787270686E+02  0.19999998365E+02 0.  0.
         12    1    1    2    0    0  0.22222747275E+02  0.19229427655E+01 -0.37230029541E+02  0.43400729314E+02  0.00000000000E+00 0. -1.
         11    1    3    3    0    0 -0.58429881850E+01 -0.84696835077E+01  0.13686791818E+02  0.17123209985E+02  0.51100000000E-03 0. -1.
        -11    1    3    3    0    0 -0.60554853215E+01  0.11611724680E+01  0.25800423751E+01  0.66838494071E+01  0.51100000000E-03 0.  1.
         12    1    3    3    0    0 -0.10324273769E+02  0.53855682742E+01  0.20963195348E+02  0.23980211294E+02  0.00000000000E+00 0. -1.
</event>
<event>
 7    1  0.2706925E-010  0.4778727E+02  0.7816164E-02  0.1312668E+00
        -11   -1    0    0    0    0  0.00000000000E+00  0.00000000000E+00  0.45593999997E+02  0.45594000000E+02  0.51100000000E-03 0.  1.
         11   -1    0    0    0    0 -0.00000000000E+00 -0.00000000000E+00 -0.45593999997E+02  0.45594000000E+02  0.51100000000E-03 0. -1.
    9900012    2    1    2    0    0  0.22715739043E+02 -0.17233001079E+02  0.32720665310E+02  0.47787273453E+02  0.20000010984E+02 0.  0.
         12    1    1    2    0    0 -0.22715739043E+02  0.17233001079E+02 -0.32720665310E+02  0.43400726547E+02  0.00000000000E+00 0. -1.
         11    1    3    3    0    0  0.11237172759E+02 -0.98790698302E+01  0.71956692095E+01  0.16602642198E+02  0.51100000000E-03 0. -1.
        -11    1    3    3    0    0  0.11878558595E+02 -0.14209731736E+01  0.17413460824E+02  0.21126948127E+02  0.51100000000E-03 0.  1.
        -12    1    3    3    0    0 -0.39999231018E+00 -0.59329580754E+01  0.81115352765E+01  0.10057683129E+02  0.00000000000E+00 0.  1.
</event>
<event>
 7    1  0.2706925E-010  0.4778727E+02  0.7816164E-02  0.1312668E+00
        -11   -1    0    0    0    0  0.00000000000E+00  0.00000000000E+00  0.45593999997E+02  0.45594000000E+02  0.51100000000E-03 0.  1.
         11   -1    0    0    0    0 -0.00000000000E+00 -0.00000000000E+00 -0.45593999997E+02  0.45594000000E+02  0.51100000000E-03 0. -1.
    9900012    2    1    2    0    0 -0.10186878548E+02 -0.20921500763E+02  0.36635251910E+02  0.47787269923E+02  0.19999994885E+02 0.  0.
         12    1    1    2    0    0  0.10186878548E+02  0.20921500763E+02 -0.36635251910E+02  0.43400730077E+02  0.00000000000E+00 0. -1.
         11    1    3    3    0    0 -0.45157552100E+01 -0.77624749878E+01  0.18410461817E+01  0.91671977374E+01  0.51100000000E-03 0. -1.
        -11    1    3    3    0    0  0.96823461885E+00 -0.30621571454E+01  0.15686126741E+02  0.16011522634E+02  0.51100000000E-03 0.  1.
        -12    1    3    3    0    0 -0.66393579570E+01 -0.10096868630E+02  0.19108078987E+02  0.22608549551E+02  0.00000000000E+00 0.  1.
</event>
<event>
 7    1  0.2706925E-010  0.4778727E+02  0.7816164E-02  0.1312668E+00
        -11   -1    0    0    0    0  0.00000000000E+00  0.00000000000E+00  0.45593999997E+02  0.45594000000E+02  0.51100000000E-03 0.  1.
         11   -1    0    0    0    0 -0.00000000000E+00 -0.00000000000E+00 -0.45593999997E+02  0.45594000000E+02  0.51100000000E-03 0. -1.
    9900012    2    1    2    0    0 -0.43510506267E+01 -0.43073904102E+02  0.30545651679E+01  0.47787271613E+02  0.20000002594E+02 0.  0.
         12    1    1    2    0    0  0.43510506267E+01  0.43073904102E+02 -0.30545651679E+01  0.43400728387E+02  0.00000000000E+00 0. -1.
         11    1    3    3    0    0 -0.85088175970E+01 -0.11808834755E+02  0.38180991080E+01  0.15047472753E+02  0.51100000000E-03 0. -1.
        -11    1    3    3    0    0  0.45391831255E+00 -0.34309833521E+01  0.27780017304E+01  0.44379029364E+01  0.51100000000E-03 0.  1.
         12    1    3    3    0    0  0.37038486577E+01 -0.27834085994E+02 -0.35415356706E+01  0.28301895924E+02  0.00000000000E+00 0. -1.
</event>
<event>
 7    1  0.2921056E-010  0.4778727E+02  0.7816164E-02  0.1312668E+00
        -11   -1    0    0    0    0  0.00000000000E+00  0.00000000000E+00  0.45593999997E+02  0.45594000000E+02  0.51100000000E-03 0.  1.
         11   -1    0    0    0    0 -0.00000000000E+00 -0.00000000000E+00 -0.45593999997E+02  0.45594000000E+02  0.51100000000E-03 0. -1.
    9900012    2    1    2    0    0  0.29660803346E+02 -0.16887572730E+02  0.26808018205E+02  0.47787271804E+02  0.20000003464E+02 0.  0.
         12    1    1    2    0    0 -0.29660803346E+02  0.16887572730E+02 -0.26808018205E+02  0.43400728196E+02  0.00000000000E+00 0. -1.
         11    1    3    3    0    0 -0.40049033335E+00 -0.35293074919E+01 -0.76583910356E+00  0.36335813839E+01  0.51100000000E-03 0. -1.
        -11    1    3    3    0    0  0.24735474149E+02 -0.11042249139E+02  0.16689593216E+02  0.31816936832E+02  0.51100000000E-03 0.  1.
        -12    1    3    3    0    0  0.53258195298E+01 -0.23160160995E+01  0.10884264093E+02  0.12336753588E+02  0.00000000000E+00 0.  1.
</event>
<event>
 7    1  0.2706925E-010  0.4778727E+02  0.7816164E-02  0.1312668E+00
        -11   -1    0    0    0    0  0.00000000000E+00  0.00000000000E+00  0.45593999997E+02  0.45594000000E+02  0.51100000000E-03 0. -1.
         11   -1    0    0    0    0 -0.00000000000E+00 -0.00000000000E+00 -0.45593999997E+02  0.45594000000E+02  0.51100000000E-03 0.  1.
    9900012    2    1    2    0    0  0.19627455892E+02  0.19442597328E+02 -0.33471952231E+02  0.47787271874E+02  0.20000003784E+02 0.  0.
         12    1    1    2    0    0 -0.19627455892E+02 -0.19442597328E+02  0.33471952231E+02  0.43400728126E+02  0.00000000000E+00 0. -1.
         11    1    3    3    0    0  0.51190843824E+01  0.57861027143E+01  0.35435620040E+00  0.77336652444E+01  0.51100000000E-03 0. -1.
        -11    1    3    3    0    0  0.70283954309E+01  0.99686914381E+01 -0.25510140654E+02  0.28276145914E+02  0.51100000000E-03 0.  1.
        -12    1    3    3    0    0  0.74799760785E+01  0.36878031758E+01 -0.83161677780E+01  0.11777460716E+02  0.00000000000E+00 0.  1.
</event>
<event>
 7    1  0.2706925E-010  0.4778727E+02  0.7816164E-02  0.1312668E+00
        -11   -1    0    0    0    0  0.00000000000E+00  0.00000000000E+00  0.45593999997E+02  0.45594000000E+02  0.51100000000E-03 0.  1.
         11   -1    0    0    0    0 -0.00000000000E+00 -0.00000000000E+00 -0.45593999997E+02  0.45594000000E+02  0.51100000000E-03 0. -1.
    9900012    2    1    2    0    0 -0.51194092563E+01  0.48617294039E+01  0.42822642977E+02  0.47787268261E+02  0.19999987309E+02 0.  0.
         12    1    1    2    0    0  0.51194092563E+01 -0.48617294039E+01 -0.42822642977E+02  0.43400731739E+02  0.00000000000E+00 0. -1.
         11    1    3    3    0    0  0.21985418987E+01  0.78777257279E+01  0.26667165415E+02  0.27893186635E+02  0.51100000000E-03 0. -1.
        -11    1    3    3    0    0  0.12732928612E+01 -0.25805204796E+01  0.54274634871E+01  0.61431035170E+01  0.51100000000E-03 0.  1.
         12    1    3    3    0    0 -0.85912440161E+01 -0.43547584443E+00  0.10728014075E+02  0.13750978109E+02  0.00000000000E+00 0. -1.
</event>
<event>
 7    1  0.2706925E-010  0.4778730E+02  0.7816164E-02  0.1312668E+00
        -11   -1    0    0    0    0  0.00000000000E+00  0.00000000000E+00  0.45593999997E+02  0.45594000000E+02  0.51100000000E-03 0. -1.
         11   -1    0    0    0    0 -0.00000000000E+00 -0.00000000000E+00 -0.45593999997E+02  0.45594000000E+02  0.51100000000E-03 0.  1.
    9900012    2    1    2    0    0 -0.18659139169E+02 -0.67200879310E+01 -0.38604379748E+02  0.47787295028E+02  0.20000109352E+02 0.  0.
         12    1    1    2    0    0  0.18659139169E+02  0.67200879310E+01  0.38604379748E+02  0.43400704972E+02  0.00000000000E+00 0. -1.
         11    1    3    3    0    0 -0.12850202485E+02 -0.11817942240E+01 -0.31256554680E+02  0.33815625859E+02  0.51100000000E-03 0.  1.
        -11    1    3    3    0    0  0.10001934756E+01 -0.49168260130E+01 -0.35905983030E+01  0.61699239433E+01  0.51100000000E-03 0. -1.
        -12    1    3    3    0    0 -0.68091301589E+01 -0.62146769389E+00 -0.37572267651E+01  0.78017452266E+01  0.00000000000E+00 0.  1.
</event>
<event>
 7    1  0.2706925E-010  0.4778727E+02  0.7816164E-02  0.1312668E+00
        -11   -1    0    0    0    0  0.00000000000E+00  0.00000000000E+00  0.45593999997E+02  0.45594000000E+02  0.51100000000E-03 0. -1.
         11   -1    0    0    0    0 -0.00000000000E+00 -0.00000000000E+00 -0.45593999997E+02  0.45594000000E+02  0.51100000000E-03 0.  1.
    9900012    2    1    2    0    0 -0.32641582197E+02 -0.11033142797E+02 -0.26389774204E+02  0.47787270619E+02  0.19999998058E+02 0.  0.
         12    1    1    2    0    0  0.32641582197E+02  0.11033142797E+02  0.26389774204E+02  0.43400729381E+02  0.00000000000E+00 0. -1.
         11    1    3    3    0    0 -0.10382918995E+02 -0.34525840557E+00 -0.21597280311E+00  0.10390902498E+02  0.51100000000E-03 0. -1.
        -11    1    3    3    0    0 -0.21462459182E+02 -0.12251688356E+02 -0.25517019153E+02  0.35522658803E+02  0.51100000000E-03 0.  1.
         12    1    3    3    0    0 -0.79620402057E+00  0.15638039653E+01 -0.65678224758E+00  0.18737093171E+01  0.00000000000E+00 0. -1.
</event>
<event>
 7    1  0.2706925E-010  0.4778727E+02  0.7816164E-02  0.1312668E+00
        -11   -1    0    0    0    0  0.00000000000E+00  0.00000000000E+00  0.45593999997E+02  0.45594000000E+02  0.51100000000E-03 0. -1.
         11   -1    0    0    0    0 -0.00000000000E+00 -0.00000000000E+00 -0.45593999997E+02  0.45594000000E+02  0.51100000000E-03 0.  1.
    9900012    2    1    2    0    0  0.60976004984E+00 -0.23351089398E+02 -0.36578380111E+02  0.47787273336E+02  0.20000010448E+02 0.  0.
         12    1    1    2    0    0 -0.60976004984E+00  0.23351089398E+02  0.36578380111E+02  0.43400726664E+02  0.00000000000E+00 0. -1.
         11    1    3    3    0    0  0.77961807451E+01 -0.32684090412E+01 -0.76853976112E+01  0.11424896874E+02  0.51100000000E-03 0. -1.
        -11    1    3    3    0    0 -0.60941020232E+01 -0.18013550863E+02 -0.21981836430E+02  0.29065911774E+02  0.51100000000E-03 0.  1.
         12    1    3    3    0    0 -0.10923186720E+01 -0.20691294939E+01 -0.69111460702E+01  0.72964646883E+01  0.00000000000E+00 0. -1.
</event>
<event>
 7    1  0.2706925E-010  0.4778728E+02  0.7816164E-02  0.1312668E+00
        -11   -1    0    0    0    0  0.00000000000E+00  0.00000000000E+00  0.45593999997E+02  0.45594000000E+02  0.51100000000E-03 0.  1.
         11   -1    0    0    0    0 -0.00000000000E+00 -0.00000000000E+00 -0.45593999997E+02  0.45594000000E+02  0.51100000000E-03 0. -1.
    9900012    2    1    2    0    0  0.38310125777E+02 -0.80753304582E+01  0.18728206308E+02  0.47787280991E+02  0.20000045349E+02 0.  0.
         12    1    1    2    0    0 -0.38310125777E+02  0.80753304582E+01 -0.18728206308E+02  0.43400719009E+02  0.00000000000E+00 0. -1.
         11    1    3    3    0    0  0.28789949954E+02 -0.21539505016E+01  0.44728296775E+01  0.29214840864E+02  0.51100000000E-03 0.  1.
        -11    1    3    3    0    0  0.94854668373E+01 -0.46149615905E+01  0.13169651726E+02  0.16873401508E+02  0.51100000000E-03 0. -1.
        -12    1    3    3    0    0  0.34708985512E-01 -0.13064183661E+01  0.10857249041E+01  0.16990386189E+01  0.00000000000E+00 0.  1.
</event>
<event>
 7    1  0.2706925E-010  0.4778727E+02  0.7816164E-02  0.1312668E+00
        -11   -1    0    0    0    0  0.00000000000E+00  0.00000000000E+00  0.45593999997E+02  0.45594000000E+02  0.51100000000E-03 0. -1.
         11   -1    0    0    0    0 -0.00000000000E+00 -0.00000000000E+00 -0.45593999997E+02  0.45594000000E+02  0.51100000000E-03 0.  1.
    9900012    2    1    2    0    0  0.42658912708E+02  0.49906461082E+01  0.62396841076E+01  0.47787273742E+02  0.20000012298E+02 0.  0.
         12    1    1    2    0    0 -0.42658912708E+02 -0.49906461082E+01 -0.62396841076E+01  0.43400726258E+02  0.00000000000E+00 0. -1.
         11    1    3    3    0    0  0.20767125822E+01 -0.31047257600E+01 -0.25612956251E+01  0.45290498710E+01  0.51100000000E-03 0. -1.
        -11    1    3    3    0    0  0.39938474481E+02  0.63008021315E+01  0.86370716458E+01  0.41344659368E+02  0.51100000000E-03 0.  1.
        -12    1    3    3    0    0  0.64372564412E+00  0.17945697366E+01  0.16390808693E+00  0.19135645026E+01  0.00000000000E+00 0.  1.
</event>
<event>
 7    1  0.2706925E-010  0.4778728E+02  0.7816164E-02  0.1312668E+00
        -11   -1    0    0    0    0  0.00000000000E+00  0.00000000000E+00  0.45593999997E+02  0.45594000000E+02  0.51100000000E-03 0.  1.
         11   -1    0    0    0    0 -0.00000000000E+00 -0.00000000000E+00 -0.45593999997E+02  0.45594000000E+02  0.51100000000E-03 0. -1.
    9900012    2    1    2    0    0  0.36060404480E+01  0.21155957838E+02  0.37723266040E+02  0.47787275577E+02  0.20000020665E+02 0.  0.
         12    1    1    2    0    0 -0.36060404480E+01 -0.21155957838E+02 -0.37723266040E+02  0.43400724423E+02  0.00000000000E+00 0. -1.
         11    1    3    3    0    0  0.40841874504E+01  0.96236177514E+00  0.25039542930E+01  0.48863600644E+01  0.51100000000E-03 0. -1.
        -11    1    3    3    0    0 -0.48032246483E+01  0.82207071778E+01  0.24408455050E+02  0.26199688390E+02  0.51100000000E-03 0.  1.
         12    1    3    3    0    0  0.43250776459E+01  0.11972888885E+02  0.10810856696E+02  0.16701227123E+02  0.00000000000E+00 0. -1.
</event>
<event>
 7    1  0.2706925E-010  0.4778728E+02  0.7816164E-02  0.1312668E+00
        -11   -1    0    0    0    0  0.00000000000E+00  0.00000000000E+00  0.45593999997E+02  0.45594000000E+02  0.51100000000E-03 0.  1.
         11   -1    0    0    0    0 -0.00000000000E+00 -0.00000000000E+00 -0.45593999997E+02  0.45594000000E+02  0.51100000000E-03 0. -1.
    9900012    2    1    2    0    0  0.26557219032E+02 -0.25756919509E+02  0.22691794347E+02  0.47787282080E+02  0.20000050315E+02 0.  0.
         12    1    1    2    0    0 -0.26557219032E+02  0.25756919509E+02 -0.22691794347E+02  0.43400717920E+02  0.00000000000E+00 0. -1.
         11    1    3    3    0    0  0.14476899220E+02 -0.31017813998E+01  0.73838004580E+01  0.16544551017E+02  0.51100000000E-03 0. -1.
        -11    1    3    3    0    0  0.11702471561E+02 -0.22119864324E+02  0.11787726094E+02  0.27662008696E+02  0.51100000000E-03 0.  1.
        -12    1    3    3    0    0  0.37784825101E+00 -0.53527378476E+00  0.35202677946E+01  0.35807223672E+01  0.00000000000E+00 0.  1.
</event>
<event>
 7    1  0.2706925E-010  0.4778727E+02  0.7816164E-02  0.1312668E+00
        -11   -1    0    0    0    0  0.00000000000E+00  0.00000000000E+00  0.45593999997E+02  0.45594000000E+02  0.51100000000E-03 0. -1.
         11   -1    0    0    0    0 -0.00000000000E+00 -0.00000000000E+00 -0.45593999997E+02  0.45594000000E+02  0.51100000000E-03 0.  1.
    9900012    2    1    2    0    0  0.40224152822E+02 -0.92068899271E+01  0.13448940287E+02  0.47787270891E+02  0.19999999299E+02 0.  0.
         12    1    1    2    0    0 -0.40224152822E+02  0.92068899271E+01 -0.13448940287E+02  0.43400729109E+02  0.00000000000E+00 0. -1.
         11    1    3    3    0    0  0.83243743413E+00 -0.57620848660E+01  0.17941425346E+00  0.58246685588E+01  0.51100000000E-03 0. -1.
        -11    1    3    3    0    0  0.30264870934E+02 -0.11158476070E+01  0.88091149239E+01  0.31540577587E+02  0.51100000000E-03 0.  1.
         12    1    3    3    0    0  0.91268444546E+01 -0.23289574541E+01  0.44604111092E+01  0.10422024745E+02  0.00000000000E+00 0. -1.
</event>
<event>
 7    1  0.2706925E-010  0.4778727E+02  0.7816164E-02  0.1312668E+00
        -11   -1    0    0    0    0  0.00000000000E+00  0.00000000000E+00  0.45593999997E+02  0.45594000000E+02  0.51100000000E-03 0.  1.
         11   -1    0    0    0    0 -0.00000000000E+00 -0.00000000000E+00 -0.45593999997E+02  0.45594000000E+02  0.51100000000E-03 0. -1.
    9900012    2    1    2    0    0 -0.13464849737E+02  0.39563418887E+02  0.11707133038E+02  0.47787271245E+02  0.20000000914E+02 0.  0.
         12    1    1    2    0    0  0.13464849737E+02 -0.39563418887E+02 -0.11707133038E+02  0.43400728755E+02  0.00000000000E+00 0. -1.
         11    1    3    3    0    0 -0.13206637141E+01  0.17859519692E+01 -0.10145511933E+01  0.24419441982E+01  0.51100000000E-03 0. -1.
        -11    1    3    3    0    0 -0.91636635900E+01  0.28228027116E+02  0.67409288190E+00  0.29685832424E+02  0.51100000000E-03 0.  1.
        -12    1    3    3    0    0 -0.29805224327E+01  0.95494398025E+01  0.12047591349E+02  0.15659494623E+02  0.00000000000E+00 0.  1.
</event>
<event>
 7    1  0.2706925E-010  0.4778727E+02  0.7816164E-02  0.1312668E+00
        -11   -1    0    0    0    0  0.00000000000E+00  0.00000000000E+00  0.45593999997E+02  0.45594000000E+02  0.51100000000E-03 0.  1.
         11   -1    0    0    0    0 -0.00000000000E+00 -0.00000000000E+00 -0.45593999997E+02  0.45594000000E+02  0.51100000000E-03 0. -1.
    9900012    2    1    2    0    0  0.11402424181E+02  0.13793442289E+01  0.41853381895E+02  0.47787269088E+02  0.19999991079E+02 0.  0.
         12    1    1    2    0    0 -0.11402424181E+02 -0.13793442289E+01 -0.41853381895E+02  0.43400730912E+02  0.00000000000E+00 0. -1.
         11    1    3    3    0    0  0.35894454851E+01  0.41813971849E+01  0.13058558478E+01  0.56633436294E+01  0.51100000000E-03 0. -1.
        -11    1    3    3    0    0  0.22035573704E+01 -0.22061567578E+01  0.30009607791E+02  0.30171167574E+02  0.51100000000E-03 0.  1.
         12    1    3    3    0    0  0.56094213255E+01 -0.59589619828E+00  0.10537918256E+02  0.11952757885E+02  0.00000000000E+00 0. -1.
</event>
<event>
 7    1  0.2706925E-010  0.4778727E+02  0.7816164E-02  0.1312668E+00
        -11   -1    0    0    0    0  0.00000000000E+00  0.00000000000E+00  0.45593999997E+02  0.45594000000E+02  0.51100000000E-03 0.  1.
         11   -1    0    0    0    0 -0.00000000000E+00 -0.00000000000E+00 -0.45593999997E+02  0.45594000000E+02  0.51100000000E-03 0. -1.
    9900012    2    1    2    0    0  0.12192119261E+02 -0.33102524408E+02  0.25282378109E+02  0.47787268012E+02  0.19999986174E+02 0.  0.
         12    1    1    2    0    0 -0.12192119261E+02  0.33102524408E+02 -0.25282378109E+02  0.43400731988E+02  0.00000000000E+00 0. -1.
         11    1    3    3    0    0  0.10414016050E+01 -0.11855754388E+01  0.32279913729E+01  0.35930537135E+01  0.51100000000E-03 0. -1.
        -11    1    3    3    0    0  0.25354152199E+01 -0.99990017694E+01  0.17340435278E+02  0.20176696028E+02  0.51100000000E-03 0.  1.
        -12    1    3    3    0    0  0.86153024360E+01 -0.21917947200E+02  0.47139514579E+01  0.24017518270E+02  0.00000000000E+00 0.  1.
</event>
<event>
 7    1  0.2706925E-010  0.4778728E+02  0.7816164E-02  0.1312668E+00
        -11   -1    0    0    0    0  0.00000000000E+00  0.00000000000E+00  0.45593999997E+02  0.45594000000E+02  0.51100000000E-03 0.  1.
         11   -1    0    0    0    0 -0.00000000000E+00 -0.00000000000E+00 -0.45593999997E+02  0.45594000000E+02  0.51100000000E-03 0. -1.
    9900012    2    1    2    0    0  0.19886986417E+02 -0.14639039826E+02  0.35690744087E+02  0.47787275015E+02  0.20000018101E+02 0.  0.
         12    1    1    2    0    0 -0.19886986417E+02  0.14639039826E+02 -0.35690744087E+02  0.43400724985E+02  0.00000000000E+00 0. -1.
         11    1    3    3    0    0  0.37080481596E+01  0.42459748819E+01  0.26554397995E+01  0.62313148406E+01  0.51100000000E-03 0. -1.
        -11    1    3    3    0    0  0.16428945879E+02 -0.18420933177E+02  0.32381242921E+02  0.40715917467E+02  0.51100000000E-03 0.  1.
         12    1    3    3    0    0 -0.25000762186E+00 -0.46408153115E+00  0.65406136697E+00  0.84004270743E+00  0.00000000000E+00 0. -1.
</event>
<event>
 7    1  0.2706925E-010  0.4778727E+02  0.7816164E-02  0.1312668E+00
        -11   -1    0    0    0    0  0.00000000000E+00  0.00000000000E+00  0.45593999997E+02  0.45594000000E+02  0.51100000000E-03 0.  1.
         11   -1    0    0    0    0 -0.00000000000E+00 -0.00000000000E+00 -0.45593999997E+02  0.45594000000E+02  0.51100000000E-03 0. -1.
    9900012    2    1    2    0    0  0.35162185468E+02  0.16180968674E+02  0.19632118669E+02  0.47787272845E+02  0.20000008210E+02 0.  0.
         12    1    1    2    0    0 -0.35162185468E+02 -0.16180968674E+02 -0.19632118669E+02  0.43400727155E+02  0.00000000000E+00 0. -1.
         11    1    3    3    0    0 -0.78166595578E+00  0.43798932386E+01  0.25828473776E+01  0.51444695825E+01  0.51100000000E-03 0. -1.
        -11    1    3    3    0    0  0.31874348578E+02  0.13544138353E+02  0.15606138086E+02  0.37986436095E+02  0.51100000000E-03 0.  1.
        -12    1    3    3    0    0  0.40695028467E+01 -0.17430629172E+01  0.14431332056E+01  0.46563671678E+01  0.00000000000E+00 0.  1.
</event>
<event>
 7    1  0.2706925E-010  0.4778727E+02  0.7816164E-02  0.1312668E+00
        -11   -1    0    0    0    0  0.00000000000E+00  0.00000000000E+00  0.45593999997E+02  0.45594000000E+02  0.51100000000E-03 0.  1.
         11   -1    0    0    0    0 -0.00000000000E+00 -0.00000000000E+00 -0.45593999997E+02  0.45594000000E+02  0.51100000000E-03 0. -1.
    9900012    2    1    2    0    0 -0.11198795375E+02  0.26869075536E+02  0.32191039633E+02  0.47787271081E+02  0.20000000169E+02 0.  0.
         12    1    1    2    0    0  0.11198795375E+02 -0.26869075536E+02 -0.32191039633E+02  0.43400728919E+02  0.00000000000E+00 0. -1.
         11    1    3    3    0    0  0.15813562976E+01  0.84658392896E+01  0.13976654037E+02  0.16417002801E+02  0.51100000000E-03 0. -1.
        -11    1    3    3    0    0 -0.10175129259E+02  0.40490891358E+01  0.79443535865E+01  0.13529269471E+02  0.51100000000E-03 0.  1.
        -12    1    3    3    0    0 -0.26050224136E+01  0.14354147111E+02  0.10270032009E+02  0.17840998810E+02  0.00000000000E+00 0.  1.
</event>
<event>
 7    1  0.2706925E-010  0.4778727E+02  0.7816164E-02  0.1312668E+00
        -11   -1    0    0    0    0  0.00000000000E+00  0.00000000000E+00  0.45593999997E+02  0.45594000000E+02  0.51100000000E-03 0.  1.
         11   -1    0    0    0    0 -0.00000000000E+00 -0.00000000000E+00 -0.45593999997E+02  0.45594000000E+02  0.51100000000E-03 0. -1.
    9900012    2    1    2    0    0  0.77698163917E+01 -0.19409585240E+02  0.38033159532E+02  0.47787271090E+02  0.20000000206E+02 0.  0.
         12    1    1    2    0    0 -0.77698163917E+01  0.19409585240E+02 -0.38033159532E+02  0.43400728910E+02  0.00000000000E+00 0. -1.
         11    1    3    3    0    0  0.88149745618E+01 -0.11758953627E+02  0.18932242298E+02  0.23966780460E+02  0.51100000000E-03 0. -1.
        -11    1    3    3    0    0 -0.56629114234E+01 -0.62272861991E+01  0.75795627441E+01  0.11326845582E+02  0.51100000000E-03 0.  1.
         12    1    3    3    0    0  0.46177532534E+01 -0.14233454133E+01  0.11521354490E+02  0.12493645047E+02  0.00000000000E+00 0. -1.
</event>
<event>
 7    1  0.2706925E-010  0.4778727E+02  0.7816164E-02  0.1312668E+00
        -11   -1    0    0    0    0  0.00000000000E+00  0.00000000000E+00  0.45593999997E+02  0.45594000000E+02  0.51100000000E-03 0. -1.
         11   -1    0    0    0    0 -0.00000000000E+00 -0.00000000000E+00 -0.45593999997E+02  0.45594000000E+02  0.51100000000E-03 0.  1.
    9900012    2    1    2    0    0  0.81136070960E+01 -0.37385815521E+02 -0.20496182603E+02  0.47787270472E+02  0.19999997389E+02 0.  0.
         12    1    1    2    0    0 -0.81136070960E+01  0.37385815521E+02  0.20496182603E+02  0.43400729528E+02  0.00000000000E+00 0. -1.
         11    1    3    3    0    0  0.10282319237E+02 -0.28925260741E+02 -0.13143449429E+02  0.33393817706E+02  0.51100000000E-03 0.  1.
        -11    1    3    3    0    0 -0.15467114886E+01  0.39013314197E+00  0.12564942968E+01  0.20305906718E+01  0.51100000000E-03 0. -1.
        -12    1    3    3    0    0 -0.62200065278E+00 -0.88506879225E+01 -0.86092274708E+01  0.12362862094E+02  0.00000000000E+00 0.  1.
</event>
<event>
 7    1  0.2706925E-010  0.4778727E+02  0.7816164E-02  0.1312668E+00
        -11   -1    0    0    0    0  0.00000000000E+00  0.00000000000E+00  0.45593999997E+02  0.45594000000E+02  0.51100000000E-03 0.  1.
         11   -1    0    0    0    0 -0.00000000000E+00 -0.00000000000E+00 -0.45593999997E+02  0.45594000000E+02  0.51100000000E-03 0. -1.
    9900012    2    1    2    0    0 -0.27565452717E+01 -0.43298635160E+02 -0.11192992344E+01  0.47787272134E+02  0.20000004968E+02 0.  0.
         12    1    1    2    0    0  0.27565452717E+01  0.43298635160E+02  0.11192992344E+01  0.43400727866E+02  0.00000000000E+00 0. -1.
         11    1    3    3    0    0 -0.10804492853E+01 -0.92760044387E+01  0.46106014016E+01  0.10414858355E+02  0.51100000000E-03 0. -1.
        -11    1    3    3    0    0 -0.33975756359E+01 -0.70810879239E+00 -0.13638360905E+01  0.37289391798E+01  0.51100000000E-03 0.  1.
        -12    1    3    3    0    0  0.17214796495E+01 -0.33314521929E+02 -0.43660645455E+01  0.33643474600E+02  0.00000000000E+00 0.  1.
</event>
<event>
 7    1  0.2706925E-010  0.4778727E+02  0.7816164E-02  0.1312668E+00
        -11   -1    0    0    0    0  0.00000000000E+00  0.00000000000E+00  0.45593999997E+02  0.45594000000E+02  0.51100000000E-03 0. -1.
         11   -1    0    0    0    0 -0.00000000000E+00 -0.00000000000E+00 -0.45593999997E+02  0.45594000000E+02  0.51100000000E-03 0.  1.
    9900012    2    1    2    0    0 -0.12978584662E+02 -0.38978720487E+02  0.13994239420E+02  0.47787273651E+02  0.20000011885E+02 0.  0.
         12    1    1    2    0    0  0.12978584662E+02  0.38978720487E+02 -0.13994239420E+02  0.43400726349E+02  0.00000000000E+00 0. -1.
         11    1    3    3    0    0 -0.49317944659E+01 -0.24505819092E+02  0.14219624681E+02  0.28758572502E+02  0.51100000000E-03 0. -1.
        -11    1    3    3    0    0 -0.25192670066E+01 -0.23987469691E+01 -0.39240827925E+01  0.52439602683E+01  0.51100000000E-03 0.  1.
        -12    1    3    3    0    0 -0.55275231899E+01 -0.12074154426E+02  0.36986975311E+01  0.13784740881E+02  0.00000000000E+00 0.  1.
</event>
<event>
 7    1  0.2706925E-010  0.4778727E+02  0.7816164E-02  0.1312668E+00
        -11   -1    0    0    0    0  0.00000000000E+00  0.00000000000E+00  0.45593999997E+02  0.45594000000E+02  0.51100000000E-03 0.  1.
         11   -1    0    0    0    0 -0.00000000000E+00 -0.00000000000E+00 -0.45593999997E+02  0.45594000000E+02  0.51100000000E-03 0. -1.
    9900012    2    1    2    0    0 -0.99618777980E+01  0.32198505010E+02  0.27343013939E+02  0.47787272525E+02  0.20000006750E+02 0.  0.
         12    1    1    2    0    0  0.99618777980E+01 -0.32198505010E+02 -0.27343013939E+02  0.43400727475E+02  0.00000000000E+00 0. -1.
         11    1    3    3    0    0 -0.92080999260E+01  0.84759678738E+01  0.15626384175E+02  0.20020365089E+02  0.51100000000E-03 0. -1.
        -11    1    3    3    0    0  0.36036101783E+01  0.12781201887E+02  0.48703083158E+01  0.14144434642E+02  0.51100000000E-03 0.  1.
         12    1    3    3    0    0 -0.43573880503E+01  0.10941335249E+02  0.68463214473E+01  0.13622472793E+02  0.00000000000E+00 0. -1.
</event>
<event>
 7    1  0.2706925E-010  0.4778727E+02  0.7816164E-02  0.1312668E+00
        -11   -1    0    0    0    0  0.00000000000E+00  0.00000000000E+00  0.45593999997E+02  0.45594000000E+02  0.51100000000E-03 0.  1.
         11   -1    0    0    0    0 -0.00000000000E+00 -0.00000000000E+00 -0.45593999997E+02  0.45594000000E+02  0.51100000000E-03 0. -1.
    9900012    2    1    2    0    0  0.96957515376E+01  0.27341764003E+02  0.32280704253E+02  0.47787268165E+02  0.19999986872E+02 0.  0.
         12    1    1    2    0    0 -0.96957515376E+01 -0.27341764003E+02 -0.32280704253E+02  0.43400731835E+02  0.00000000000E+00 0. -1.
         11    1    3    3    0    0  0.86607622546E+00  0.54082834221E+01  0.25005783029E+01  0.60210057060E+01  0.51100000000E-03 0. -1.
        -11    1    3    3    0    0  0.30241913034E+01  0.17133982664E+02  0.29475563060E+02  0.34227589937E+02  0.51100000000E-03 0.  1.
        -12    1    3    3    0    0  0.58054840087E+01  0.47994979178E+01  0.30456289064E+00  0.75386725220E+01  0.00000000000E+00 0.  1.
</event>
<event>
 7    1  0.2706925E-010  0.4778727E+02  0.7816164E-02  0.1312668E+00
        -11   -1    0    0    0    0  0.00000000000E+00  0.00000000000E+00  0.45593999997E+02  0.45594000000E+02  0.51100000000E-03 0.  1.
         11   -1    0    0    0    0 -0.00000000000E+00 -0.00000000000E+00 -0.45593999997E+02  0.45594000000E+02  0.51100000000E-03 0. -1.
    9900012    2    1    2    0    0  0.16502750968E+02  0.24994176567E+01  0.40062892242E+02  0.47787271747E+02  0.20000003203E+02 0.  0.
         12    1    1    2    0    0 -0.16502750968E+02 -0.24994176567E+01 -0.40062892242E+02  0.43400728253E+02  0.00000000000E+00 0. -1.
         11    1    3    3    0    0  0.16771935094E+02  0.10024500437E+01  0.30308599293E+02  0.34654204712E+02  0.51100000000E-03 0.  1.
        -11    1    3    3    0    0 -0.26850404385E+01 -0.27696634124E+01  0.48653149962E+01  0.62090069937E+01  0.51100000000E-03 0. -1.
         12    1    3    3    0    0  0.24158563117E+01  0.42666310253E+01  0.48889779528E+01  0.69240600408E+01  0.00000000000E+00 0. -1.
</event>
<event>
 7    1  0.2706925E-010  0.4778727E+02  0.7816164E-02  0.1312668E+00
        -11   -1    0    0    0    0  0.00000000000E+00  0.00000000000E+00  0.45593999997E+02  0.45594000000E+02  0.51100000000E-03 0.  1.
         11   -1    0    0    0    0 -0.00000000000E+00 -0.00000000000E+00 -0.45593999997E+02  0.45594000000E+02  0.51100000000E-03 0. -1.
    9900012    2    1    2    0    0  0.38271095942E+02 -0.20371434746E+02  0.19877403033E+01  0.47787271322E+02  0.20000001268E+02 0.  0.
         12    1    1    2    0    0 -0.38271095942E+02  0.20371434746E+02 -0.19877403033E+01  0.43400728678E+02  0.00000000000E+00 0. -1.
         11    1    3    3    0    0  0.22490998371E+02 -0.10584786109E+02  0.90299883636E+01  0.26446614052E+02  0.51100000000E-03 0.  1.
        -11    1    3    3    0    0  0.17722396396E+01 -0.33782935243E+01 -0.42045821186E+01  0.56773419422E+01  0.51100000000E-03 0. -1.
         12    1    3    3    0    0  0.14007857931E+02 -0.64083551127E+01 -0.28376659417E+01  0.15663315328E+02  0.00000000000E+00 0. -1.
</event>
<event>
 7    1  0.2706925E-010  0.4778725E+02  0.7816164E-02  0.1312668E+00
        -11   -1    0    0    0    0  0.00000000000E+00  0.00000000000E+00  0.45593999997E+02  0.45594000000E+02  0.51100000000E-03 0.  1.
         11   -1    0    0    0    0 -0.00000000000E+00 -0.00000000000E+00 -0.45593999997E+02  0.45594000000E+02  0.51100000000E-03 0. -1.
    9900012    2    1    2    0    0 -0.22269082448E+02 -0.37252018291E+02 -0.29945551709E-02  0.47787252210E+02  0.19999914124E+02 0.  0.
         12    1    1    2    0    0  0.22269082448E+02  0.37252018291E+02  0.29945551709E-02  0.43400747790E+02  0.00000000000E+00 0. -1.
         11    1    3    3    0    0 -0.81967225887E+01 -0.21960712044E+02 -0.60935024028E+01  0.24219618215E+02  0.51100000000E-03 0. -1.
        -11    1    3    3    0    0 -0.69174336983E+01 -0.14195783396E+01  0.29151671834E+01  0.76396525838E+01  0.51100000000E-03 0.  1.
        -12    1    3    3    0    0 -0.71549261610E+01 -0.13871727907E+02  0.31753406642E+01  0.15927981411E+02  0.00000000000E+00 0.  1.
</event>
<event>
 7    1  0.3026193E-010  0.4778727E+02  0.7816164E-02  0.1312668E+00
        -11   -1    0    0    0    0  0.00000000000E+00  0.00000000000E+00  0.45593999997E+02  0.45594000000E+02  0.51100000000E-03 0. -1.
         11   -1    0    0    0    0 -0.00000000000E+00 -0.00000000000E+00 -0.45593999997E+02  0.45594000000E+02  0.51100000000E-03 0.  1.
    9900012    2    1    2    0    0  0.35298063988E+02  0.12264221595E+02 -0.22073939845E+02  0.47787271056E+02  0.20000000052E+02 0.  0.
         12    1    1    2    0    0 -0.35298063988E+02 -0.12264221595E+02  0.22073939845E+02  0.43400728944E+02  0.00000000000E+00 0. -1.
         11    1    3    3    0    0  0.85069991180E+00 -0.78726438830E+00  0.63056811731E+00  0.13195044406E+01  0.51100000000E-03 0. -1.
        -11    1    3    3    0    0  0.98886118804E+01  0.27628610828E+01  0.16303741753E+01  0.10395968762E+02  0.51100000000E-03 0.  1.
        -12    1    3    3    0    0  0.24558752195E+02  0.10288624900E+02 -0.24334882138E+02  0.36071797853E+02  0.00000000000E+00 0.  1.
</event>
<event>
 7    1  0.2706925E-010  0.4778727E+02  0.7816164E-02  0.1312668E+00
        -11   -1    0    0    0    0  0.00000000000E+00  0.00000000000E+00  0.45593999997E+02  0.45594000000E+02  0.51100000000E-03 0. -1.
         11   -1    0    0    0    0 -0.00000000000E+00 -0.00000000000E+00 -0.45593999997E+02  0.45594000000E+02  0.51100000000E-03 0.  1.
    9900012    2    1    2    0    0 -0.31290979933E+02 -0.29851278077E+02 -0.36604973314E+01  0.47787268800E+02  0.19999989768E+02 0.  0.
         12    1    1    2    0    0  0.31290979933E+02  0.29851278077E+02  0.36604973314E+01  0.43400731200E+02  0.00000000000E+00 0. -1.
         11    1    3    3    0    0 -0.52139444945E+00  0.23217453607E+01 -0.19452839592E+00  0.23875081675E+01  0.51100000000E-03 0. -1.
        -11    1    3    3    0    0 -0.26350064848E+02 -0.29686747433E+02 -0.87161230110E+00  0.39703760513E+02  0.51100000000E-03 0.  1.
        -12    1    3    3    0    0 -0.44195206350E+01 -0.24862760048E+01 -0.25943566344E+01  0.56960001195E+01  0.00000000000E+00 0.  1.
</event>
<event>
 7    1  0.2706925E-010  0.4778727E+02  0.7816164E-02  0.1312668E+00
        -11   -1    0    0    0    0  0.00000000000E+00  0.00000000000E+00  0.45593999997E+02  0.45594000000E+02  0.51100000000E-03 0.  1.
         11   -1    0    0    0    0 -0.00000000000E+00 -0.00000000000E+00 -0.45593999997E+02  0.45594000000E+02  0.51100000000E-03 0. -1.
    9900012    2    1    2    0    0 -0.30764875316E+02 -0.23780763235E+02 -0.19277476722E+02  0.47787270029E+02  0.19999995369E+02 0.  0.
         12    1    1    2    0    0  0.30764875316E+02  0.23780763235E+02  0.19277476722E+02  0.43400729971E+02  0.00000000000E+00 0. -1.
         11    1    3    3    0    0 -0.68761759383E+01 -0.16747944014E+02 -0.90684627801E+01  0.20248763955E+02  0.51100000000E-03 0. -1.
        -11    1    3    3    0    0 -0.18166570134E+02 -0.78073704940E+01 -0.73489683927E+01  0.21094706473E+02  0.51100000000E-03 0.  1.
        -12    1    3    3    0    0 -0.57221292438E+01  0.77455127330E+00 -0.28600455497E+01  0.64437996014E+01  0.00000000000E+00 0.  1.
</event>
<event>
 7    1  0.2706925E-010  0.4778727E+02  0.7816164E-02  0.1312668E+00
        -11   -1    0    0    0    0  0.00000000000E+00  0.00000000000E+00  0.45593999997E+02  0.45594000000E+02  0.51100000000E-03 0. -1.
         11   -1    0    0    0    0 -0.00000000000E+00 -0.00000000000E+00 -0.45593999997E+02  0.45594000000E+02  0.51100000000E-03 0.  1.
    9900012    2    1    2    0    0  0.55746199699E+01  0.15542559375E+02 -0.40136958167E+02  0.47787274769E+02  0.20000016980E+02 0.  0.
         12    1    1    2    0    0 -0.55746199699E+01 -0.15542559375E+02  0.40136958167E+02  0.43400725231E+02  0.00000000000E+00 0. -1.
         11    1    3    3    0    0 -0.38496829874E+01  0.51517781624E+00 -0.10201664385E+02  0.10916016846E+02  0.51100000000E-03 0. -1.
        -11    1    3    3    0    0  0.61652190965E+01  0.10926995093E+02 -0.93960171000E+01  0.15674638302E+02  0.51100000000E-03 0.  1.
         12    1    3    3    0    0  0.32590838608E+01  0.41003864656E+01 -0.20539276681E+02  0.21196619621E+02  0.00000000000E+00 0. -1.
</event>
<event>
 7    1  0.2706925E-010  0.4778727E+02  0.7816164E-02  0.1312668E+00
        -11   -1    0    0    0    0  0.00000000000E+00  0.00000000000E+00  0.45593999997E+02  0.45594000000E+02  0.51100000000E-03 0. -1.
         11   -1    0    0    0    0 -0.00000000000E+00 -0.00000000000E+00 -0.45593999997E+02  0.45594000000E+02  0.51100000000E-03 0.  1.
    9900012    2    1    2    0    0 -0.19080831601E+02 -0.21429912962E+02 -0.32562304408E+02  0.47787274517E+02  0.20000015832E+02 0.  0.
         12    1    1    2    0    0  0.19080831601E+02  0.21429912962E+02  0.32562304408E+02  0.43400725483E+02  0.00000000000E+00 0. -1.
         11    1    3    3    0    0 -0.44599323494E+01 -0.18258226957E+01  0.37162809270E+00  0.48335010890E+01  0.51100000000E-03 0. -1.
        -11    1    3    3    0    0 -0.11047533717E+02 -0.10064348844E+02 -0.27762471171E+02  0.31529255061E+02  0.51100000000E-03 0.  1.
        -12    1    3    3    0    0 -0.35733655343E+01 -0.95397414217E+01 -0.51714613290E+01  0.11424518367E+02  0.00000000000E+00 0.  1.
</event>
<event>
 7    1  0.2706925E-010  0.4778727E+02  0.7816164E-02  0.1312668E+00
        -11   -1    0    0    0    0  0.00000000000E+00  0.00000000000E+00  0.45593999997E+02  0.45594000000E+02  0.51100000000E-03 0.  1.
         11   -1    0    0    0    0 -0.00000000000E+00 -0.00000000000E+00 -0.45593999997E+02  0.45594000000E+02  0.51100000000E-03 0. -1.
    9900012    2    1    2    0    0 -0.94791969243E+00 -0.38721307115E+02  0.19580224324E+02  0.47787270041E+02  0.19999995424E+02 0.  0.
         12    1    1    2    0    0  0.94791969243E+00  0.38721307115E+02 -0.19580224324E+02  0.43400729959E+02  0.00000000000E+00 0. -1.
         11    1    3    3    0    0 -0.83506213915E+01 -0.12090091755E+02  0.75324173372E+01  0.16511829319E+02  0.51100000000E-03 0. -1.
        -11    1    3    3    0    0  0.64697072320E+01 -0.10733386503E+02  0.79154224658E+01  0.14822840840E+02  0.51100000000E-03 0.  1.
         12    1    3    3    0    0  0.93299446708E+00 -0.15897828857E+02  0.41323845208E+01  0.16452599882E+02  0.00000000000E+00 0. -1.
</event>
<event>
 7    1  0.2706925E-010  0.4778727E+02  0.7816164E-02  0.1312668E+00
        -11   -1    0    0    0    0  0.00000000000E+00  0.00000000000E+00  0.45593999997E+02  0.45594000000E+02  0.51100000000E-03 0.  1.
         11   -1    0    0    0    0 -0.00000000000E+00 -0.00000000000E+00 -0.45593999997E+02  0.45594000000E+02  0.51100000000E-03 0. -1.
    9900012    2    1    2    0    0  0.39527095509E+02  0.11466859106E+01  0.17886225347E+02  0.47787271606E+02  0.20000002560E+02 0.  0.
         12    1    1    2    0    0 -0.39527095509E+02 -0.11466859106E+01 -0.17886225347E+02  0.43400728394E+02  0.00000000000E+00 0. -1.
         11    1    3    3    0    0  0.29711085098E+02 -0.25961048113E+01  0.55456270943E+01  0.30335496008E+02  0.51100000000E-03 0.  1.
        -11    1    3    3    0    0  0.58505917656E+01  0.52431520547E+01  0.62921621216E+01  0.10065355031E+02  0.51100000000E-03 0. -1.
         12    1    3    3    0    0  0.39654186451E+01 -0.15003613327E+01  0.60484361311E+01  0.73864205669E+01  0.00000000000E+00 0. -1.
</event>
<event>
 7    1  0.2706925E-010  0.4778727E+02  0.7816164E-02  0.1312668E+00
        -11   -1    0    0    0    0  0.00000000000E+00  0.00000000000E+00  0.45593999997E+02  0.45594000000E+02  0.51100000000E-03 0.  1.
         11   -1    0    0    0    0 -0.00000000000E+00 -0.00000000000E+00 -0.45593999997E+02  0.45594000000E+02  0.51100000000E-03 0. -1.
    9900012    2    1    2    0    0 -0.13836863777E+02  0.25035989258E+02  0.32639914293E+02  0.47787267721E+02  0.19999984846E+02 0.  0.
         12    1    1    2    0    0  0.13836863777E+02 -0.25035989258E+02 -0.32639914293E+02  0.43400732279E+02  0.00000000000E+00 0. -1.
         11    1    3    3    0    0  0.12794426304E+01  0.62111264707E+01  0.46324487352E+00  0.63584323189E+01  0.51100000000E-03 0. -1.
        -11    1    3    3    0    0 -0.58260994279E+01  0.13618439484E+02  0.23073132952E+02  0.27418511867E+02  0.51100000000E-03 0.  1.
        -12    1    3    3    0    0 -0.92902069792E+01  0.52064233034E+01  0.91035364673E+01  0.14010323535E+02  0.00000000000E+00 0.  1.
</event>
<event>
 7    1  0.2706925E-010  0.4778727E+02  0.7816164E-02  0.1312668E+00
        -11   -1    0    0    0    0  0.00000000000E+00  0.00000000000E+00  0.45593999997E+02  0.45594000000E+02  0.51100000000E-03 0.  1.
         11   -1    0    0    0    0 -0.00000000000E+00 -0.00000000000E+00 -0.45593999997E+02  0.45594000000E+02  0.51100000000E-03 0. -1.
    9900012    2    1    2    0    0 -0.18470501536E+02  0.40128955322E+01  0.39068670423E+02  0.47787265373E+02  0.19999974142E+02 0.  0.
         12    1    1    2    0    0  0.18470501536E+02 -0.40128955322E+01 -0.39068670423E+02  0.43400734627E+02  0.00000000000E+00 0. -1.
         11    1    3    3    0    0 -0.10522419398E+02  0.90157917154E+01  0.18406812565E+02  0.23039456576E+02  0.51100000000E-03 0. -1.
        -11    1    3    3    0    0 -0.59364865759E+00  0.17633297452E+01  0.98526493696E+01  0.10026786643E+02  0.51100000000E-03 0.  1.
         12    1    3    3    0    0 -0.73544334800E+01 -0.67662259284E+01  0.10809208488E+02  0.14721022154E+02  0.00000000000E+00 0. -1.
</event>
<event>
 7    1  0.2706925E-010  0.4778727E+02  0.7816164E-02  0.1312668E+00
        -11   -1    0    0    0    0  0.00000000000E+00  0.00000000000E+00  0.45593999997E+02  0.45594000000E+02  0.51100000000E-03 0. -1.
         11   -1    0    0    0    0 -0.00000000000E+00 -0.00000000000E+00 -0.45593999997E+02  0.45594000000E+02  0.51100000000E-03 0.  1.
    9900012    2    1    2    0    0  0.35251886571E+02  0.18851026522E+02 -0.16898715569E+02  0.47787270794E+02  0.19999998856E+02 0.  0.
         12    1    1    2    0    0 -0.35251886571E+02 -0.18851026522E+02  0.16898715569E+02  0.43400729206E+02  0.00000000000E+00 0. -1.
         11    1    3    3    0    0  0.22738691085E+02  0.16221165818E+02 -0.19215842082E+02  0.33903139676E+02  0.51100000000E-03 0.  1.
        -11    1    3    3    0    0  0.54180557654E+01 -0.12837359870E+01  0.12982515710E+01  0.57174088330E+01  0.51100000000E-03 0. -1.
        -12    1    3    3    0    0  0.70951397210E+01  0.39135966915E+01  0.10188749417E+01  0.81667222845E+01  0.00000000000E+00 0.  1.
</event>
<event>
 7    1  0.2706925E-010  0.4778727E+02  0.7816164E-02  0.1312668E+00
        -11   -1    0    0    0    0  0.00000000000E+00  0.00000000000E+00  0.45593999997E+02  0.45594000000E+02  0.51100000000E-03 0.  1.
         11   -1    0    0    0    0 -0.00000000000E+00 -0.00000000000E+00 -0.45593999997E+02  0.45594000000E+02  0.51100000000E-03 0. -1.
    9900012    2    1    2    0    0  0.23307387085E+02 -0.15185413532E+02  0.33313540383E+02  0.47787273627E+02  0.20000011774E+02 0.  0.
         12    1    1    2    0    0 -0.23307387085E+02  0.15185413532E+02 -0.33313540383E+02  0.43400726373E+02  0.00000000000E+00 0. -1.
         11    1    3    3    0    0  0.14980699868E+01 -0.84430679156E+01  0.46482595417E+01  0.97537647368E+01  0.51100000000E-03 0. -1.
        -11    1    3    3    0    0  0.46057091309E+01 -0.61041426184E+01  0.10697677722E+02  0.13149654848E+02  0.51100000000E-03 0.  1.
         12    1    3    3    0    0  0.17203607967E+02 -0.63820299841E+00  0.17967603119E+02  0.24883854042E+02  0.00000000000E+00 0. -1.
</event>
<event>
 7    1  0.2706925E-010  0.4778726E+02  0.7816164E-02  0.1312668E+00
        -11   -1    0    0    0    0  0.00000000000E+00  0.00000000000E+00  0.45593999997E+02  0.45594000000E+02  0.51100000000E-03 0.  1.
         11   -1    0    0    0    0 -0.00000000000E+00 -0.00000000000E+00 -0.45593999997E+02  0.45594000000E+02  0.51100000000E-03 0. -1.
    9900012    2    1    2    0    0 -0.86715249726E+01 -0.38408832611E+02  0.18253498590E+02  0.47787262925E+02  0.19999962980E+02 0.  0.
         12    1    1    2    0    0  0.86715249726E+01  0.38408832611E+02 -0.18253498590E+02  0.43400737075E+02  0.00000000000E+00 0. -1.
         11    1    3    3    0    0 -0.59156558933E+01 -0.61137748577E+01 -0.11342522321E+01  0.85825262042E+01  0.51100000000E-03 0. -1.
        -11    1    3    3    0    0  0.79742496023E+00 -0.29589761039E+02  0.17144417380E+02  0.34207029869E+02  0.51100000000E-03 0.  1.
        -12    1    3    3    0    0 -0.35532940395E+01 -0.27052967147E+01  0.22433334422E+01  0.49977068520E+01  0.00000000000E+00 0.  1.
</event>
<event>
 7    1  0.2706925E-010  0.4778727E+02  0.7816164E-02  0.1312668E+00
        -11   -1    0    0    0    0  0.00000000000E+00  0.00000000000E+00  0.45593999997E+02  0.45594000000E+02  0.51100000000E-03 0.  1.
         11   -1    0    0    0    0 -0.00000000000E+00 -0.00000000000E+00 -0.45593999997E+02  0.45594000000E+02  0.51100000000E-03 0. -1.
    9900012    2    1    2    0    0  0.28392322681E+02 -0.20868175080E+02  0.25338083672E+02  0.47787271866E+02  0.20000003747E+02 0.  0.
         12    1    1    2    0    0 -0.28392322681E+02  0.20868175080E+02 -0.25338083672E+02  0.43400728134E+02  0.00000000000E+00 0. -1.
         11    1    3    3    0    0  0.52972763375E+00 -0.98618618751E+01  0.94599296274E+01  0.13675788819E+02  0.51100000000E-03 0. -1.
        -11    1    3    3    0    0  0.19502899508E+02 -0.65636937728E+01  0.12404711011E+02  0.24027526312E+02  0.51100000000E-03 0.  1.
         12    1    3    3    0    0  0.83596955391E+01 -0.44426194320E+01  0.34734430335E+01  0.10083956735E+02  0.00000000000E+00 0. -1.
</event>
<event>
 7    1  0.2706925E-010  0.4778727E+02  0.7816164E-02  0.1312668E+00
        -11   -1    0    0    0    0  0.00000000000E+00  0.00000000000E+00  0.45593999997E+02  0.45594000000E+02  0.51100000000E-03 0.  1.
         11   -1    0    0    0    0 -0.00000000000E+00 -0.00000000000E+00 -0.45593999997E+02  0.45594000000E+02  0.51100000000E-03 0. -1.
    9900012    2    1    2    0    0  0.28483194303E+02 -0.56595796837E+01  0.32253677936E+02  0.47787274887E+02  0.20000017522E+02 0.  0.
         12    1    1    2    0    0 -0.28483194303E+02  0.56595796837E+01 -0.32253677936E+02  0.43400725113E+02  0.00000000000E+00 0. -1.
         11    1    3    3    0    0  0.35928443788E+00  0.39102761931E+01  0.27724469691E+01  0.48068500778E+01  0.51100000000E-03 0. -1.
        -11    1    3    3    0    0  0.16301096461E+02 -0.10013947335E+02  0.15196074693E+02  0.24432060359E+02  0.51100000000E-03 0.  1.
        -12    1    3    3    0    0  0.11822813405E+02  0.44409145863E+00  0.14285156274E+02  0.18548364450E+02  0.00000000000E+00 0.  1.
</event>
<event>
 7    1  0.2706925E-010  0.4778727E+02  0.7816164E-02  0.1312668E+00
        -11   -1    0    0    0    0  0.00000000000E+00  0.00000000000E+00  0.45593999997E+02  0.45594000000E+02  0.51100000000E-03 0. -1.
         11   -1    0    0    0    0 -0.00000000000E+00 -0.00000000000E+00 -0.45593999997E+02  0.45594000000E+02  0.51100000000E-03 0.  1.
    9900012    2    1    2    0    0 -0.11690537298E+02  0.36391977721E+02 -0.20556720441E+02  0.47787268899E+02  0.19999990220E+02 0.  0.
         12    1    1    2    0    0  0.11690537298E+02 -0.36391977721E+02  0.20556720441E+02  0.43400731101E+02  0.00000000000E+00 0. -1.
         11    1    3    3    0    0 -0.90478148660E+01  0.12975066995E+02 -0.54756531371E+01  0.16739118702E+02  0.51100000000E-03 0. -1.
        -11    1    3    3    0    0  0.27963606822E+01  0.15867094994E+02 -0.14580634974E+02  0.21729685988E+02  0.51100000000E-03 0.  1.
        -12    1    3    3    0    0 -0.54390831145E+01  0.75498157321E+01 -0.50043232989E+00  0.93184642100E+01  0.00000000000E+00 0.  1.
</event>
<event>
 7    1  0.2706925E-010  0.4778728E+02  0.7816164E-02  0.1312668E+00
        -11   -1    0    0    0    0  0.00000000000E+00  0.00000000000E+00  0.45593999997E+02  0.45594000000E+02  0.51100000000E-03 0.  1.
         11   -1    0    0    0    0 -0.00000000000E+00 -0.00000000000E+00 -0.45593999997E+02  0.45594000000E+02  0.51100000000E-03 0. -1.
    9900012    2    1    2    0    0 -0.15389000588E+02 -0.33406500754E+02  0.23039254230E+02  0.47787275729E+02  0.20000021361E+02 0.  0.
         12    1    1    2    0    0  0.15389000588E+02  0.33406500754E+02 -0.23039254230E+02  0.43400724271E+02  0.00000000000E+00 0. -1.
         11    1    3    3    0    0 -0.55184218105E+01 -0.20762630992E+02  0.50688129664E+01  0.22073347959E+02  0.51100000000E-03 0. -1.
        -11    1    3    3    0    0  0.15843465537E+01 -0.31037593303E+01  0.33996509196E+01  0.48683778221E+01  0.51100000000E-03 0.  1.
         12    1    3    3    0    0 -0.11454925331E+02 -0.95401104324E+01  0.14570790344E+02  0.20845549948E+02  0.00000000000E+00 0. -1.
</event>
<event>
 7    1  0.2706925E-010  0.4778727E+02  0.7816164E-02  0.1312668E+00
        -11   -1    0    0    0    0  0.00000000000E+00  0.00000000000E+00  0.45593999997E+02  0.45594000000E+02  0.51100000000E-03 0. -1.
         11   -1    0    0    0    0 -0.00000000000E+00 -0.00000000000E+00 -0.45593999997E+02  0.45594000000E+02  0.51100000000E-03 0.  1.
    9900012    2    1    2    0    0  0.24518297506E+02  0.44309225035E+01 -0.35536504468E+02  0.47787272625E+02  0.20000007208E+02 0.  0.
         12    1    1    2    0    0 -0.24518297506E+02 -0.44309225035E+01  0.35536504468E+02  0.43400727375E+02  0.00000000000E+00 0. -1.
         11    1    3    3    0    0  0.55603102948E+01 -0.12097607485E+01  0.12927709744E+01  0.58353944765E+01  0.51100000000E-03 0. -1.
        -11    1    3    3    0    0  0.93286441631E+01  0.35416348070E+01 -0.21858159119E+02  0.24028023210E+02  0.51100000000E-03 0.  1.
         12    1    3    3    0    0  0.96293430486E+01  0.20990484450E+01 -0.14971116323E+02  0.17923854939E+02  0.00000000000E+00 0. -1.
</event>
<event>
 7    1  0.2706925E-010  0.4778727E+02  0.7816164E-02  0.1312668E+00
        -11   -1    0    0    0    0  0.00000000000E+00  0.00000000000E+00  0.45593999997E+02  0.45594000000E+02  0.51100000000E-03 0.  1.
         11   -1    0    0    0    0 -0.00000000000E+00 -0.00000000000E+00 -0.45593999997E+02  0.45594000000E+02  0.51100000000E-03 0. -1.
    9900012    2    1    2    0    0  0.18936629608E+01  0.28253258284E+02 -0.32890585100E+02  0.47787272457E+02  0.20000006440E+02 0.  0.
         12    1    1    2    0    0 -0.18936629608E+01 -0.28253258284E+02  0.32890585100E+02  0.43400727543E+02  0.00000000000E+00 0. -1.
         11    1    3    3    0    0 -0.61783079847E+01  0.95793938050E+01 -0.64456474157E+01  0.13095138262E+02  0.51100000000E-03 0. -1.
        -11    1    3    3    0    0 -0.20746949015E+01  0.41681431890E+01 -0.68797625380E+01  0.83071601296E+01  0.51100000000E-03 0.  1.
         12    1    3    3    0    0  0.10146665847E+02  0.14505721290E+02 -0.19565175146E+02  0.26384974066E+02  0.00000000000E+00 0. -1.
</event>
<event>
 7    1  0.2706925E-010  0.4778727E+02  0.7816164E-02  0.1312668E+00
        -11   -1    0    0    0    0  0.00000000000E+00  0.00000000000E+00  0.45593999997E+02  0.45594000000E+02  0.51100000000E-03 0.  1.
         11   -1    0    0    0    0 -0.00000000000E+00 -0.00000000000E+00 -0.45593999997E+02  0.45594000000E+02  0.51100000000E-03 0. -1.
    9900012    2    1    2    0    0 -0.18046916738E+02 -0.21155011256E+02  0.33322630482E+02  0.47787269508E+02  0.19999992996E+02 0.  0.
         12    1    1    2    0    0  0.18046916738E+02  0.21155011256E+02 -0.33322630482E+02  0.43400730492E+02  0.00000000000E+00 0. -1.
         11    1    3    3    0    0 -0.48143507427E+01 -0.12547127851E+02  0.75062759558E+01  0.15393263766E+02  0.51100000000E-03 0. -1.
        -11    1    3    3    0    0 -0.59282393571E+01 -0.58904035647E+01  0.22355848805E+02  0.23866814871E+02  0.51100000000E-03 0.  1.
         12    1    3    3    0    0 -0.73043266378E+01 -0.27174798397E+01  0.34605057218E+01  0.85271908716E+01  0.00000000000E+00 0. -1.
</event>
<event>
 7    1  0.2706925E-010  0.4778728E+02  0.7816164E-02  0.1312668E+00
        -11   -1    0    0    0    0  0.00000000000E+00  0.00000000000E+00  0.45593999997E+02  0.45594000000E+02  0.51100000000E-03 0.  1.
         11   -1    0    0    0    0 -0.00000000000E+00 -0.00000000000E+00 -0.45593999997E+02  0.45594000000E+02  0.51100000000E-03 0. -1.
    9900012    2    1    2    0    0  0.10837853605E+02  0.88128564082E+01  0.41091321025E+02  0.47787283734E+02  0.20000057855E+02 0.  0.
         12    1    1    2    0    0 -0.10837853605E+02 -0.88128564082E+01 -0.41091321025E+02  0.43400716266E+02  0.00000000000E+00 0. -1.
         11    1    3    3    0    0  0.84500409166E+01 -0.30288334574E+01  0.94335486773E+01  0.13021861023E+02  0.51100000000E-03 0. -1.
        -11    1    3    3    0    0  0.18767972230E+01  0.10476613488E+02  0.17147566050E+02  0.20182190657E+02  0.51100000000E-03 0.  1.
        -12    1    3    3    0    0  0.51101546557E+00  0.13650763776E+01  0.14510206298E+02  0.14583232053E+02  0.00000000000E+00 0.  1.
</event>
<event>
 7    1  0.2706925E-010  0.4778727E+02  0.7816164E-02  0.1312668E+00
        -11   -1    0    0    0    0  0.00000000000E+00  0.00000000000E+00  0.45593999997E+02  0.45594000000E+02  0.51100000000E-03 0.  1.
         11   -1    0    0    0    0 -0.00000000000E+00 -0.00000000000E+00 -0.45593999997E+02  0.45594000000E+02  0.51100000000E-03 0. -1.
    9900012    2    1    2    0    0  0.21006889500E+02  0.71482687588E+01  0.37299277044E+02  0.47787271656E+02  0.20000002790E+02 0.  0.
         12    1    1    2    0    0 -0.21006889500E+02 -0.71482687588E+01 -0.37299277044E+02  0.43400728344E+02  0.00000000000E+00 0. -1.
         11    1    3    3    0    0  0.51890483371E+01 -0.19830382550E+01  0.15576388341E+02  0.16537307440E+02  0.51100000000E-03 0. -1.
        -11    1    3    3    0    0  0.16159006390E+02  0.95094271928E+01  0.23117597424E+02  0.29765181067E+02  0.51100000000E-03 0.  1.
        -12    1    3    3    0    0 -0.34116522663E+00 -0.37812017903E+00 -0.13947087211E+01  0.14847831486E+01  0.00000000000E+00 0.  1.
</event>
<event>
 7    1  0.2706925E-010  0.4778727E+02  0.7816164E-02  0.1312668E+00
        -11   -1    0    0    0    0  0.00000000000E+00  0.00000000000E+00  0.45593999997E+02  0.45594000000E+02  0.51100000000E-03 0.  1.
         11   -1    0    0    0    0 -0.00000000000E+00 -0.00000000000E+00 -0.45593999997E+02  0.45594000000E+02  0.51100000000E-03 0. -1.
    9900012    2    1    2    0    0  0.92481317099E+01 -0.21598475252E+02  0.36491113827E+02  0.47787268881E+02  0.19999990136E+02 0.  0.
         12    1    1    2    0    0 -0.92481317099E+01  0.21598475252E+02 -0.36491113827E+02  0.43400731119E+02  0.00000000000E+00 0. -1.
         11    1    3    3    0    0 -0.82736287040E+00 -0.68321842475E+01  0.18384579213E+02  0.19630487106E+02  0.51100000000E-03 0.  1.
        -11    1    3    3    0    0  0.24399840256E+01 -0.59229951642E+01 -0.23492624536E+00  0.64101937851E+01  0.51100000000E-03 0. -1.
        -12    1    3    3    0    0  0.76355105547E+01 -0.88432958405E+01  0.18341460859E+02  0.21746587990E+02  0.00000000000E+00 0.  1.
</event>
<event>
 7    1  0.2706925E-010  0.4778727E+02  0.7816164E-02  0.1312668E+00
        -11   -1    0    0    0    0  0.00000000000E+00  0.00000000000E+00  0.45593999997E+02  0.45594000000E+02  0.51100000000E-03 0. -1.
         11   -1    0    0    0    0 -0.00000000000E+00 -0.00000000000E+00 -0.45593999997E+02  0.45594000000E+02  0.51100000000E-03 0.  1.
    9900012    2    1    2    0    0  0.21493016513E+02 -0.20616513723E+02 -0.31569494171E+02  0.47787270062E+02  0.19999995521E+02 0.  0.
         12    1    1    2    0    0 -0.21493016513E+02  0.20616513723E+02  0.31569494171E+02  0.43400729938E+02  0.00000000000E+00 0. -1.
         11    1    3    3    0    0 -0.34569762787E+01 -0.14746370717E+01 -0.36896969192E+01  0.52667924871E+01  0.51100000000E-03 0. -1.
        -11    1    3    3    0    0  0.16285224684E+02 -0.11067741824E+02 -0.13415868655E+02  0.23826224714E+02  0.51100000000E-03 0.  1.
         12    1    3    3    0    0  0.86647681069E+01 -0.80741348272E+01 -0.14463928597E+02  0.18694252861E+02  0.00000000000E+00 0. -1.
</event>
<event>
 7    1  0.2706925E-010  0.4778727E+02  0.7816164E-02  0.1312668E+00
        -11   -1    0    0    0    0  0.00000000000E+00  0.00000000000E+00  0.45593999997E+02  0.45594000000E+02  0.51100000000E-03 0.  1.
         11   -1    0    0    0    0 -0.00000000000E+00 -0.00000000000E+00 -0.45593999997E+02  0.45594000000E+02  0.51100000000E-03 0. -1.
    9900012    2    1    2    0    0  0.19758531820E+02 -0.34832082128E+02  0.16731702472E+02  0.47787269676E+02  0.19999993761E+02 0.  0.
         12    1    1    2    0    0 -0.19758531820E+02  0.34832082128E+02 -0.16731702472E+02  0.43400730324E+02  0.00000000000E+00 0. -1.
         11    1    3    3    0    0 -0.19364999892E+01 -0.10333598970E+02  0.75264781671E+00  0.10540387985E+02  0.51100000000E-03 0. -1.
        -11    1    3    3    0    0  0.17701279542E+02 -0.15975637929E+02  0.13926624484E+02  0.27613532452E+02  0.51100000000E-03 0.  1.
         12    1    3    3    0    0  0.39937522671E+01 -0.85228452283E+01  0.20524301712E+01  0.96333492392E+01  0.00000000000E+00 0. -1.
</event>
<event>
 7    1  0.2706925E-010  0.4778727E+02  0.7816164E-02  0.1312668E+00
        -11   -1    0    0    0    0  0.00000000000E+00  0.00000000000E+00  0.45593999997E+02  0.45594000000E+02  0.51100000000E-03 0. -1.
         11   -1    0    0    0    0 -0.00000000000E+00 -0.00000000000E+00 -0.45593999997E+02  0.45594000000E+02  0.51100000000E-03 0.  1.
    9900012    2    1    2    0    0 -0.27074742235E+02  0.77550772920E+01 -0.33021816889E+02  0.47787270956E+02  0.19999999595E+02 0.  0.
         12    1    1    2    0    0  0.27074742235E+02 -0.77550772920E+01  0.33021816889E+02  0.43400729044E+02  0.00000000000E+00 0. -1.
         11    1    3    3    0    0 -0.77442181944E+01 -0.58024922947E+01 -0.62267226983E+01  0.11507124232E+02  0.51100000000E-03 0. -1.
        -11    1    3    3    0    0 -0.42785129450E+01  0.11906829848E+01 -0.83237266663E+01  0.94343958401E+01  0.51100000000E-03 0.  1.
         12    1    3    3    0    0 -0.15052011096E+02  0.12366886602E+02 -0.18471367525E+02  0.26845750883E+02  0.00000000000E+00 0. -1.
</event>
<event>
 7    1  0.2706925E-010  0.4778727E+02  0.7816164E-02  0.1312668E+00
        -11   -1    0    0    0    0  0.00000000000E+00  0.00000000000E+00  0.45593999997E+02  0.45594000000E+02  0.51100000000E-03 0.  1.
         11   -1    0    0    0    0 -0.00000000000E+00 -0.00000000000E+00 -0.45593999997E+02  0.45594000000E+02  0.51100000000E-03 0. -1.
    9900012    2    1    2    0    0 -0.20876489276E+02 -0.30712221176E+02  0.22462304752E+02  0.47787268798E+02  0.19999989760E+02 0.  0.
         12    1    1    2    0    0  0.20876489276E+02  0.30712221176E+02 -0.22462304752E+02  0.43400731202E+02  0.00000000000E+00 0. -1.
         11    1    3    3    0    0  0.20491862403E+01  0.14638180157E+01  0.54318507605E+00  0.25762332422E+01  0.51100000000E-03 0. -1.
        -11    1    3    3    0    0 -0.10147570961E+02 -0.15646357821E+02  0.10221992766E+02  0.21266660430E+02  0.51100000000E-03 0.  1.
         12    1    3    3    0    0 -0.12778104555E+02 -0.16529681371E+02  0.11697126910E+02  0.23944375126E+02  0.00000000000E+00 0. -1.
</event>
<event>
 7    1  0.2706925E-010  0.4778727E+02  0.7816164E-02  0.1312668E+00
        -11   -1    0    0    0    0  0.00000000000E+00  0.00000000000E+00  0.45593999997E+02  0.45594000000E+02  0.51100000000E-03 0. -1.
         11   -1    0    0    0    0 -0.00000000000E+00 -0.00000000000E+00 -0.45593999997E+02  0.45594000000E+02  0.51100000000E-03 0.  1.
    9900012    2    1    2    0    0 -0.33218445798E+02  0.24411650151E+02 -0.13573112166E+02  0.47787272146E+02  0.20000005024E+02 0.  0.
         12    1    1    2    0    0  0.33218445798E+02 -0.24411650151E+02  0.13573112166E+02  0.43400727854E+02  0.00000000000E+00 0. -1.
         11    1    3    3    0    0 -0.16373720159E+02  0.15441515130E+02 -0.15752184985E+02  0.27471265595E+02  0.51100000000E-03 0. -1.
        -11    1    3    3    0    0 -0.12818737089E+02  0.79122233671E+01  0.42703384187E+01  0.15657556950E+02  0.51100000000E-03 0.  1.
        -12    1    3    3    0    0 -0.40259885502E+01  0.10579116540E+01 -0.20912656002E+01  0.46584496009E+01  0.00000000000E+00 0.  1.
</event>
<event>
 7    1  0.2706925E-010  0.4778727E+02  0.7816164E-02  0.1312668E+00
        -11   -1    0    0    0    0  0.00000000000E+00  0.00000000000E+00  0.45593999997E+02  0.45594000000E+02  0.51100000000E-03 0.  1.
         11   -1    0    0    0    0 -0.00000000000E+00 -0.00000000000E+00 -0.45593999997E+02  0.45594000000E+02  0.51100000000E-03 0. -1.
    9900012    2    1    2    0    0 -0.20395377460E+02  0.63445929986E+01  0.37780920986E+02  0.47787271059E+02  0.20000000068E+02 0.  0.
         12    1    1    2    0    0  0.20395377460E+02 -0.63445929986E+01 -0.37780920986E+02  0.43400728941E+02  0.00000000000E+00 0. -1.
         11    1    3    3    0    0  0.18081746724E+01  0.27359958287E+01  0.42449520126E+00  0.33068663804E+01  0.51100000000E-03 0. -1.
        -11    1    3    3    0    0 -0.19960903546E+02  0.33499041676E+00  0.28731143835E+02  0.34986118894E+02  0.51100000000E-03 0.  1.
        -12    1    3    3    0    0 -0.22426485863E+01  0.32736067531E+01  0.86252819495E+01  0.94942857848E+01  0.00000000000E+00 0.  1.
</event>
<event>
 7    1  0.2706925E-010  0.4778727E+02  0.7816164E-02  0.1312668E+00
        -11   -1    0    0    0    0  0.00000000000E+00  0.00000000000E+00  0.45593999997E+02  0.45594000000E+02  0.51100000000E-03 0. -1.
         11   -1    0    0    0    0 -0.00000000000E+00 -0.00000000000E+00 -0.45593999997E+02  0.45594000000E+02  0.51100000000E-03 0.  1.
    9900012    2    1    2    0    0  0.21742657315E+02  0.28864387804E+02 -0.24035951051E+02  0.47787274507E+02  0.20000015787E+02 0.  0.
         12    1    1    2    0    0 -0.21742657315E+02 -0.28864387804E+02  0.24035951051E+02  0.43400725493E+02  0.00000000000E+00 0. -1.
         11    1    3    3    0    0 -0.31702164376E+00  0.16736648895E+01 -0.82808677218E+01  0.84542549862E+01  0.51100000000E-03 0. -1.
        -11    1    3    3    0    0  0.18107637724E+02  0.25502597311E+02 -0.11610932037E+02  0.33362894907E+02  0.51100000000E-03 0.  1.
        -12    1    3    3    0    0  0.39520412341E+01  0.16881256034E+01 -0.41441512918E+01  0.59701246133E+01  0.00000000000E+00 0.  1.
</event>
<event>
 7    1  0.2706925E-010  0.4778727E+02  0.7816164E-02  0.1312668E+00
        -11   -1    0    0    0    0  0.00000000000E+00  0.00000000000E+00  0.45593999997E+02  0.45594000000E+02  0.51100000000E-03 0.  1.
         11   -1    0    0    0    0 -0.00000000000E+00 -0.00000000000E+00 -0.45593999997E+02  0.45594000000E+02  0.51100000000E-03 0. -1.
    9900012    2    1    2    0    0  0.28696774683E+02  0.22502285252E+02  0.23532223848E+02  0.47787270997E+02  0.19999999783E+02 0.  0.
         12    1    1    2    0    0 -0.28696774683E+02 -0.22502285252E+02 -0.23532223848E+02  0.43400729003E+02  0.00000000000E+00 0. -1.
         11    1    3    3    0    0  0.52363036835E+01  0.86274530067E+01  0.14527523385E+02  0.17689001035E+02  0.51100000000E-03 0. -1.
        -11    1    3    3    0    0  0.20051312283E+02  0.13533024575E+02  0.47795615223E+01  0.24658509424E+02  0.51100000000E-03 0.  1.
        -12    1    3    3    0    0  0.34091587168E+01  0.34180766982E+00  0.42251389409E+01  0.54397605378E+01  0.00000000000E+00 0.  1.
</event>
<event>
 7    1  0.2706925E-010  0.4778727E+02  0.7816164E-02  0.1312668E+00
        -11   -1    0    0    0    0  0.00000000000E+00  0.00000000000E+00  0.45593999997E+02  0.45594000000E+02  0.51100000000E-03 0.  1.
         11   -1    0    0    0    0 -0.00000000000E+00 -0.00000000000E+00 -0.45593999997E+02  0.45594000000E+02  0.51100000000E-03 0. -1.
    9900012    2    1    2    0    0 -0.33324637308E+00 -0.29799652986E+02  0.31551432492E+02  0.47787271163E+02  0.20000000542E+02 0.  0.
         12    1    1    2    0    0  0.33324637308E+00  0.29799652986E+02 -0.31551432492E+02  0.43400728837E+02  0.00000000000E+00 0. -1.
         11    1    3    3    0    0  0.43369255882E+01 -0.95642800851E+01  0.37159309844E+01  0.11139682242E+02  0.51100000000E-03 0. -1.
        -11    1    3    3    0    0  0.28341724694E+01 -0.96050979268E+01  0.75261156180E+01  0.12527284475E+02  0.51100000000E-03 0.  1.
         12    1    3    3    0    0 -0.75043444307E+01 -0.10630274974E+02  0.20309385890E+02  0.24120304446E+02  0.00000000000E+00 0. -1.
</event>
<event>
 7    1  0.2706925E-010  0.4778728E+02  0.7816164E-02  0.1312668E+00
        -11   -1    0    0    0    0  0.00000000000E+00  0.00000000000E+00  0.45593999997E+02  0.45594000000E+02  0.51100000000E-03 0.  1.
         11   -1    0    0    0    0 -0.00000000000E+00 -0.00000000000E+00 -0.45593999997E+02  0.45594000000E+02  0.51100000000E-03 0. -1.
    9900012    2    1    2    0    0  0.89980377753E+01 -0.20547591871E+02  0.37154461821E+02  0.47787282855E+02  0.20000053848E+02 0.  0.
         12    1    1    2    0    0 -0.89980377753E+01  0.20547591871E+02 -0.37154461821E+02  0.43400717145E+02  0.00000000000E+00 0. -1.
         11    1    3    3    0    0 -0.26475688487E+01 -0.13774335094E+02  0.15975437096E+02  0.21259269008E+02  0.51100000000E-03 0. -1.
        -11    1    3    3    0    0  0.32621012205E+01  0.13712074865E+01  0.19907032866E+01  0.40601002673E+01  0.51100000000E-03 0.  1.
         12    1    3    3    0    0  0.83835054035E+01 -0.81444642638E+01  0.19188321438E+02  0.22467913579E+02  0.00000000000E+00 0. -1.
</event>
<event>
 7    1  0.2706925E-010  0.4778727E+02  0.7816164E-02  0.1312668E+00
        -11   -1    0    0    0    0  0.00000000000E+00  0.00000000000E+00  0.45593999997E+02  0.45594000000E+02  0.51100000000E-03 0.  1.
         11   -1    0    0    0    0 -0.00000000000E+00 -0.00000000000E+00 -0.45593999997E+02  0.45594000000E+02  0.51100000000E-03 0. -1.
    9900012    2    1    2    0    0 -0.28697851641E+02  0.21120629751E+02  0.24778531964E+02  0.47787270327E+02  0.19999996728E+02 0.  0.
         12    1    1    2    0    0  0.28697851641E+02 -0.21120629751E+02 -0.24778531964E+02  0.43400729673E+02  0.00000000000E+00 0. -1.
         11    1    3    3    0    0 -0.37605871555E+01  0.51100745572E+01 -0.16420225650E+01  0.65537101019E+01  0.51100000000E-03 0. -1.
        -11    1    3    3    0    0 -0.12044780753E+02  0.14098784583E+02  0.16947946866E+02  0.25121412646E+02  0.51100000000E-03 0.  1.
         12    1    3    3    0    0 -0.12892483732E+02  0.19117706102E+01  0.94726076631E+01  0.16112147579E+02  0.00000000000E+00 0. -1.
</event>
<event>
 7    1  0.2706925E-010  0.4778727E+02  0.7816164E-02  0.1312668E+00
        -11   -1    0    0    0    0  0.00000000000E+00  0.00000000000E+00  0.45593999997E+02  0.45594000000E+02  0.51100000000E-03 0. -1.
         11   -1    0    0    0    0 -0.00000000000E+00 -0.00000000000E+00 -0.45593999997E+02  0.45594000000E+02  0.51100000000E-03 0.  1.
    9900012    2    1    2    0    0  0.19257230894E+02 -0.71840553586E+01 -0.38225276260E+02  0.47787270303E+02  0.19999996619E+02 0.  0.
         12    1    1    2    0    0 -0.19257230894E+02  0.71840553586E+01  0.38225276260E+02  0.43400729697E+02  0.00000000000E+00 0. -1.
         11    1    3    3    0    0  0.48782836339E+01 -0.18222794395E+01 -0.48683395577E+01  0.71287505131E+01  0.51100000000E-03 0. -1.
        -11    1    3    3    0    0  0.16471291683E+02 -0.91092972763E+01 -0.25350588054E+02  0.31574278480E+02  0.51100000000E-03 0.  1.
        -12    1    3    3    0    0 -0.20923444226E+01  0.37475213573E+01 -0.80063486481E+01  0.90842413101E+01  0.00000000000E+00 0.  1.
</event>
<event>
 7    1  0.2706925E-010  0.4778731E+02  0.7816164E-02  0.1312668E+00
        -11   -1    0    0    0    0  0.00000000000E+00  0.00000000000E+00  0.45593999997E+02  0.45594000000E+02  0.51100000000E-03 0.  1.
         11   -1    0    0    0    0 -0.00000000000E+00 -0.00000000000E+00 -0.45593999997E+02  0.45594000000E+02  0.51100000000E-03 0. -1.
    9900012    2    1    2    0    0  0.24282457025E+01  0.34112730185E+02  0.26721630531E+02  0.47787305580E+02  0.20000157462E+02 0.  0.
         12    1    1    2    0    0 -0.24282457025E+01 -0.34112730185E+02 -0.26721630531E+02  0.43400694420E+02  0.00000000000E+00 0. -1.
         11    1    3    3    0    0 -0.85631674492E+00  0.83511055443E+00 -0.27124281817E+01  0.29644484997E+01  0.51100000000E-03 0. -1.
        -11    1    3    3    0    0  0.30301899153E+01  0.19719353574E+02  0.20364981495E+02  0.28509076236E+02  0.51100000000E-03 0.  1.
        -12    1    3    3    0    0  0.25437253210E+00  0.13558266056E+02  0.90690772180E+01  0.16313780844E+02  0.00000000000E+00 0.  1.
</event>
<event>
 7    1  0.2706925E-010  0.4778725E+02  0.7816164E-02  0.1312668E+00
        -11   -1    0    0    0    0  0.00000000000E+00  0.00000000000E+00  0.45593999997E+02  0.45594000000E+02  0.51100000000E-03 0. -1.
         11   -1    0    0    0    0 -0.00000000000E+00 -0.00000000000E+00 -0.45593999997E+02  0.45594000000E+02  0.51100000000E-03 0.  1.
    9900012    2    1    2    0    0 -0.21586230613E+02 -0.36397904200E+02 -0.96359701429E+01  0.47787254582E+02  0.19999924942E+02 0.  0.
         12    1    1    2    0    0  0.21586230613E+02  0.36397904200E+02  0.96359701429E+01  0.43400745418E+02  0.00000000000E+00 0. -1.
         11    1    3    3    0    0 -0.12918361320E+02 -0.17944521754E+02  0.40457521660E+01  0.22477945436E+02  0.51100000000E-03 0. -1.
        -11    1    3    3    0    0 -0.78005286969E+01 -0.17638068704E+02 -0.10603031624E+02  0.22008498255E+02  0.51100000000E-03 0.  1.
         12    1    3    3    0    0 -0.86734059560E+00 -0.81531374233E+00 -0.30786906847E+01  0.33008108912E+01  0.00000000000E+00 0. -1.
</event>
<event>
 7    1  0.2706925E-010  0.4778727E+02  0.7816164E-02  0.1312668E+00
        -11   -1    0    0    0    0  0.00000000000E+00  0.00000000000E+00  0.45593999997E+02  0.45594000000E+02  0.51100000000E-03 0.  1.
         11   -1    0    0    0    0 -0.00000000000E+00 -0.00000000000E+00 -0.45593999997E+02  0.45594000000E+02  0.51100000000E-03 0. -1.
    9900012    2    1    2    0    0  0.30536246742E+02  0.28558684833E+02  0.11643119619E+02  0.47787273290E+02  0.20000010240E+02 0.  0.
         12    1    1    2    0    0 -0.30536246742E+02 -0.28558684833E+02 -0.11643119619E+02  0.43400726710E+02  0.00000000000E+00 0. -1.
         11    1    3    3    0    0 -0.14488471327E+01  0.19005445082E+01 -0.95878973155E+00  0.25749767867E+01  0.51100000000E-03 0. -1.
        -11    1    3    3    0    0  0.21262454045E+02  0.24521223616E+02  0.10165981851E+02  0.34010726939E+02  0.51100000000E-03 0.  1.
         12    1    3    3    0    0  0.10722639830E+02  0.21369167084E+01  0.24359274991E+01  0.11201569565E+02  0.00000000000E+00 0. -1.
</event>
<event>
 7    1  0.2706925E-010  0.4778727E+02  0.7816164E-02  0.1312668E+00
        -11   -1    0    0    0    0  0.00000000000E+00  0.00000000000E+00  0.45593999997E+02  0.45594000000E+02  0.51100000000E-03 0.  1.
         11   -1    0    0    0    0 -0.00000000000E+00 -0.00000000000E+00 -0.45593999997E+02  0.45594000000E+02  0.51100000000E-03 0. -1.
    9900012    2    1    2    0    0 -0.62603775985E+01  0.35447360661E+02  0.24246965381E+02  0.47787273789E+02  0.20000012513E+02 0.  0.
         12    1    1    2    0    0  0.62603775985E+01 -0.35447360661E+02 -0.24246965381E+02  0.43400726211E+02  0.00000000000E+00 0. -1.
         11    1    3    3    0    0  0.97085244742E+00  0.98043892064E+01  0.10676620418E+02  0.14527863779E+02  0.51100000000E-03 0. -1.
        -11    1    3    3    0    0 -0.10805287251E+02  0.23961969754E+02  0.10714251483E+02  0.28385302749E+02  0.51100000000E-03 0.  1.
         12    1    3    3    0    0  0.35740572047E+01  0.16810017004E+01  0.28560934795E+01  0.48741072601E+01  0.00000000000E+00 0. -1.
</event>
<event>
 7    1  0.2706925E-010  0.4778727E+02  0.7816164E-02  0.1312668E+00
        -11   -1    0    0    0    0  0.00000000000E+00  0.00000000000E+00  0.45593999997E+02  0.45594000000E+02  0.51100000000E-03 0.  1.
         11   -1    0    0    0    0 -0.00000000000E+00 -0.00000000000E+00 -0.45593999997E+02  0.45594000000E+02  0.51100000000E-03 0. -1.
    9900012    2    1    2    0    0 -0.20326207050E+02  0.25160658907E+02  0.28938031611E+02  0.47787272780E+02  0.20000007914E+02 0.  0.
         12    1    1    2    0    0  0.20326207050E+02 -0.25160658907E+02 -0.28938031611E+02  0.43400727220E+02  0.00000000000E+00 0. -1.
         11    1    3    3    0    0 -0.15437725766E+02  0.13683767245E+02  0.11540660476E+02  0.23638014031E+02  0.51100000000E-03 0.  1.
        -11    1    3    3    0    0  0.29210107433E+01  0.31052453554E+01  0.14199435593E+01  0.44934499499E+01  0.51100000000E-03 0. -1.
        -12    1    3    3    0    0 -0.78094920278E+01  0.83716463061E+01  0.15977427576E+02  0.19655808799E+02  0.00000000000E+00 0.  1.
</event>
<event>
 7    1  0.2706925E-010  0.4778727E+02  0.7816164E-02  0.1312668E+00
        -11   -1    0    0    0    0  0.00000000000E+00  0.00000000000E+00  0.45593999997E+02  0.45594000000E+02  0.51100000000E-03 0.  1.
         11   -1    0    0    0    0 -0.00000000000E+00 -0.00000000000E+00 -0.45593999997E+02  0.45594000000E+02  0.51100000000E-03 0. -1.
    9900012    2    1    2    0    0 -0.60965302683E+00 -0.27750497722E+02  0.33364076713E+02  0.47787269412E+02  0.19999992559E+02 0.  0.
         12    1    1    2    0    0  0.60965302683E+00  0.27750497722E+02 -0.33364076713E+02  0.43400730588E+02  0.00000000000E+00 0. -1.
         11    1    3    3    0    0  0.61019139975E+01 -0.33816630622E+01  0.14279132531E+02  0.15892219027E+02  0.51100000000E-03 0.  1.
        -11    1    3    3    0    0 -0.35873876733E+01 -0.16055325082E+02  0.10338344920E+02  0.19429981723E+02  0.51100000000E-03 0. -1.
        -12    1    3    3    0    0 -0.31241793510E+01 -0.83135095778E+01  0.87465992615E+01  0.12465068662E+02  0.00000000000E+00 0.  1.
</event>
<event>
 7    1  0.2706925E-010  0.4778727E+02  0.7816164E-02  0.1312668E+00
        -11   -1    0    0    0    0  0.00000000000E+00  0.00000000000E+00  0.45593999997E+02  0.45594000000E+02  0.51100000000E-03 0.  1.
         11   -1    0    0    0    0 -0.00000000000E+00 -0.00000000000E+00 -0.45593999997E+02  0.45594000000E+02  0.51100000000E-03 0. -1.
    9900012    2    1    2    0    0  0.36208154211E+02 -0.23265894987E+02 -0.55938728820E+01  0.47787265966E+02  0.19999976844E+02 0.  0.
         12    1    1    2    0    0 -0.36208154211E+02  0.23265894987E+02  0.55938728820E+01  0.43400734034E+02  0.00000000000E+00 0. -1.
         11    1    3    3    0    0  0.27130174896E+01  0.19341629539E+01 -0.13009985355E-01  0.33319093253E+01  0.51100000000E-03 0. -1.
        -11    1    3    3    0    0  0.17264987198E+02 -0.14608819482E+02  0.37847353853E+01  0.22930800505E+02  0.51100000000E-03 0.  1.
        -12    1    3    3    0    0  0.16230149523E+02 -0.10591238459E+02 -0.93655982819E+01  0.21524556135E+02  0.00000000000E+00 0.  1.
</event>
<event>
 7    1  0.2706925E-010  0.4778727E+02  0.7816164E-02  0.1312668E+00
        -11   -1    0    0    0    0  0.00000000000E+00  0.00000000000E+00  0.45593999997E+02  0.45594000000E+02  0.51100000000E-03 0. -1.
         11   -1    0    0    0    0 -0.00000000000E+00 -0.00000000000E+00 -0.45593999997E+02  0.45594000000E+02  0.51100000000E-03 0.  1.
    9900012    2    1    2    0    0 -0.22264205745E+02 -0.32365107745E+02 -0.18450697142E+02  0.47787270953E+02  0.19999999584E+02 0.  0.
         12    1    1    2    0    0  0.22264205745E+02  0.32365107745E+02  0.18450697142E+02  0.43400729047E+02  0.00000000000E+00 0. -1.
         11    1    3    3    0    0 -0.55178517923E+00 -0.17503688903E+00  0.83690488722E+00  0.10176025000E+01  0.51100000000E-03 0. -1.
        -11    1    3    3    0    0 -0.16047646263E+02 -0.93345774208E+01 -0.49983839877E+01  0.19226157416E+02  0.51100000000E-03 0.  1.
        -12    1    3    3    0    0 -0.56647743025E+01 -0.22855493435E+02 -0.14289218041E+02  0.27543511038E+02  0.00000000000E+00 0.  1.
</event>
<event>
 7    1  0.2706925E-010  0.4778727E+02  0.7816164E-02  0.1312668E+00
        -11   -1    0    0    0    0  0.00000000000E+00  0.00000000000E+00  0.45593999997E+02  0.45594000000E+02  0.51100000000E-03 0. -1.
         11   -1    0    0    0    0 -0.00000000000E+00 -0.00000000000E+00 -0.45593999997E+02  0.45594000000E+02  0.51100000000E-03 0.  1.
    9900012    2    1    2    0    0  0.28326933198E+02  0.25883086171E+02 -0.20279893578E+02  0.47787269848E+02  0.19999994546E+02 0.  0.
         12    1    1    2    0    0 -0.28326933198E+02 -0.25883086171E+02  0.20279893578E+02  0.43400730152E+02  0.00000000000E+00 0. -1.
         11    1    3    3    0    0  0.47835425676E+01  0.11278599101E+02  0.61310286246E-01  0.12251238158E+02  0.51100000000E-03 0. -1.
        -11    1    3    3    0    0  0.20363719084E+02  0.13899208606E+02 -0.20787220120E+02  0.32248683312E+02  0.51100000000E-03 0.  1.
        -12    1    3    3    0    0  0.31796715468E+01  0.70527846447E+00  0.44601625620E+00  0.32873483780E+01  0.00000000000E+00 0.  1.
</event>
<event>
 7    1  0.2706925E-010  0.4778728E+02  0.7816164E-02  0.1312668E+00
        -11   -1    0    0    0    0  0.00000000000E+00  0.00000000000E+00  0.45593999997E+02  0.45594000000E+02  0.51100000000E-03 0.  1.
         11   -1    0    0    0    0 -0.00000000000E+00 -0.00000000000E+00 -0.45593999997E+02  0.45594000000E+02  0.51100000000E-03 0. -1.
    9900012    2    1    2    0    0  0.30000304704E+02 -0.31238184466E+02  0.27892582475E+01  0.47787280967E+02  0.20000045239E+02 0.  0.
         12    1    1    2    0    0 -0.30000304704E+02  0.31238184466E+02 -0.27892582475E+01  0.43400719033E+02  0.00000000000E+00 0. -1.
         11    1    3    3    0    0  0.39341236644E+01  0.99409890513E+00  0.34364391507E+01  0.53173937167E+01  0.51100000000E-03 0. -1.
        -11    1    3    3    0    0  0.69839962778E+01 -0.15362889653E+02 -0.18165536784E+01  0.16973345281E+02  0.51100000000E-03 0.  1.
         12    1    3    3    0    0  0.19082184762E+02 -0.16869393718E+02  0.11693727752E+01  0.25496541969E+02  0.00000000000E+00 0. -1.
</event>
<event>
 7    1  0.2706925E-010  0.4778727E+02  0.7816164E-02  0.1312668E+00
        -11   -1    0    0    0    0  0.00000000000E+00  0.00000000000E+00  0.45593999997E+02  0.45594000000E+02  0.51100000000E-03 0. -1.
         11   -1    0    0    0    0 -0.00000000000E+00 -0.00000000000E+00 -0.45593999997E+02  0.45594000000E+02  0.51100000000E-03 0.  1.
    9900012    2    1    2    0    0 -0.11333080372E+02 -0.39892128711E+02 -0.12798531201E+02  0.47787273684E+02  0.20000012035E+02 0.  0.
         12    1    1    2    0    0  0.11333080372E+02  0.39892128711E+02  0.12798531201E+02  0.43400726316E+02  0.00000000000E+00 0. -1.
         11    1    3    3    0    0  0.31522048833E+01 -0.30097359892E+01 -0.52695461663E+01  0.68383494654E+01  0.51100000000E-03 0.  1.
        -11    1    3    3    0    0 -0.90307418552E+01 -0.19471113691E+02 -0.72427393895E+00  0.21475640615E+02  0.51100000000E-03 0. -1.
        -12    1    3    3    0    0 -0.54545434003E+01 -0.17411279031E+02 -0.68047110959E+01  0.19473283603E+02  0.00000000000E+00 0.  1.
</event>
<event>
 7    1  0.2706925E-010  0.4778728E+02  0.7816164E-02  0.1312668E+00
        -11   -1    0    0    0    0  0.00000000000E+00  0.00000000000E+00  0.45593999997E+02  0.45594000000E+02  0.51100000000E-03 0. -1.
         11   -1    0    0    0    0 -0.00000000000E+00 -0.00000000000E+00 -0.45593999997E+02  0.45594000000E+02  0.51100000000E-03 0.  1.
    9900012    2    1    2    0    0 -0.21867189883E+01 -0.35662496240E+02 -0.24637927573E+02  0.47787275892E+02  0.20000022100E+02 0.  0.
         12    1    1    2    0    0  0.21867189883E+01  0.35662496240E+02  0.24637927573E+02  0.43400724108E+02  0.00000000000E+00 0. -1.
         11    1    3    3    0    0  0.16956678889E+01 -0.22115385438E+02 -0.85897773115E+01  0.23785496362E+02  0.51100000000E-03 0. -1.
        -11    1    3    3    0    0 -0.10474107704E+01 -0.13132483948E+02 -0.78923540421E+01  0.15357358385E+02  0.51100000000E-03 0.  1.
         12    1    3    3    0    0 -0.28349761067E+01 -0.41462685445E+00 -0.81557962199E+01  0.86444211451E+01  0.00000000000E+00 0. -1.
</event>
<event>
 7    1  0.2706925E-010  0.4778727E+02  0.7816164E-02  0.1312668E+00
        -11   -1    0    0    0    0  0.00000000000E+00  0.00000000000E+00  0.45593999997E+02  0.45594000000E+02  0.51100000000E-03 0. -1.
         11   -1    0    0    0    0 -0.00000000000E+00 -0.00000000000E+00 -0.45593999997E+02  0.45594000000E+02  0.51100000000E-03 0.  1.
    9900012    2    1    2    0    0 -0.40971673339E+00 -0.88079921759E+01 -0.42495585888E+02  0.47787269431E+02  0.19999992645E+02 0.  0.
         12    1    1    2    0    0  0.40971673339E+00  0.88079921759E+01  0.42495585888E+02  0.43400730569E+02  0.00000000000E+00 0. -1.
         11    1    3    3    0    0  0.51972420140E+01  0.12519263455E+01 -0.59106762178E+01  0.79696133996E+01  0.51100000000E-03 0. -1.
        -11    1    3    3    0    0 -0.39774323250E+01 -0.10475026961E+02 -0.18315326572E+02  0.21470848736E+02  0.51100000000E-03 0.  1.
         12    1    3    3    0    0 -0.16295264224E+01  0.41510843992E+00 -0.18269583098E+02  0.18346807296E+02  0.00000000000E+00 0. -1.
</event>
<event>
 7    1  0.2706925E-010  0.4778727E+02  0.7816164E-02  0.1312668E+00
        -11   -1    0    0    0    0  0.00000000000E+00  0.00000000000E+00  0.45593999997E+02  0.45594000000E+02  0.51100000000E-03 0. -1.
         11   -1    0    0    0    0 -0.00000000000E+00 -0.00000000000E+00 -0.45593999997E+02  0.45594000000E+02  0.51100000000E-03 0.  1.
    9900012    2    1    2    0    0  0.37972098910E+02  0.81110682953E+01 -0.19389519637E+02  0.47787271939E+02  0.20000004077E+02 0.  0.
         12    1    1    2    0    0 -0.37972098910E+02 -0.81110682953E+01  0.19389519637E+02  0.43400728061E+02  0.00000000000E+00 0. -1.
         11    1    3    3    0    0  0.14372053572E+02  0.11364146678E+02 -0.10151481998E+02  0.20946415937E+02  0.51100000000E-03 0. -1.
        -11    1    3    3    0    0  0.14559078905E+02 -0.51342033648E+01 -0.30820581770E+01  0.15742487276E+02  0.51100000000E-03 0.  1.
        -12    1    3    3    0    0  0.90409664327E+01  0.18811249821E+01 -0.61559794618E+01  0.11098368726E+02  0.00000000000E+00 0.  1.
</event>
<event>
 7    1  0.2706925E-010  0.4778727E+02  0.7816164E-02  0.1312668E+00
        -11   -1    0    0    0    0  0.00000000000E+00  0.00000000000E+00  0.45593999997E+02  0.45594000000E+02  0.51100000000E-03 0.  1.
         11   -1    0    0    0    0 -0.00000000000E+00 -0.00000000000E+00 -0.45593999997E+02  0.45594000000E+02  0.51100000000E-03 0. -1.
    9900012    2    1    2    0    0  0.11054559182E+02  0.24263844260E+02  0.34244503978E+02  0.47787268789E+02  0.19999989715E+02 0.  0.
         12    1    1    2    0    0 -0.11054559182E+02 -0.24263844260E+02 -0.34244503978E+02  0.43400731211E+02  0.00000000000E+00 0. -1.
         11    1    3    3    0    0  0.64914864133E-01  0.90954401602E+01  0.23528690157E+01  0.93950645827E+01  0.51100000000E-03 0. -1.
        -11    1    3    3    0    0  0.75293245641E+01  0.12016693547E+02  0.30290236151E+02  0.33445329398E+02  0.51100000000E-03 0.  1.
        -12    1    3    3    0    0  0.34603197541E+01  0.31517105536E+01  0.16013988107E+01  0.49468748079E+01  0.00000000000E+00 0.  1.
</event>
<event>
 7    1  0.2706925E-010  0.4778727E+02  0.7816164E-02  0.1312668E+00
        -11   -1    0    0    0    0  0.00000000000E+00  0.00000000000E+00  0.45593999997E+02  0.45594000000E+02  0.51100000000E-03 0. -1.
         11   -1    0    0    0    0 -0.00000000000E+00 -0.00000000000E+00 -0.45593999997E+02  0.45594000000E+02  0.51100000000E-03 0.  1.
    9900012    2    1    2    0    0 -0.25500823307E+02 -0.31720121318E+02 -0.15071993868E+02  0.47787273221E+02  0.20000009926E+02 0.  0.
         12    1    1    2    0    0  0.25500823307E+02  0.31720121318E+02  0.15071993868E+02  0.43400726779E+02  0.00000000000E+00 0. -1.
         11    1    3    3    0    0 -0.12856216411E+02 -0.22602689066E+02 -0.26928993920E+00  0.26004545194E+02  0.51100000000E-03 0. -1.
        -11    1    3    3    0    0 -0.70322577956E+01 -0.56572743938E+01 -0.10779210639E+02  0.14058761878E+02  0.51100000000E-03 0.  1.
         12    1    3    3    0    0 -0.56123491009E+01 -0.34601578582E+01 -0.40234932899E+01  0.77239661501E+01  0.00000000000E+00 0. -1.
</event>
<event>
 7    1  0.2706925E-010  0.4778727E+02  0.7816164E-02  0.1312668E+00
        -11   -1    0    0    0    0  0.00000000000E+00  0.00000000000E+00  0.45593999997E+02  0.45594000000E+02  0.51100000000E-03 0.  1.
         11   -1    0    0    0    0 -0.00000000000E+00 -0.00000000000E+00 -0.45593999997E+02  0.45594000000E+02  0.51100000000E-03 0. -1.
    9900012    2    1    2    0    0  0.14443570102E+02 -0.33777292470E+02  0.23110626014E+02  0.47787271450E+02  0.20000001851E+02 0.  0.
         12    1    1    2    0    0 -0.14443570102E+02  0.33777292470E+02 -0.23110626014E+02  0.43400728550E+02  0.00000000000E+00 0. -1.
         11    1    3    3    0    0  0.73613262028E+01 -0.51894257183E+01  0.60598081333E+01  0.10855438159E+02  0.51100000000E-03 0. -1.
        -11    1    3    3    0    0  0.75820082321E+01 -0.30164719681E+02  0.16298296957E+02  0.35114550350E+02  0.51100000000E-03 0.  1.
        -12    1    3    3    0    0 -0.49976433334E+00  0.15768529296E+01  0.75252092322E+00  0.18172829417E+01  0.00000000000E+00 0.  1.
</event>
<event>
 7    1  0.2706925E-010  0.4778727E+02  0.7816164E-02  0.1312668E+00
        -11   -1    0    0    0    0  0.00000000000E+00  0.00000000000E+00  0.45593999997E+02  0.45594000000E+02  0.51100000000E-03 0.  1.
         11   -1    0    0    0    0 -0.00000000000E+00 -0.00000000000E+00 -0.45593999997E+02  0.45594000000E+02  0.51100000000E-03 0. -1.
    9900012    2    1    2    0    0  0.30785728738E+02 -0.27289375564E+01  0.30469901837E+02  0.47787272908E+02  0.20000008497E+02 0.  0.
         12    1    1    2    0    0 -0.30785728738E+02  0.27289375564E+01 -0.30469901837E+02  0.43400727092E+02  0.00000000000E+00 0. -1.
         11    1    3    3    0    0 -0.86831128033E+00 -0.20326785528E+01  0.42630561033E+01  0.48020198021E+01  0.51100000000E-03 0. -1.
        -11    1    3    3    0    0  0.29224958535E+02 -0.16304050928E+01  0.27425744942E+02  0.40111443604E+02  0.51100000000E-03 0.  1.
        -12    1    3    3    0    0  0.24290814838E+01  0.93414608931E+00 -0.12188992084E+01  0.28738095016E+01  0.00000000000E+00 0.  1.
</event>
<event>
 7    1  0.2706925E-010  0.4778727E+02  0.7816164E-02  0.1312668E+00
        -11   -1    0    0    0    0  0.00000000000E+00  0.00000000000E+00  0.45593999997E+02  0.45594000000E+02  0.51100000000E-03 0. -1.
         11   -1    0    0    0    0 -0.00000000000E+00 -0.00000000000E+00 -0.45593999997E+02  0.45594000000E+02  0.51100000000E-03 0.  1.
    9900012    2    1    2    0    0  0.33862020522E+01 -0.21466171824E+02 -0.37568072303E+02  0.47787274733E+02  0.20000016818E+02 0.  0.
         12    1    1    2    0    0 -0.33862020522E+01  0.21466171824E+02  0.37568072303E+02  0.43400725267E+02  0.00000000000E+00 0. -1.
         11    1    3    3    0    0 -0.54477698158E+00  0.27465695507E+01 -0.14001712669E+01  0.31306398858E+01  0.51100000000E-03 0. -1.
        -11    1    3    3    0    0  0.36402375659E+01 -0.90802184381E+01 -0.21305806466E+02  0.23444382821E+02  0.51100000000E-03 0.  1.
         12    1    3    3    0    0  0.29074146786E+00 -0.15132522936E+02 -0.14862094570E+02  0.21212252026E+02  0.00000000000E+00 0. -1.
</event>
<event>
 7    1  0.2706925E-010  0.4778726E+02  0.7816164E-02  0.1312668E+00
        -11   -1    0    0    0    0  0.00000000000E+00  0.00000000000E+00  0.45593999997E+02  0.45594000000E+02  0.51100000000E-03 0. -1.
         11   -1    0    0    0    0 -0.00000000000E+00 -0.00000000000E+00 -0.45593999997E+02  0.45594000000E+02  0.51100000000E-03 0.  1.
    9900012    2    1    2    0    0 -0.23341293284E+02 -0.57322695501E-01 -0.36589683739E+02  0.47787260212E+02  0.19999950609E+02 0.  0.
         12    1    1    2    0    0  0.23341293284E+02  0.57322695501E-01  0.36589683739E+02  0.43400739788E+02  0.00000000000E+00 0. -1.
         11    1    3    3    0    0  0.21582869281E+00 -0.95460006019E+00  0.56100642214E+00  0.11280832267E+01  0.51100000000E-03 0. -1.
        -11    1    3    3    0    0 -0.11043878054E+02  0.81754246270E+01 -0.17385540674E+02  0.22159915051E+02  0.51100000000E-03 0.  1.
        -12    1    3    3    0    0 -0.12513243923E+02 -0.72781472623E+01 -0.19765149487E+02  0.24499261934E+02  0.00000000000E+00 0.  1.
</event>
<event>
 7    1  0.2706925E-010  0.4778728E+02  0.7816164E-02  0.1312668E+00
        -11   -1    0    0    0    0  0.00000000000E+00  0.00000000000E+00  0.45593999997E+02  0.45594000000E+02  0.51100000000E-03 0.  1.
         11   -1    0    0    0    0 -0.00000000000E+00 -0.00000000000E+00 -0.45593999997E+02  0.45594000000E+02  0.51100000000E-03 0. -1.
    9900012    2    1    2    0    0 -0.27666558274E+02 -0.13844809470E+02  0.30438553298E+02  0.47787277393E+02  0.20000028944E+02 0.  0.
         12    1    1    2    0    0  0.27666558274E+02  0.13844809470E+02 -0.30438553298E+02  0.43400722607E+02  0.00000000000E+00 0. -1.
         11    1    3    3    0    0 -0.14654162744E+01  0.21647523464E+01  0.76019928739E+01  0.80388987737E+01  0.51100000000E-03 0. -1.
        -11    1    3    3    0    0 -0.22671133814E+02 -0.12930582737E+02  0.13689524538E+02  0.29471738338E+02  0.51100000000E-03 0.  1.
        -12    1    3    3    0    0 -0.35300081852E+01 -0.30789790795E+01  0.91470358858E+01  0.10276640281E+02  0.00000000000E+00 0.  1.
</event>
<event>
 7    1  0.2706925E-010  0.4778727E+02  0.7816164E-02  0.1312668E+00
        -11   -1    0    0    0    0  0.00000000000E+00  0.00000000000E+00  0.45593999997E+02  0.45594000000E+02  0.51100000000E-03 0.  1.
         11   -1    0    0    0    0 -0.00000000000E+00 -0.00000000000E+00 -0.45593999997E+02  0.45594000000E+02  0.51100000000E-03 0. -1.
    9900012    2    1    2    0    0 -0.30365132576E+02 -0.12408253155E+02  0.28418611775E+02  0.47787268233E+02  0.19999987180E+02 0.  0.
         12    1    1    2    0    0  0.30365132576E+02  0.12408253155E+02 -0.28418611775E+02  0.43400731767E+02  0.00000000000E+00 0. -1.
         11    1    3    3    0    0 -0.89565200870E+01  0.37658792684E+01  0.33555404533E+01  0.10279141536E+02  0.51100000000E-03 0. -1.
        -11    1    3    3    0    0 -0.21606832002E+02 -0.14401558617E+02  0.22345849084E+02  0.34257802780E+02  0.51100000000E-03 0.  1.
         12    1    3    3    0    0  0.19821951298E+00 -0.17725738054E+01  0.27172222373E+01  0.32503239158E+01  0.00000000000E+00 0. -1.
</event>
<event>
 7    1  0.2706925E-010  0.4778727E+02  0.7816164E-02  0.1312668E+00
        -11   -1    0    0    0    0  0.00000000000E+00  0.00000000000E+00  0.45593999997E+02  0.45594000000E+02  0.51100000000E-03 0.  1.
         11   -1    0    0    0    0 -0.00000000000E+00 -0.00000000000E+00 -0.45593999997E+02  0.45594000000E+02  0.51100000000E-03 0. -1.
    9900012    2    1    2    0    0  0.34489589931E+02 -0.54752276749E+00  0.26339923377E+02  0.47787272376E+02  0.20000006071E+02 0.  0.
         12    1    1    2    0    0 -0.34489589931E+02  0.54752276749E+00 -0.26339923377E+02  0.43400727624E+02  0.00000000000E+00 0. -1.
         11    1    3    3    0    0 -0.22827914394E+00 -0.56036429552E+00  0.18129990185E+01  0.19113045842E+01  0.51100000000E-03 0. -1.
        -11    1    3    3    0    0  0.58541071732E+01  0.39515508496E+01 -0.10118226150E+01  0.71350620304E+01  0.51100000000E-03 0.  1.
        -12    1    3    3    0    0  0.28863761902E+02 -0.39387093215E+01  0.25538746973E+02  0.38740905761E+02  0.00000000000E+00 0.  1.
</event>
<event>
 7    1  0.2706925E-010  0.4778727E+02  0.7816164E-02  0.1312668E+00
        -11   -1    0    0    0    0  0.00000000000E+00  0.00000000000E+00  0.45593999997E+02  0.45594000000E+02  0.51100000000E-03 0. -1.
         11   -1    0    0    0    0 -0.00000000000E+00 -0.00000000000E+00 -0.45593999997E+02  0.45594000000E+02  0.51100000000E-03 0.  1.
    9900012    2    1    2    0    0 -0.16391469510E+02  0.30290672114E+02 -0.26408670068E+02  0.47787274838E+02  0.20000017295E+02 0.  0.
         12    1    1    2    0    0  0.16391469510E+02 -0.30290672114E+02  0.26408670068E+02  0.43400725162E+02  0.00000000000E+00 0. -1.
         11    1    3    3    0    0 -0.21946419101E+01  0.19793548520E+02 -0.16940207454E+02  0.26145203097E+02  0.51100000000E-03 0. -1.
        -11    1    3    3    0    0 -0.14344256839E+02  0.73861356277E+01 -0.66824300573E+01  0.17463320861E+02  0.51100000000E-03 0.  1.
        -12    1    3    3    0    0  0.14742923873E+00  0.31109879664E+01 -0.27860325572E+01  0.41787508800E+01  0.00000000000E+00 0.  1.
</event>
<event>
 7    1  0.2706925E-010  0.4778727E+02  0.7816164E-02  0.1312668E+00
        -11   -1    0    0    0    0  0.00000000000E+00  0.00000000000E+00  0.45593999997E+02  0.45594000000E+02  0.51100000000E-03 0.  1.
         11   -1    0    0    0    0 -0.00000000000E+00 -0.00000000000E+00 -0.45593999997E+02  0.45594000000E+02  0.51100000000E-03 0. -1.
    9900012    2    1    2    0    0  0.45021654606E+01  0.26588737526E+02  0.34005773526E+02  0.47787273161E+02  0.20000009652E+02 0.  0.
         12    1    1    2    0    0 -0.45021654606E+01 -0.26588737526E+02 -0.34005773526E+02  0.43400726839E+02  0.00000000000E+00 0. -1.
         11    1    3    3    0    0  0.94821846413E+01  0.85168553860E+01  0.19587755703E+02  0.23369399328E+02  0.51100000000E-03 0. -1.
        -11    1    3    3    0    0 -0.18124305100E+01  0.14187218728E+02  0.84036869954E+01  0.16588671887E+02  0.51100000000E-03 0.  1.
         12    1    3    3    0    0 -0.31675886706E+01  0.38846634114E+01  0.60143308274E+01  0.78292019458E+01  0.00000000000E+00 0. -1.
</event>
<event>
 7    1  0.2706925E-010  0.4778727E+02  0.7816164E-02  0.1312668E+00
        -11   -1    0    0    0    0  0.00000000000E+00  0.00000000000E+00  0.45593999997E+02  0.45594000000E+02  0.51100000000E-03 0.  1.
         11   -1    0    0    0    0 -0.00000000000E+00 -0.00000000000E+00 -0.45593999997E+02  0.45594000000E+02  0.51100000000E-03 0. -1.
    9900012    2    1    2    0    0 -0.20622775129E+02  0.48612634000E+00  0.38184924334E+02  0.47787267066E+02  0.19999981861E+02 0.  0.
         12    1    1    2    0    0  0.20622775129E+02 -0.48612634000E+00 -0.38184924334E+02  0.43400732934E+02  0.00000000000E+00 0. -1.
         11    1    3    3    0    0  0.20008663964E+01 -0.28345220025E+00  0.74180179771E+01  0.76883549903E+01  0.51100000000E-03 0. -1.
        -11    1    3    3    0    0 -0.22155782211E+01 -0.39472344030E+01  0.35355810856E+01  0.57436730548E+01  0.51100000000E-03 0.  1.
         12    1    3    3    0    0 -0.20408063304E+02  0.47168129433E+01  0.27231325271E+02  0.34355239021E+02  0.00000000000E+00 0. -1.
</event>
<event>
 7    1  0.2706925E-010  0.4778727E+02  0.7816164E-02  0.1312668E+00
        -11   -1    0    0    0    0  0.00000000000E+00  0.00000000000E+00  0.45593999997E+02  0.45594000000E+02  0.51100000000E-03 0.  1.
         11   -1    0    0    0    0 -0.00000000000E+00 -0.00000000000E+00 -0.45593999997E+02  0.45594000000E+02  0.51100000000E-03 0. -1.
    9900012    2    1    2    0    0 -0.21041496558E+02  0.34922528498E+02  0.14876008484E+02  0.47787271867E+02  0.20000003749E+02 0.  0.
         12    1    1    2    0    0  0.21041496558E+02 -0.34922528498E+02 -0.14876008484E+02  0.43400728133E+02  0.00000000000E+00 0. -1.
         11    1    3    3    0    0 -0.13126882234E+02  0.27047900623E+02  0.64377727858E+01  0.30746526373E+02  0.51100000000E-03 0. -1.
        -11    1    3    3    0    0 -0.92356538872E+01  0.30064251634E+01  0.61952027747E+01  0.11520261832E+02  0.51100000000E-03 0.  1.
         12    1    3    3    0    0  0.13210395634E+01  0.48682027113E+01  0.22430329238E+01  0.55204836621E+01  0.00000000000E+00 0. -1.
</event>
<event>
 7    1 -0.2706925E-010  0.4778727E+02  0.7816164E-02  0.1312668E+00
        -11   -1    0    0    0    0  0.00000000000E+00  0.00000000000E+00  0.45593999997E+02  0.45594000000E+02  0.51100000000E-03 0. -1.
         11   -1    0    0    0    0 -0.00000000000E+00 -0.00000000000E+00 -0.45593999997E+02  0.45594000000E+02  0.51100000000E-03 0.  1.
    9900012    2    1    2    0    0  0.24727961113E+02 -0.30680032243E+02 -0.18190298045E+02  0.47787269796E+02  0.19999994309E+02 0.  0.
         12    1    1    2    0    0 -0.24727961113E+02  0.30680032243E+02  0.18190298045E+02  0.43400730204E+02  0.00000000000E+00 0. -1.
         11    1    3    3    0    0 -0.82240952690E+00 -0.93405700922E+01 -0.22241531249E+01  0.96368804320E+01  0.51100000000E-03 0. -1.
        -11    1    3    3    0    0  0.90300965004E+01 -0.86996348714E+01 -0.11082266576E+01  0.12587869410E+02  0.51100000000E-03 0.  1.
         12    1    3    3    0    0  0.16520274139E+02 -0.12639827280E+02 -0.14857918263E+02  0.25562519954E+02  0.00000000000E+00 0. -1.
</event>
<event>
 7    1  0.2706925E-010  0.4778727E+02  0.7816164E-02  0.1312668E+00
        -11   -1    0    0    0    0  0.00000000000E+00  0.00000000000E+00  0.45593999997E+02  0.45594000000E+02  0.51100000000E-03 0.  1.
         11   -1    0    0    0    0 -0.00000000000E+00 -0.00000000000E+00 -0.45593999997E+02  0.45594000000E+02  0.51100000000E-03 0. -1.
    9900012    2    1    2    0    0  0.31543137518E+02  0.23909212917E+02  0.17804585923E+02  0.47787271127E+02  0.20000000379E+02 0.  0.
         12    1    1    2    0    0 -0.31543137518E+02 -0.23909212917E+02 -0.17804585923E+02  0.43400728873E+02  0.00000000000E+00 0. -1.
         11    1    3    3    0    0  0.19587463515E+02  0.48672949449E+01  0.40721828103E+01  0.20589850901E+02  0.51100000000E-03 0. -1.
        -11    1    3    3    0    0  0.11723626862E+02  0.13839086362E+02  0.94311214295E+01  0.20442842019E+02  0.51100000000E-03 0.  1.
         12    1    3    3    0    0  0.23204714063E+00  0.52028316109E+01  0.43012816831E+01  0.67545782077E+01  0.00000000000E+00 0. -1.
</event>
<event>
 7    1  0.2706925E-010  0.4778729E+02  0.7816164E-02  0.1312668E+00
        -11   -1    0    0    0    0  0.00000000000E+00  0.00000000000E+00  0.45593999997E+02  0.45594000000E+02  0.51100000000E-03 0.  1.
         11   -1    0    0    0    0 -0.00000000000E+00 -0.00000000000E+00 -0.45593999997E+02  0.45594000000E+02  0.51100000000E-03 0. -1.
    9900012    2    1    2    0    0  0.39400513093E+02  0.31839733781E+01 -0.17918810918E+02  0.47787286836E+02  0.20000071999E+02 0.  0.
         12    1    1    2    0    0 -0.39400513093E+02 -0.31839733781E+01  0.17918810918E+02  0.43400713164E+02  0.00000000000E+00 0. -1.
         11    1    3    3    0    0 -0.52574453136E+00 -0.23055232973E+00 -0.12039102085E+01  0.13337772453E+01  0.51100000000E-03 0. -1.
        -11    1    3    3    0    0  0.52854191655E+01 -0.46547695066E+01 -0.61479049296E+01  0.93487576821E+01  0.51100000000E-03 0.  1.
        -12    1    3    3    0    0  0.34640838459E+02  0.80692952145E+01 -0.10566995780E+02  0.37104751908E+02  0.00000000000E+00 0.  1.
</event>
<event>
 7    1  0.2706925E-010  0.4778727E+02  0.7816164E-02  0.1312668E+00
        -11   -1    0    0    0    0  0.00000000000E+00  0.00000000000E+00  0.45593999997E+02  0.45594000000E+02  0.51100000000E-03 0.  1.
         11   -1    0    0    0    0 -0.00000000000E+00 -0.00000000000E+00 -0.45593999997E+02  0.45594000000E+02  0.51100000000E-03 0. -1.
    9900012    2    1    2    0    0 -0.20731280215E+02 -0.12893805508E+01  0.38107411284E+02  0.47787271016E+02  0.19999999871E+02 0.  0.
         12    1    1    2    0    0  0.20731280215E+02  0.12893805508E+01 -0.38107411284E+02  0.43400728984E+02  0.00000000000E+00 0. -1.
         11    1    3    3    0    0 -0.96586516293E+01  0.56777531852E+01  0.27607457293E+02  0.29794263391E+02  0.51100000000E-03 0. -1.
        -11    1    3    3    0    0 -0.38843454314E+01 -0.51119294308E+01  0.77789618544E+01  0.10086238631E+02  0.51100000000E-03 0.  1.
         12    1    3    3    0    0 -0.71882831544E+01 -0.18552043053E+01  0.27209921362E+01  0.79067689942E+01  0.00000000000E+00 0. -1.
</event>
<event>
 7    1  0.2706925E-010  0.4778727E+02  0.7816164E-02  0.1312668E+00
        -11   -1    0    0    0    0  0.00000000000E+00  0.00000000000E+00  0.45593999997E+02  0.45594000000E+02  0.51100000000E-03 0.  1.
         11   -1    0    0    0    0 -0.00000000000E+00 -0.00000000000E+00 -0.45593999997E+02  0.45594000000E+02  0.51100000000E-03 0. -1.
    9900012    2    1    2    0    0 -0.40209683933E+02  0.49995359149E+01  0.15550213191E+02  0.47787272222E+02  0.20000005371E+02 0.  0.
         12    1    1    2    0    0  0.40209683933E+02 -0.49995359149E+01 -0.15550213191E+02  0.43400727778E+02  0.00000000000E+00 0. -1.
         11    1    3    3    0    0 -0.58563282816E+01  0.40819698697E+00 -0.35426514841E+01  0.68566453548E+01  0.51100000000E-03 0. -1.
        -11    1    3    3    0    0 -0.25905899226E+02  0.35295581359E+01  0.19163770500E+02  0.32416407812E+02  0.51100000000E-03 0.  1.
        -12    1    3    3    0    0 -0.84474564247E+01  0.10617807920E+01 -0.70905824826E-01  0.85142190560E+01  0.00000000000E+00 0.  1.
</event>
<event>
 7    1  0.2828834E-010  0.4778727E+02  0.7816164E-02  0.1312668E+00
        -11   -1    0    0    0    0  0.00000000000E+00  0.00000000000E+00  0.45593999997E+02  0.45594000000E+02  0.51100000000E-03 0.  1.
         11   -1    0    0    0    0 -0.00000000000E+00 -0.00000000000E+00 -0.45593999997E+02  0.45594000000E+02  0.51100000000E-03 0. -1.
    9900012    2    1    2    0    0 -0.36196767400E+02  0.10100742952E+02  0.21711570462E+02  0.47787271086E+02  0.20000000188E+02 0.  0.
         12    1    1    2    0    0  0.36196767400E+02 -0.10100742952E+02 -0.21711570462E+02  0.43400728914E+02  0.00000000000E+00 0. -1.
         11    1    3    3    0    0 -0.29492087132E+00  0.22793509201E+01 -0.19035282501E+01  0.29842652358E+01  0.51100000000E-03 0. -1.
        -11    1    3    3    0    0 -0.25701490823E+02  0.93026226634E+00  0.16989039730E+02  0.30823035049E+02  0.51100000000E-03 0.  1.
        -12    1    3    3    0    0 -0.10200355705E+02  0.68911297658E+01  0.66260589816E+01  0.13979970801E+02  0.00000000000E+00 0.  1.
</event>
<event>
 7    1  0.2706925E-010  0.4778728E+02  0.7816164E-02  0.1312668E+00
        -11   -1    0    0    0    0  0.00000000000E+00  0.00000000000E+00  0.45593999997E+02  0.45594000000E+02  0.51100000000E-03 0.  1.
         11   -1    0    0    0    0 -0.00000000000E+00 -0.00000000000E+00 -0.45593999997E+02  0.45594000000E+02  0.51100000000E-03 0. -1.
    9900012    2    1    2    0    0  0.97404074223E+01 -0.32595106677E+02  0.26950071652E+02  0.47787275605E+02  0.20000020792E+02 0.  0.
         12    1    1    2    0    0 -0.97404074223E+01  0.32595106677E+02 -0.26950071652E+02  0.43400724395E+02  0.00000000000E+00 0. -1.
         11    1    3    3    0    0 -0.26841709261E+01 -0.12825321723E+02  0.80535840724E+01  0.15380307784E+02  0.51100000000E-03 0. -1.
        -11    1    3    3    0    0  0.12049366943E+02 -0.79231785875E+01  0.93363361617E+01  0.17179382289E+02  0.51100000000E-03 0.  1.
        -12    1    3    3    0    0  0.37521140529E+00 -0.11846606366E+02  0.95601514174E+01  0.15227585531E+02  0.00000000000E+00 0.  1.
</event>
<event>
 7    1  0.2706925E-010  0.4778729E+02  0.7816164E-02  0.1312668E+00
        -11   -1    0    0    0    0  0.00000000000E+00  0.00000000000E+00  0.45593999997E+02  0.45594000000E+02  0.51100000000E-03 0.  1.
         11   -1    0    0    0    0 -0.00000000000E+00 -0.00000000000E+00 -0.45593999997E+02  0.45594000000E+02  0.51100000000E-03 0. -1.
    9900012    2    1    2    0    0 -0.23270388159E+02 -0.34847565723E+02  0.11302990271E+02  0.47787292737E+02  0.20000098905E+02 0.  0.
         12    1    1    2    0    0  0.23270388159E+02  0.34847565723E+02 -0.11302990271E+02  0.43400707263E+02  0.00000000000E+00 0. -1.
         11    1    3    3    0    0 -0.16062473804E+02 -0.26715932512E+02  0.12156141695E+02  0.33459167591E+02  0.51100000000E-03 0.  1.
        -11    1    3    3    0    0 -0.22934063001E+01 -0.62557732305E+01 -0.43991820570E+01  0.79841852559E+01  0.51100000000E-03 0. -1.
        -12    1    3    3    0    0 -0.49145080545E+01 -0.18758599803E+01  0.35460306334E+01  0.63439398907E+01  0.00000000000E+00 0.  1.
</event>
<event>
 7    1  0.2706925E-010  0.4778725E+02  0.7816164E-02  0.1312668E+00
        -11   -1    0    0    0    0  0.00000000000E+00  0.00000000000E+00  0.45593999997E+02  0.45594000000E+02  0.51100000000E-03 0.  1.
         11   -1    0    0    0    0 -0.00000000000E+00 -0.00000000000E+00 -0.45593999997E+02  0.45594000000E+02  0.51100000000E-03 0. -1.
    9900012    2    1    2    0    0 -0.17380303697E+02  0.35731448566E+02  0.17458907851E+02  0.47787253042E+02  0.19999917917E+02 0.  0.
         12    1    1    2    0    0  0.17380303697E+02 -0.35731448566E+02 -0.17458907851E+02  0.43400746958E+02  0.00000000000E+00 0. -1.
         11    1    3    3    0    0 -0.13010635874E+02  0.20314641844E+02  0.62188453353E+01  0.24912554198E+02  0.51100000000E-03 0. -1.
        -11    1    3    3    0    0  0.59025085513E+00  0.12468152608E+01  0.71953822344E+01  0.73264227374E+01  0.51100000000E-03 0.  1.
        -12    1    3    3    0    0 -0.49599186774E+01  0.14169991461E+02  0.40446802817E+01  0.15548276106E+02  0.00000000000E+00 0.  1.
</event>
<event>
 7    1  0.2706925E-010  0.4778727E+02  0.7816164E-02  0.1312668E+00
        -11   -1    0    0    0    0  0.00000000000E+00  0.00000000000E+00  0.45593999997E+02  0.45594000000E+02  0.51100000000E-03 0. -1.
         11   -1    0    0    0    0 -0.00000000000E+00 -0.00000000000E+00 -0.45593999997E+02  0.45594000000E+02  0.51100000000E-03 0.  1.
    9900012    2    1    2    0    0 -0.40882933061E+01  0.10829796162E+02 -0.41828513938E+02  0.47787271834E+02  0.20000003599E+02 0.  0.
         12    1    1    2    0    0  0.40882933061E+01 -0.10829796162E+02  0.41828513938E+02  0.43400728166E+02  0.00000000000E+00 0. -1.
         11    1    3    3    0    0 -0.14591288869E+01  0.17102018115E+01  0.89161710673E+00  0.24184351699E+01  0.51100000000E-03 0. -1.
        -11    1    3    3    0    0 -0.69838923384E+01  0.82176608990E+01 -0.31749178815E+02  0.33530807603E+02  0.51100000000E-03 0.  1.
         12    1    3    3    0    0  0.43547279192E+01  0.90193345127E+00 -0.10970952230E+02  0.11838029061E+02  0.00000000000E+00 0. -1.
</event>
<event>
 7    1  0.2706925E-010  0.4778726E+02  0.7816164E-02  0.1312668E+00
        -11   -1    0    0    0    0  0.00000000000E+00  0.00000000000E+00  0.45593999997E+02  0.45594000000E+02  0.51100000000E-03 0. -1.
         11   -1    0    0    0    0 -0.00000000000E+00 -0.00000000000E+00 -0.45593999997E+02  0.45594000000E+02  0.51100000000E-03 0.  1.
    9900012    2    1    2    0    0  0.36238547538E+02  0.23023840220E+02  0.63477971527E+01  0.47787261817E+02  0.19999957926E+02 0.  0.
         12    1    1    2    0    0 -0.36238547538E+02 -0.23023840220E+02 -0.63477971527E+01  0.43400738183E+02  0.00000000000E+00 0. -1.
         11    1    3    3    0    0  0.10261794912E+02  0.17284586572E+02  0.62924979690E+01  0.21063164500E+02  0.51100000000E-03 0. -1.
        -11    1    3    3    0    0  0.10160787501E+02  0.26503804300E+01 -0.11541426895E+01  0.10564003250E+02  0.51100000000E-03 0.  1.
         12    1    3    3    0    0  0.15815965126E+02  0.30888732185E+01  0.12094418731E+01  0.16160094067E+02  0.00000000000E+00 0. -1.
</event>
<event>
 7    1  0.2706925E-010  0.4778727E+02  0.7816164E-02  0.1312668E+00
        -11   -1    0    0    0    0  0.00000000000E+00  0.00000000000E+00  0.45593999997E+02  0.45594000000E+02  0.51100000000E-03 0.  1.
         11   -1    0    0    0    0 -0.00000000000E+00 -0.00000000000E+00 -0.45593999997E+02  0.45594000000E+02  0.51100000000E-03 0. -1.
    9900012    2    1    2    0    0  0.29466870349E+02  0.31764731912E+02 -0.25157054448E+01  0.47787269413E+02  0.19999992562E+02 0.  0.
         12    1    1    2    0    0 -0.29466870349E+02 -0.31764731912E+02  0.25157054448E+01  0.43400730587E+02  0.00000000000E+00 0. -1.
         11    1    3    3    0    0  0.10878903567E+02  0.42072659335E+00 -0.25129019730E+01  0.11173281983E+02  0.51100000000E-03 0. -1.
        -11    1    3    3    0    0  0.11487586970E+01  0.23118450511E+01  0.90216068696E+00  0.27346239687E+01  0.51100000000E-03 0.  1.
         12    1    3    3    0    0  0.17439208086E+02  0.29032160267E+02 -0.90496415873E+00  0.33879363462E+02  0.00000000000E+00 0. -1.
</event>
<event>
 7    1  0.2706925E-010  0.4778727E+02  0.7816164E-02  0.1312668E+00
        -11   -1    0    0    0    0  0.00000000000E+00  0.00000000000E+00  0.45593999997E+02  0.45594000000E+02  0.51100000000E-03 0.  1.
         11   -1    0    0    0    0 -0.00000000000E+00 -0.00000000000E+00 -0.45593999997E+02  0.45594000000E+02  0.51100000000E-03 0. -1.
    9900012    2    1    2    0    0 -0.21062712017E+02 -0.31075959506E+02  0.21777738530E+02  0.47787274290E+02  0.20000014797E+02 0.  0.
         12    1    1    2    0    0  0.21062712017E+02  0.31075959506E+02 -0.21777738530E+02  0.43400725710E+02  0.00000000000E+00 0. -1.
         11    1    3    3    0    0 -0.18821836184E+01 -0.33020172726E+00 -0.51160688556E+00  0.19782290617E+01  0.51100000000E-03 0. -1.
        -11    1    3    3    0    0 -0.19718108670E+02 -0.18134876445E+02  0.11307546620E+02  0.29078138936E+02  0.51100000000E-03 0.  1.
        -12    1    3    3    0    0  0.53758027172E+00 -0.12610881334E+02  0.10981798795E+02  0.16730906292E+02  0.00000000000E+00 0.  1.
</event>
<event>
 7    1  0.2706925E-010  0.4778726E+02  0.7816164E-02  0.1312668E+00
        -11   -1    0    0    0    0  0.00000000000E+00  0.00000000000E+00  0.45593999997E+02  0.45594000000E+02  0.51100000000E-03 0.  1.
         11   -1    0    0    0    0 -0.00000000000E+00 -0.00000000000E+00 -0.45593999997E+02  0.45594000000E+02  0.51100000000E-03 0. -1.
    9900012    2    1    2    0    0  0.35529733582E+02 -0.20970724621E+02 -0.13471869536E+02  0.47787256592E+02  0.19999934108E+02 0.  0.
         12    1    1    2    0    0 -0.35529733582E+02  0.20970724621E+02  0.13471869536E+02  0.43400743408E+02  0.00000000000E+00 0. -1.
         11    1    3    3    0    0  0.42443774190E+01  0.37502167189E+01 -0.12245905005E+01  0.57946947520E+01  0.51100000000E-03 0. -1.
        -11    1    3    3    0    0  0.24397086123E+02 -0.17612743731E+02 -0.74797373886E+01  0.31006015944E+02  0.51100000000E-03 0.  1.
         12    1    3    3    0    0  0.68882700396E+01 -0.71081976084E+01 -0.47675416469E+01  0.10986545896E+02  0.00000000000E+00 0. -1.
</event>
<event>
 7    1  0.2706925E-010  0.4778727E+02  0.7816164E-02  0.1312668E+00
        -11   -1    0    0    0    0  0.00000000000E+00  0.00000000000E+00  0.45593999997E+02  0.45594000000E+02  0.51100000000E-03 0.  1.
         11   -1    0    0    0    0 -0.00000000000E+00 -0.00000000000E+00 -0.45593999997E+02  0.45594000000E+02  0.51100000000E-03 0. -1.
    9900012    2    1    2    0    0 -0.38016522296E+02 -0.11316803588E+02  0.17615257170E+02  0.47787270788E+02  0.19999998833E+02 0.  0.
         12    1    1    2    0    0  0.38016522296E+02  0.11316803588E+02 -0.17615257170E+02  0.43400729212E+02  0.00000000000E+00 0. -1.
         11    1    3    3    0    0 -0.23287535243E+01 -0.48176462519E+01  0.15472093308E+01  0.55701584681E+01  0.51100000000E-03 0. -1.
        -11    1    3    3    0    0 -0.31737910529E+02 -0.10285399735E+02  0.12230701620E+02  0.35534131125E+02  0.51100000000E-03 0.  1.
        -12    1    3    3    0    0 -0.39498582434E+01  0.37862423996E+01  0.38373462191E+01  0.66829811953E+01  0.00000000000E+00 0.  1.
</event>
<event>
 7    1  0.2706925E-010  0.4778727E+02  0.7816164E-02  0.1312668E+00
        -11   -1    0    0    0    0  0.00000000000E+00  0.00000000000E+00  0.45593999997E+02  0.45594000000E+02  0.51100000000E-03 0.  1.
         11   -1    0    0    0    0 -0.00000000000E+00 -0.00000000000E+00 -0.45593999997E+02  0.45594000000E+02  0.51100000000E-03 0. -1.
    9900012    2    1    2    0    0  0.43843169922E+01 -0.30765518736E+02  0.30296601885E+02  0.47787268850E+02  0.19999989993E+02 0.  0.
         12    1    1    2    0    0 -0.43843169922E+01  0.30765518736E+02 -0.30296601885E+02  0.43400731150E+02  0.00000000000E+00 0. -1.
         11    1    3    3    0    0  0.62747136399E+01 -0.24488457667E+02  0.18420928665E+02  0.31279181628E+02  0.51100000000E-03 0. -1.
        -11    1    3    3    0    0 -0.20827558963E+01 -0.37933582312E+01  0.13053789681E+02  0.13752413028E+02  0.51100000000E-03 0.  1.
         12    1    3    3    0    0  0.19235924859E+00 -0.24837028381E+01 -0.11781164608E+01  0.27556741940E+01  0.00000000000E+00 0. -1.
</event>
<event>
 7    1  0.2706925E-010  0.4778728E+02  0.7816164E-02  0.1312668E+00
        -11   -1    0    0    0    0  0.00000000000E+00  0.00000000000E+00  0.45593999997E+02  0.45594000000E+02  0.51100000000E-03 0.  1.
         11   -1    0    0    0    0 -0.00000000000E+00 -0.00000000000E+00 -0.45593999997E+02  0.45594000000E+02  0.51100000000E-03 0. -1.
    9900012    2    1    2    0    0 -0.19065114516E+02  0.11150702286E+02  0.37360488234E+02  0.47787276111E+02  0.20000023102E+02 0.  0.
         12    1    1    2    0    0  0.19065114516E+02 -0.11150702286E+02 -0.37360488234E+02  0.43400723889E+02  0.00000000000E+00 0. -1.
         11    1    3    3    0    0 -0.24940013393E+01 -0.26564536148E+01  0.68701645191E+01  0.77766283998E+01  0.51100000000E-03 0. -1.
        -11    1    3    3    0    0 -0.57682928329E+01 -0.25238228060E+01  0.82698814207E+01  0.10393932015E+02  0.51100000000E-03 0.  1.
         12    1    3    3    0    0 -0.10802820344E+02  0.16330978706E+02  0.22220442294E+02  0.29616715696E+02  0.00000000000E+00 0. -1.
</event>
<event>
 7    1  0.2706925E-010  0.4778727E+02  0.7816164E-02  0.1312668E+00
        -11   -1    0    0    0    0  0.00000000000E+00  0.00000000000E+00  0.45593999997E+02  0.45594000000E+02  0.51100000000E-03 0.  1.
         11   -1    0    0    0    0 -0.00000000000E+00 -0.00000000000E+00 -0.45593999997E+02  0.45594000000E+02  0.51100000000E-03 0. -1.
    9900012    2    1    2    0    0  0.17444992422E+02  0.23154691998E+02  0.32297920081E+02  0.47787272314E+02  0.20000005789E+02 0.  0.
         12    1    1    2    0    0 -0.17444992422E+02 -0.23154691998E+02 -0.32297920081E+02  0.43400727686E+02  0.00000000000E+00 0. -1.
         11    1    3    3    0    0 -0.15229499127E+00 -0.20061123776E+01  0.38872151613E+00  0.20490937788E+01  0.51100000000E-03 0. -1.
        -11    1    3    3    0    0  0.14690245465E+02  0.21084079757E+02  0.19198551139E+02  0.32076877921E+02  0.51100000000E-03 0.  1.
        -12    1    3    3    0    0  0.29070419478E+01  0.40767246178E+01  0.12710647426E+02  0.13661300614E+02  0.00000000000E+00 0.  1.
</event>
<event>
 7    1  0.2706925E-010  0.4778727E+02  0.7816164E-02  0.1312668E+00
        -11   -1    0    0    0    0  0.00000000000E+00  0.00000000000E+00  0.45593999997E+02  0.45594000000E+02  0.51100000000E-03 0.  1.
         11   -1    0    0    0    0 -0.00000000000E+00 -0.00000000000E+00 -0.45593999997E+02  0.45594000000E+02  0.51100000000E-03 0. -1.
    9900012    2    1    2    0    0  0.99900863694E+01 -0.29981344490E+02  0.29747949748E+02  0.47787270084E+02  0.19999995619E+02 0.  0.
         12    1    1    2    0    0 -0.99900863694E+01  0.29981344490E+02 -0.29747949748E+02  0.43400729916E+02  0.00000000000E+00 0. -1.
         11    1    3    3    0    0 -0.35619049395E+01 -0.59409644969E+01  0.74975778796E+01  0.10207639310E+02  0.51100000000E-03 0. -1.
        -11    1    3    3    0    0  0.81309037770E+01 -0.22414639383E+02  0.14242544891E+02  0.27773687910E+02  0.51100000000E-03 0.  1.
        -12    1    3    3    0    0  0.54210875318E+01 -0.16257406100E+01  0.80078269769E+01  0.98059428640E+01  0.00000000000E+00 0.  1.
</event>
<event>
 7    1  0.2706925E-010  0.4778728E+02  0.7816164E-02  0.1312668E+00
        -11   -1    0    0    0    0  0.00000000000E+00  0.00000000000E+00  0.45593999997E+02  0.45594000000E+02  0.51100000000E-03 0.  1.
         11   -1    0    0    0    0 -0.00000000000E+00 -0.00000000000E+00 -0.45593999997E+02  0.45594000000E+02  0.51100000000E-03 0. -1.
    9900012    2    1    2    0    0  0.17216129150E+02  0.32237544934E+02  0.23408726720E+02  0.47787275433E+02  0.20000020010E+02 0.  0.
         12    1    1    2    0    0 -0.17216129150E+02 -0.32237544934E+02 -0.23408726720E+02  0.43400724567E+02  0.00000000000E+00 0. -1.
         11    1    3    3    0    0  0.20371384667E+01  0.50198851011E+00 -0.24872835948E+01  0.32539983926E+01  0.51100000000E-03 0. -1.
        -11    1    3    3    0    0  0.75478891429E+01  0.21534477977E+02  0.12384872632E+02  0.25963232515E+02  0.51100000000E-03 0.  1.
         12    1    3    3    0    0  0.76311015399E+01  0.10201078447E+02  0.13511137682E+02  0.18570044525E+02  0.00000000000E+00 0. -1.
</event>
<event>
 7    1  0.2706925E-010  0.4778727E+02  0.7816164E-02  0.1312668E+00
        -11   -1    0    0    0    0  0.00000000000E+00  0.00000000000E+00  0.45593999997E+02  0.45594000000E+02  0.51100000000E-03 0. -1.
         11   -1    0    0    0    0 -0.00000000000E+00 -0.00000000000E+00 -0.45593999997E+02  0.45594000000E+02  0.51100000000E-03 0.  1.
    9900012    2    1    2    0    0  0.70169354138E+01 -0.37943521432E+01 -0.42661325726E+02  0.47787271855E+02  0.20000003696E+02 0.  0.
         12    1    1    2    0    0 -0.70169354138E+01  0.37943521432E+01  0.42661325726E+02  0.43400728145E+02  0.00000000000E+00 0. -1.
         11    1    3    3    0    0 -0.31480298963E+01  0.47204047993E+01 -0.43415897694E+01  0.71443485136E+01  0.51100000000E-03 0. -1.
        -11    1    3    3    0    0  0.72295406642E+01 -0.49977793477E+01 -0.28124593258E+02  0.29465858256E+02  0.51100000000E-03 0.  1.
         12    1    3    3    0    0  0.29354246458E+01 -0.35169775948E+01 -0.10195142699E+02  0.11177065085E+02  0.00000000000E+00 0. -1.
</event>
<event>
 7    1  0.2706925E-010  0.4778727E+02  0.7816164E-02  0.1312668E+00
        -11   -1    0    0    0    0  0.00000000000E+00  0.00000000000E+00  0.45593999997E+02  0.45594000000E+02  0.51100000000E-03 0. -1.
         11   -1    0    0    0    0 -0.00000000000E+00 -0.00000000000E+00 -0.45593999997E+02  0.45594000000E+02  0.51100000000E-03 0.  1.
    9900012    2    1    2    0    0 -0.61289048323E+00  0.25058400379E+02 -0.35430552170E+02  0.47787273147E+02  0.20000009585E+02 0.  0.
         12    1    1    2    0    0  0.61289048323E+00 -0.25058400379E+02  0.35430552170E+02  0.43400726853E+02  0.00000000000E+00 0. -1.
         11    1    3    3    0    0 -0.56013180875E+01  0.55098393425E+00 -0.68810945340E+01  0.88897587065E+01  0.51100000000E-03 0. -1.
        -11    1    3    3    0    0  0.64952984218E+00  0.20330810786E+02 -0.20941286486E+02  0.29194198674E+02  0.51100000000E-03 0.  1.
         12    1    3    3    0    0  0.43388977620E+01  0.41766056589E+01 -0.76081711500E+01  0.97033157667E+01  0.00000000000E+00 0. -1.
</event>
<event>
 7    1  0.2706925E-010  0.4778728E+02  0.7816164E-02  0.1312668E+00
        -11   -1    0    0    0    0  0.00000000000E+00  0.00000000000E+00  0.45593999997E+02  0.45594000000E+02  0.51100000000E-03 0. -1.
         11   -1    0    0    0    0 -0.00000000000E+00 -0.00000000000E+00 -0.45593999997E+02  0.45594000000E+02  0.51100000000E-03 0.  1.
    9900012    2    1    2    0    0  0.15770523644E+02  0.31988289088E+02 -0.24731802107E+02  0.47787284681E+02  0.20000062176E+02 0.  0.
         12    1    1    2    0    0 -0.15770523644E+02 -0.31988289088E+02  0.24731802107E+02  0.43400715319E+02  0.00000000000E+00 0. -1.
         11    1    3    3    0    0  0.47843655248E+01  0.23935822540E+02 -0.11746104907E+02  0.27088461287E+02  0.51100000000E-03 0.  1.
        -11    1    3    3    0    0  0.87488117037E+01  0.98362291978E+01 -0.11473802534E+02  0.17462567277E+02  0.51100000000E-03 0. -1.
         12    1    3    3    0    0  0.22373464150E+01 -0.17837626506E+01 -0.15118946651E+01  0.32362561167E+01  0.00000000000E+00 0. -1.
</event>
<event>
 7    1  0.2706925E-010  0.4778727E+02  0.7816164E-02  0.1312668E+00
        -11   -1    0    0    0    0  0.00000000000E+00  0.00000000000E+00  0.45593999997E+02  0.45594000000E+02  0.51100000000E-03 0.  1.
         11   -1    0    0    0    0 -0.00000000000E+00 -0.00000000000E+00 -0.45593999997E+02  0.45594000000E+02  0.51100000000E-03 0. -1.
    9900012    2    1    2    0    0 -0.19266989514E+01  0.46868974934E+01  0.43103877102E+02  0.47787269612E+02  0.19999993470E+02 0.  0.
         12    1    1    2    0    0  0.19266989514E+01 -0.46868974934E+01 -0.43103877102E+02  0.43400730388E+02  0.00000000000E+00 0. -1.
         11    1    3    3    0    0 -0.51575802041E+01 -0.16900319021E+01  0.17437961271E+01  0.57006724679E+01  0.51100000000E-03 0. -1.
        -11    1    3    3    0    0  0.14538588277E+01  0.35694094258E+01  0.13838850951E+02  0.14365520702E+02  0.51100000000E-03 0.  1.
         12    1    3    3    0    0  0.17770224250E+01  0.28075199698E+01  0.27521230024E+02  0.27721076443E+02  0.00000000000E+00 0. -1.
</event>
<event>
 7    1  0.2706925E-010  0.4778727E+02  0.7816164E-02  0.1312668E+00
        -11   -1    0    0    0    0  0.00000000000E+00  0.00000000000E+00  0.45593999997E+02  0.45594000000E+02  0.51100000000E-03 0. -1.
         11   -1    0    0    0    0 -0.00000000000E+00 -0.00000000000E+00 -0.45593999997E+02  0.45594000000E+02  0.51100000000E-03 0.  1.
    9900012    2    1    2    0    0 -0.62583147919E+01 -0.83849219326E+01 -0.42120657592E+02  0.47787271713E+02  0.20000003048E+02 0.  0.
         12    1    1    2    0    0  0.62583147919E+01  0.83849219326E+01  0.42120657592E+02  0.43400728287E+02  0.00000000000E+00 0. -1.
         11    1    3    3    0    0 -0.76841931253E+01  0.48933991381E+01 -0.17011895655E+02  0.19297584646E+02  0.51100000000E-03 0. -1.
        -11    1    3    3    0    0  0.11143829936E+01 -0.68915501186E+01 -0.14704901192E+02  0.16277881675E+02  0.51100000000E-03 0.  1.
         12    1    3    3    0    0  0.31149533977E+00 -0.63867709521E+01 -0.10403860745E+02  0.12211805392E+02  0.00000000000E+00 0. -1.
</event>
<event>
 7    1  0.2706925E-010  0.4778727E+02  0.7816164E-02  0.1312668E+00
        -11   -1    0    0    0    0  0.00000000000E+00  0.00000000000E+00  0.45593999997E+02  0.45594000000E+02  0.51100000000E-03 0. -1.
         11   -1    0    0    0    0 -0.00000000000E+00 -0.00000000000E+00 -0.45593999997E+02  0.45594000000E+02  0.51100000000E-03 0.  1.
    9900012    2    1    2    0    0 -0.14269982284E+02 -0.11999984390E+02 -0.39191725016E+02  0.47787270403E+02  0.19999997077E+02 0.  0.
         12    1    1    2    0    0  0.14269982284E+02  0.11999984390E+02  0.39191725016E+02  0.43400729597E+02  0.00000000000E+00 0. -1.
         11    1    3    3    0    0 -0.80595620379E+00 -0.50868028596E+01 -0.25121443254E+01  0.57302703346E+01  0.51100000000E-03 0. -1.
        -11    1    3    3    0    0 -0.12945994981E+02 -0.33776087309E+01 -0.36018339914E+02  0.38423011818E+02  0.51100000000E-03 0.  1.
        -12    1    3    3    0    0 -0.51803110001E+00 -0.35355727993E+01 -0.66124077741E+00  0.36339882506E+01  0.00000000000E+00 0.  1.
</event>
<event>
 7    1  0.2706925E-010  0.4778727E+02  0.7816164E-02  0.1312668E+00
        -11   -1    0    0    0    0  0.00000000000E+00  0.00000000000E+00  0.45593999997E+02  0.45594000000E+02  0.51100000000E-03 0.  1.
         11   -1    0    0    0    0 -0.00000000000E+00 -0.00000000000E+00 -0.45593999997E+02  0.45594000000E+02  0.51100000000E-03 0. -1.
    9900012    2    1    2    0    0  0.26768680626E+02 -0.28676760973E+02  0.18566212262E+02  0.47787272815E+02  0.20000008074E+02 0.  0.
         12    1    1    2    0    0 -0.26768680626E+02  0.28676760973E+02 -0.18566212262E+02  0.43400727185E+02  0.00000000000E+00 0. -1.
         11    1    3    3    0    0  0.68527671881E+01 -0.84581642302E+01  0.29604566152E+01  0.11281190713E+02  0.51100000000E-03 0. -1.
        -11    1    3    3    0    0  0.19153353485E+02 -0.23020108237E+02  0.13161915162E+02  0.32711043150E+02  0.51100000000E-03 0.  1.
        -12    1    3    3    0    0  0.76255995372E+00  0.28015114937E+01  0.24438404853E+01  0.37950389524E+01  0.00000000000E+00 0.  1.
</event>
<event>
 7    1  0.2706925E-010  0.4778727E+02  0.7816164E-02  0.1312668E+00
        -11   -1    0    0    0    0  0.00000000000E+00  0.00000000000E+00  0.45593999997E+02  0.45594000000E+02  0.51100000000E-03 0.  1.
         11   -1    0    0    0    0 -0.00000000000E+00 -0.00000000000E+00 -0.45593999997E+02  0.45594000000E+02  0.51100000000E-03 0. -1.
    9900012    2    1    2    0    0 -0.29574838156E+02 -0.15410871445E+02  0.27775116396E+02  0.47787273030E+02  0.20000009055E+02 0.  0.
         12    1    1    2    0    0  0.29574838156E+02  0.15410871445E+02 -0.27775116396E+02  0.43400726970E+02  0.00000000000E+00 0. -1.
         11    1    3    3    0    0  0.61659297306E+00 -0.56174705770E+01  0.49771437529E+01  0.75304795848E+01  0.51100000000E-03 0. -1.
        -11    1    3    3    0    0 -0.18851172904E+02 -0.10427177602E+02  0.17345432510E+02  0.27657852083E+02  0.51100000000E-03 0.  1.
         12    1    3    3    0    0 -0.11340258225E+02  0.63377673392E+00  0.54525401332E+01  0.12598941363E+02  0.00000000000E+00 0. -1.
</event>
<event>
 7    1  0.2706925E-010  0.4778729E+02  0.7816164E-02  0.1312668E+00
        -11   -1    0    0    0    0  0.00000000000E+00  0.00000000000E+00  0.45593999997E+02  0.45594000000E+02  0.51100000000E-03 0.  1.
         11   -1    0    0    0    0 -0.00000000000E+00 -0.00000000000E+00 -0.45593999997E+02  0.45594000000E+02  0.51100000000E-03 0. -1.
    9900012    2    1    2    0    0 -0.24181014975E+02  0.32442921703E+02 -0.15695768879E+02  0.47787287857E+02  0.20000076655E+02 0.  0.
         12    1    1    2    0    0  0.24181014975E+02 -0.32442921703E+02  0.15695768879E+02  0.43400712143E+02  0.00000000000E+00 0. -1.
         11    1    3    3    0    0 -0.13662308014E+02  0.10787746929E+02 -0.86078880047E+01  0.19419832138E+02  0.51100000000E-03 0. -1.
        -11    1    3    3    0    0  0.22841590620E+01  0.31851668655E+01  0.16532572531E+01  0.42539311686E+01  0.51100000000E-03 0.  1.
        -12    1    3    3    0    0 -0.12802866023E+02  0.18470007908E+02 -0.87411381271E+01  0.24113524551E+02  0.00000000000E+00 0.  1.
</event>
<event>
 7    1  0.2706925E-010  0.4778727E+02  0.7816164E-02  0.1312668E+00
        -11   -1    0    0    0    0  0.00000000000E+00  0.00000000000E+00  0.45593999997E+02  0.45594000000E+02  0.51100000000E-03 0.  1.
         11   -1    0    0    0    0 -0.00000000000E+00 -0.00000000000E+00 -0.45593999997E+02  0.45594000000E+02  0.51100000000E-03 0. -1.
    9900012    2    1    2    0    0 -0.26322077313E+02  0.10851544916E+02  0.32756920758E+02  0.47787266841E+02  0.19999980837E+02 0.  0.
         12    1    1    2    0    0  0.26322077313E+02 -0.10851544916E+02 -0.32756920758E+02  0.43400733159E+02  0.00000000000E+00 0. -1.
         11    1    3    3    0    0 -0.18241729873E+02  0.12819570289E+02  0.16346922353E+02  0.27646409565E+02  0.51100000000E-03 0. -1.
        -11    1    3    3    0    0 -0.73253196538E+01 -0.44987221996E+01  0.14587774337E+02  0.16932275979E+02  0.51100000000E-03 0.  1.
         12    1    3    3    0    0 -0.75502778616E+00  0.25306968273E+01  0.18222240678E+01  0.32085812975E+01  0.00000000000E+00 0. -1.
</event>
<event>
 7    1  0.2706925E-010  0.4778726E+02  0.7816164E-02  0.1312668E+00
        -11   -1    0    0    0    0  0.00000000000E+00  0.00000000000E+00  0.45593999997E+02  0.45594000000E+02  0.51100000000E-03 0.  1.
         11   -1    0    0    0    0 -0.00000000000E+00 -0.00000000000E+00 -0.45593999997E+02  0.45594000000E+02  0.51100000000E-03 0. -1.
    9900012    2    1    2    0    0  0.29356108535E+02  0.32189287527E+01  0.31803800563E+02  0.47787258752E+02  0.19999943953E+02 0.  0.
         12    1    1    2    0    0 -0.29356108535E+02 -0.32189287527E+01 -0.31803800563E+02  0.43400741248E+02  0.00000000000E+00 0. -1.
         11    1    3    3    0    0  0.15602153122E+02  0.81557745887E+01  0.13065920237E+02  0.21924007687E+02  0.51100000000E-03 0. -1.
        -11    1    3    3    0    0  0.91437184578E+01  0.20651554492E+01  0.87489147892E+01  0.12822478876E+02  0.51100000000E-03 0.  1.
         12    1    3    3    0    0  0.46102369554E+01 -0.70020012852E+01  0.99889655370E+01  0.13040772189E+02  0.00000000000E+00 0. -1.
</event>
<event>
 7    1  0.2706925E-010  0.4778727E+02  0.7816164E-02  0.1312668E+00
        -11   -1    0    0    0    0  0.00000000000E+00  0.00000000000E+00  0.45593999997E+02  0.45594000000E+02  0.51100000000E-03 0.  1.
         11   -1    0    0    0    0 -0.00000000000E+00 -0.00000000000E+00 -0.45593999997E+02  0.45594000000E+02  0.51100000000E-03 0. -1.
    9900012    2    1    2    0    0  0.33936969700E+02  0.79463195952E+01  0.25860420535E+02  0.47787271230E+02  0.20000000847E+02 0.  0.
         12    1    1    2    0    0 -0.33936969700E+02 -0.79463195952E+01 -0.25860420535E+02  0.43400728770E+02  0.00000000000E+00 0. -1.
         11    1    3    3    0    0  0.22381389626E+02  0.10696367186E+02  0.12692461179E+02  0.27864627103E+02  0.51100000000E-03 0. -1.
        -11    1    3    3    0    0  0.13096784086E+02 -0.20729355135E+01  0.11483113092E+02  0.17540943578E+02  0.51100000000E-03 0.  1.
         12    1    3    3    0    0 -0.15412040129E+01 -0.67711207681E+00  0.16848462634E+01  0.23817005490E+01  0.00000000000E+00 0. -1.
</event>
<event>
 7    1  0.2706925E-010  0.4778727E+02  0.7816164E-02  0.1312668E+00
        -11   -1    0    0    0    0  0.00000000000E+00  0.00000000000E+00  0.45593999997E+02  0.45594000000E+02  0.51100000000E-03 0.  1.
         11   -1    0    0    0    0 -0.00000000000E+00 -0.00000000000E+00 -0.45593999997E+02  0.45594000000E+02  0.51100000000E-03 0. -1.
    9900012    2    1    2    0    0 -0.70652985875E+01 -0.19149176495E+02  0.38301618201E+02  0.47787270036E+02  0.19999995403E+02 0.  0.
         12    1    1    2    0    0  0.70652985875E+01  0.19149176495E+02 -0.38301618201E+02  0.43400729964E+02  0.00000000000E+00 0. -1.
         11    1    3    3    0    0  0.52130088760E+01 -0.13801817645E+02  0.23773183442E+02  0.27979097253E+02  0.51100000000E-03 0. -1.
        -11    1    3    3    0    0 -0.69134678806E+01 -0.36822925388E+01  0.89050094663E+01  0.11859785425E+02  0.51100000000E-03 0.  1.
         12    1    3    3    0    0 -0.53648395830E+01 -0.16650663111E+01  0.56234252932E+01  0.79483873584E+01  0.00000000000E+00 0. -1.
</event>
<event>
 7    1  0.2706925E-010  0.4778727E+02  0.7816164E-02  0.1312668E+00
        -11   -1    0    0    0    0  0.00000000000E+00  0.00000000000E+00  0.45593999997E+02  0.45594000000E+02  0.51100000000E-03 0.  1.
         11   -1    0    0    0    0 -0.00000000000E+00 -0.00000000000E+00 -0.45593999997E+02  0.45594000000E+02  0.51100000000E-03 0. -1.
    9900012    2    1    2    0    0 -0.11280016365E+02 -0.41365698635E+02 -0.67278217883E+01  0.47787269836E+02  0.19999994491E+02 0.  0.
         12    1    1    2    0    0  0.11280016365E+02  0.41365698635E+02  0.67278217883E+01  0.43400730164E+02  0.00000000000E+00 0. -1.
         11    1    3    3    0    0 -0.65810736880E+01 -0.38181252843E+01 -0.54569009583E+01  0.93630326232E+01  0.51100000000E-03 0. -1.
        -11    1    3    3    0    0 -0.15144894761E+01 -0.31033718537E+02 -0.44662825486E-01  0.31070683282E+02  0.51100000000E-03 0.  1.
         12    1    3    3    0    0 -0.31844532006E+01 -0.65138548137E+01 -0.12262580045E+01  0.73535539309E+01  0.00000000000E+00 0. -1.
</event>
<event>
 7    1  0.2706925E-010  0.4778727E+02  0.7816164E-02  0.1312668E+00
        -11   -1    0    0    0    0  0.00000000000E+00  0.00000000000E+00  0.45593999997E+02  0.45594000000E+02  0.51100000000E-03 0.  1.
         11   -1    0    0    0    0 -0.00000000000E+00 -0.00000000000E+00 -0.45593999997E+02  0.45594000000E+02  0.51100000000E-03 0. -1.
    9900012    2    1    2    0    0 -0.39903616640E+02 -0.99513688658E+01  0.13867052455E+02  0.47787268358E+02  0.19999987751E+02 0.  0.
         12    1    1    2    0    0  0.39903616640E+02  0.99513688658E+01 -0.13867052455E+02  0.43400731642E+02  0.00000000000E+00 0. -1.
         11    1    3    3    0    0 -0.20940727299E+02 -0.13913281058E+02  0.47854212483E+01  0.25592844828E+02  0.51100000000E-03 0. -1.
        -11    1    3    3    0    0 -0.15206132244E+02  0.80100119861E+00  0.58272983658E+01  0.16304154907E+02  0.51100000000E-03 0.  1.
         12    1    3    3    0    0 -0.37567570971E+01  0.31609109938E+01  0.32543328412E+01  0.58902686219E+01  0.00000000000E+00 0. -1.
</event>
<event>
 7    1  0.2706925E-010  0.4778723E+02  0.7816164E-02  0.1312668E+00
        -11   -1    0    0    0    0  0.00000000000E+00  0.00000000000E+00  0.45593999997E+02  0.45594000000E+02  0.51100000000E-03 0.  1.
         11   -1    0    0    0    0 -0.00000000000E+00 -0.00000000000E+00 -0.45593999997E+02  0.45594000000E+02  0.51100000000E-03 0. -1.
    9900012    2    1    2    0    0 -0.17718712172E+02  0.97224109325E+01  0.38407668211E+02  0.47787227970E+02  0.19999803607E+02 0.  0.
         12    1    1    2    0    0  0.17718712172E+02 -0.97224109325E+01 -0.38407668211E+02  0.43400772030E+02  0.00000000000E+00 0. -1.
         11    1    3    3    0    0 -0.15113000045E+02  0.50382397816E+01  0.19830979600E+02  0.25437263662E+02  0.51100000000E-03 0. -1.
        -11    1    3    3    0    0  0.10891103169E+01  0.47998631259E+01  0.17934945342E+02  0.18598040542E+02  0.51100000000E-03 0.  1.
        -12    1    3    3    0    0 -0.36948224438E+01 -0.11569197505E+00  0.64174326878E+00  0.37519237662E+01  0.00000000000E+00 0.  1.
</event>
<event>
 7    1  0.2706925E-010  0.4778726E+02  0.7816164E-02  0.1312668E+00
        -11   -1    0    0    0    0  0.00000000000E+00  0.00000000000E+00  0.45593999997E+02  0.45594000000E+02  0.51100000000E-03 0.  1.
         11   -1    0    0    0    0 -0.00000000000E+00 -0.00000000000E+00 -0.45593999997E+02  0.45594000000E+02  0.51100000000E-03 0. -1.
    9900012    2    1    2    0    0  0.72187729435E+01  0.42268229124E+02  0.67014942940E+01  0.47787263810E+02  0.19999967014E+02 0.  0.
         12    1    1    2    0    0 -0.72187729435E+01 -0.42268229124E+02 -0.67014942940E+01  0.43400736190E+02  0.00000000000E+00 0. -1.
         11    1    3    3    0    0  0.31446815927E+00  0.49126959078E+00 -0.33595370034E+01  0.34097984064E+01  0.51100000000E-03 0. -1.
        -11    1    3    3    0    0  0.77149406647E+01  0.21004551157E+02  0.63547905847E+01  0.23261445406E+02  0.51100000000E-03 0.  1.
         12    1    3    3    0    0 -0.81063588039E+00  0.20772408377E+02  0.37062407127E+01  0.21116019997E+02  0.00000000000E+00 0. -1.
</event>
<event>
 7    1  0.2706925E-010  0.4778727E+02  0.7816164E-02  0.1312668E+00
        -11   -1    0    0    0    0  0.00000000000E+00  0.00000000000E+00  0.45593999997E+02  0.45594000000E+02  0.51100000000E-03 0. -1.
         11   -1    0    0    0    0 -0.00000000000E+00 -0.00000000000E+00 -0.45593999997E+02  0.45594000000E+02  0.51100000000E-03 0.  1.
    9900012    2    1    2    0    0 -0.20794730856E+02  0.36993488015E+02  0.90930889519E+01  0.47787271279E+02  0.20000001067E+02 0.  0.
         12    1    1    2    0    0  0.20794730856E+02 -0.36993488015E+02 -0.90930889519E+01  0.43400728721E+02  0.00000000000E+00 0. -1.
         11    1    3    3    0    0 -0.13829806837E+01 -0.19677355367E+01 -0.13299175490E+01  0.27483267022E+01  0.51100000000E-03 0. -1.
        -11    1    3    3    0    0 -0.10520482821E+02  0.24266895035E+02  0.42509527916E+01  0.26788679574E+02  0.51100000000E-03 0.  1.
         12    1    3    3    0    0 -0.88912673508E+01  0.14694328516E+02  0.61720537093E+01  0.18250265002E+02  0.00000000000E+00 0. -1.
</event>
<event>
 7    1  0.2706925E-010  0.4778727E+02  0.7816164E-02  0.1312668E+00
        -11   -1    0    0    0    0  0.00000000000E+00  0.00000000000E+00  0.45593999997E+02  0.45594000000E+02  0.51100000000E-03 0.  1.
         11   -1    0    0    0    0 -0.00000000000E+00 -0.00000000000E+00 -0.45593999997E+02  0.45594000000E+02  0.51100000000E-03 0. -1.
    9900012    2    1    2    0    0  0.39688423955E+02 -0.15684962542E+02  0.79015294961E+01  0.47787271731E+02  0.20000003128E+02 0.  0.
         12    1    1    2    0    0 -0.39688423955E+02  0.15684962542E+02 -0.79015294961E+01  0.43400728269E+02  0.00000000000E+00 0. -1.
         11    1    3    3    0    0 -0.34456734597E+00 -0.44953184324E+00  0.84981582696E-02  0.56646095524E+00  0.51100000000E-03 0. -1.
        -11    1    3    3    0    0  0.22163285985E+02 -0.17594223885E+02  0.25074405858E+01  0.28408717295E+02  0.51100000000E-03 0.  1.
        -12    1    3    3    0    0  0.17869705316E+02  0.23587931872E+01  0.53855907521E+01  0.18812093481E+02  0.00000000000E+00 0.  1.
</event>
<event>
 7    1  0.2706925E-010  0.4778727E+02  0.7816164E-02  0.1312668E+00
        -11   -1    0    0    0    0  0.00000000000E+00  0.00000000000E+00  0.45593999997E+02  0.45594000000E+02  0.51100000000E-03 0.  1.
         11   -1    0    0    0    0 -0.00000000000E+00 -0.00000000000E+00 -0.45593999997E+02  0.45594000000E+02  0.51100000000E-03 0. -1.
    9900012    2    1    2    0    0  0.67082386213E+01 -0.32450939347E+02  0.28027830955E+02  0.47787271458E+02  0.20000001886E+02 0.  0.
         12    1    1    2    0    0 -0.67082386213E+01  0.32450939347E+02 -0.28027830955E+02  0.43400728542E+02  0.00000000000E+00 0. -1.
         11    1    3    3    0    0  0.69034700111E+01 -0.94815411877E+01  0.10805273537E+02  0.15947145762E+02  0.51100000000E-03 0. -1.
        -11    1    3    3    0    0 -0.67253157013E+01 -0.83116762612E+01  0.77641234482E+01  0.13213457032E+02  0.51100000000E-03 0.  1.
        -12    1    3    3    0    0  0.65300843116E+01 -0.14657721898E+02  0.94584339700E+01  0.18626668664E+02  0.00000000000E+00 0.  1.
</event>
<event>
 7    1  0.2706925E-010  0.4778727E+02  0.7816164E-02  0.1312668E+00
        -11   -1    0    0    0    0  0.00000000000E+00  0.00000000000E+00  0.45593999997E+02  0.45594000000E+02  0.51100000000E-03 0.  1.
         11   -1    0    0    0    0 -0.00000000000E+00 -0.00000000000E+00 -0.45593999997E+02  0.45594000000E+02  0.51100000000E-03 0. -1.
    9900012    2    1    2    0    0 -0.26214761914E+02  0.32404020952E+02  0.12099134017E+02  0.47787270052E+02  0.19999995473E+02 0.  0.
         12    1    1    2    0    0  0.26214761914E+02 -0.32404020952E+02 -0.12099134017E+02  0.43400729948E+02  0.00000000000E+00 0. -1.
         11    1    3    3    0    0 -0.16593850137E+02  0.19996494390E+02  0.84014635575E+00  0.25998490272E+02  0.51100000000E-03 0. -1.
        -11    1    3    3    0    0 -0.32298372256E+01 -0.94910799718E+00  0.42075739701E+01  0.53885372291E+01  0.51100000000E-03 0.  1.
         12    1    3    3    0    0 -0.63910745521E+01  0.13356634559E+02  0.70514136910E+01  0.16400242551E+02  0.00000000000E+00 0. -1.
</event>
<event>
 7    1  0.2706925E-010  0.4778727E+02  0.7816164E-02  0.1312668E+00
        -11   -1    0    0    0    0  0.00000000000E+00  0.00000000000E+00  0.45593999997E+02  0.45594000000E+02  0.51100000000E-03 0.  1.
         11   -1    0    0    0    0 -0.00000000000E+00 -0.00000000000E+00 -0.45593999997E+02  0.45594000000E+02  0.51100000000E-03 0. -1.
    9900012    2    1    2    0    0 -0.15285640005E+02  0.18192931316E+02  0.36317902494E+02  0.47787267497E+02  0.19999983827E+02 0.  0.
         12    1    1    2    0    0  0.15285640005E+02 -0.18192931316E+02 -0.36317902494E+02  0.43400732503E+02  0.00000000000E+00 0. -1.
         11    1    3    3    0    0 -0.10477241171E+01 -0.10055698602E+01  0.13066375544E+01  0.19535092856E+01  0.51100000000E-03 0. -1.
        -11    1    3    3    0    0 -0.87215082243E+01  0.99677387755E+01  0.53517940008E+01  0.14285034872E+02  0.51100000000E-03 0.  1.
        -12    1    3    3    0    0 -0.55164076633E+01  0.92307624005E+01  0.29659470939E+02  0.31548723340E+02  0.00000000000E+00 0.  1.
</event>
<event>
 7    1  0.2706925E-010  0.4778729E+02  0.7816164E-02  0.1312668E+00
        -11   -1    0    0    0    0  0.00000000000E+00  0.00000000000E+00  0.45593999997E+02  0.45594000000E+02  0.51100000000E-03 0. -1.
         11   -1    0    0    0    0 -0.00000000000E+00 -0.00000000000E+00 -0.45593999997E+02  0.45594000000E+02  0.51100000000E-03 0.  1.
    9900012    2    1    2    0    0  0.25670049460E+01  0.37045220180E+02 -0.22465158721E+02  0.47787294834E+02  0.20000108465E+02 0.  0.
         12    1    1    2    0    0 -0.25670049460E+01 -0.37045220180E+02  0.22465158721E+02  0.43400705166E+02  0.00000000000E+00 0. -1.
         11    1    3    3    0    0 -0.21934067580E+01  0.22272273435E+02 -0.98289674470E+01  0.24443277164E+02  0.51100000000E-03 0. -1.
        -11    1    3    3    0    0  0.26267786560E+01  0.58535663339E+01 -0.12637620629E+02  0.14172990523E+02  0.51100000000E-03 0.  1.
        -12    1    3    3    0    0  0.21336330481E+01  0.89193804102E+01  0.14293547147E-02  0.91710271469E+01  0.00000000000E+00 0.  1.
</event>
<event>
 7    1  0.2706925E-010  0.4778727E+02  0.7816164E-02  0.1312668E+00
        -11   -1    0    0    0    0  0.00000000000E+00  0.00000000000E+00  0.45593999997E+02  0.45594000000E+02  0.51100000000E-03 0.  1.
         11   -1    0    0    0    0 -0.00000000000E+00 -0.00000000000E+00 -0.45593999997E+02  0.45594000000E+02  0.51100000000E-03 0. -1.
    9900012    2    1    2    0    0  0.30748683885E+02  0.21777142815E+02  0.21538285235E+02  0.47787271426E+02  0.20000001742E+02 0.  0.
         12    1    1    2    0    0 -0.30748683885E+02 -0.21777142815E+02 -0.21538285235E+02  0.43400728574E+02  0.00000000000E+00 0. -1.
         11    1    3    3    0    0  0.25771244169E+02  0.15466095075E+02  0.99565392116E+01  0.31662119263E+02  0.51100000000E-03 0. -1.
        -11    1    3    3    0    0 -0.65897145857E+00  0.49961508416E+01  0.75276507969E+01  0.90587688676E+01  0.51100000000E-03 0.  1.
         12    1    3    3    0    0  0.56364111742E+01  0.13148968989E+01  0.40540952266E+01  0.70663832960E+01  0.00000000000E+00 0. -1.
</event>
<event>
 7    1  0.2706925E-010  0.4778727E+02  0.7816164E-02  0.1312668E+00
        -11   -1    0    0    0    0  0.00000000000E+00  0.00000000000E+00  0.45593999997E+02  0.45594000000E+02  0.51100000000E-03 0.  1.
         11   -1    0    0    0    0 -0.00000000000E+00 -0.00000000000E+00 -0.45593999997E+02  0.45594000000E+02  0.51100000000E-03 0. -1.
    9900012    2    1    2    0    0 -0.46902202820E+01 -0.85836198046E+01  0.42284114864E+02  0.47787273450E+02  0.20000010967E+02 0.  0.
         12    1    1    2    0    0  0.46902202820E+01  0.85836198046E+01 -0.42284114864E+02  0.43400726550E+02  0.00000000000E+00 0. -1.
         11    1    3    3    0    0  0.36938148572E+01  0.13519587635E+01  0.43721753669E+01  0.58811545123E+01  0.51100000000E-03 0. -1.
        -11    1    3    3    0    0 -0.66810221729E+01 -0.11320688342E+02  0.20474396371E+02  0.24330946320E+02  0.51100000000E-03 0.  1.
        -12    1    3    3    0    0 -0.17030129663E+01  0.13851097743E+01  0.17437543126E+02  0.17575172617E+02  0.00000000000E+00 0.  1.
</event>
<event>
 7    1  0.2706925E-010  0.4778727E+02  0.7816164E-02  0.1312668E+00
        -11   -1    0    0    0    0  0.00000000000E+00  0.00000000000E+00  0.45593999997E+02  0.45594000000E+02  0.51100000000E-03 0. -1.
         11   -1    0    0    0    0 -0.00000000000E+00 -0.00000000000E+00 -0.45593999997E+02  0.45594000000E+02  0.51100000000E-03 0.  1.
    9900012    2    1    2    0    0 -0.36443721871E+02 -0.17898933176E+02 -0.15333191680E+02  0.47787269134E+02  0.19999991289E+02 0.  0.
         12    1    1    2    0    0  0.36443721871E+02  0.17898933176E+02  0.15333191680E+02  0.43400730866E+02  0.00000000000E+00 0. -1.
         11    1    3    3    0    0  0.12449704890E+01 -0.11506322868E+01  0.22167123477E+00  0.17096913685E+01  0.51100000000E-03 0. -1.
        -11    1    3    3    0    0 -0.33877785667E+02 -0.95492487043E+01 -0.13286503525E+02  0.37622117015E+02  0.51100000000E-03 0.  1.
        -12    1    3    3    0    0 -0.38109066930E+01 -0.71990521847E+01 -0.22683593899E+01  0.84554607504E+01  0.00000000000E+00 0.  1.
</event>
<event>
 7    1  0.2706925E-010  0.4778726E+02  0.7816164E-02  0.1312668E+00
        -11   -1    0    0    0    0  0.00000000000E+00  0.00000000000E+00  0.45593999997E+02  0.45594000000E+02  0.51100000000E-03 0.  1.
         11   -1    0    0    0    0 -0.00000000000E+00 -0.00000000000E+00 -0.45593999997E+02  0.45594000000E+02  0.51100000000E-03 0. -1.
    9900012    2    1    2    0    0  0.18369041710E+02 -0.35457095452E+02  0.16999908216E+02  0.47787260484E+02  0.19999951850E+02 0.  0.
         12    1    1    2    0    0 -0.18369041710E+02  0.35457095452E+02 -0.16999908216E+02  0.43400739516E+02  0.00000000000E+00 0. -1.
         11    1    3    3    0    0 -0.24450411873E+01 -0.73679080909E+01  0.16406659695E+01  0.79344868220E+01  0.51100000000E-03 0. -1.
        -11    1    3    3    0    0  0.15895165569E+02 -0.27416668044E+02  0.14339958295E+02  0.34784542245E+02  0.51100000000E-03 0.  1.
        -12    1    3    3    0    0  0.49189173284E+01 -0.67251931713E+00  0.10192839516E+01  0.50682314163E+01  0.00000000000E+00 0.  1.
</event>
<event>
 7    1  0.2706925E-010  0.4778727E+02  0.7816164E-02  0.1312668E+00
        -11   -1    0    0    0    0  0.00000000000E+00  0.00000000000E+00  0.45593999997E+02  0.45594000000E+02  0.51100000000E-03 0.  1.
         11   -1    0    0    0    0 -0.00000000000E+00 -0.00000000000E+00 -0.45593999997E+02  0.45594000000E+02  0.51100000000E-03 0. -1.
    9900012    2    1    2    0    0 -0.33745235996E+02  0.41844561872E+01  0.26969847766E+02  0.47787270576E+02  0.19999997864E+02 0.  0.
         12    1    1    2    0    0  0.33745235996E+02 -0.41844561872E+01 -0.26969847766E+02  0.43400729424E+02  0.00000000000E+00 0. -1.
         11    1    3    3    0    0 -0.17908724381E+02  0.20208277416E+01  0.33714151906E+01  0.18335010073E+02  0.51100000000E-03 0. -1.
        -11    1    3    3    0    0 -0.90462858594E+01 -0.23922165814E+01  0.14053739540E+02  0.16883885315E+02  0.51100000000E-03 0.  1.
        -12    1    3    3    0    0 -0.67902257556E+01  0.45558450269E+01  0.95446930355E+01  0.12568375188E+02  0.00000000000E+00 0.  1.
</event>
<event>
 7    1  0.2706925E-010  0.4778727E+02  0.7816164E-02  0.1312668E+00
        -11   -1    0    0    0    0  0.00000000000E+00  0.00000000000E+00  0.45593999997E+02  0.45594000000E+02  0.51100000000E-03 0.  1.
         11   -1    0    0    0    0 -0.00000000000E+00 -0.00000000000E+00 -0.45593999997E+02  0.45594000000E+02  0.51100000000E-03 0. -1.
    9900012    2    1    2    0    0 -0.12135241522E+02  0.34522195608E+02  0.23336181296E+02  0.47787269201E+02  0.19999991595E+02 0.  0.
         12    1    1    2    0    0  0.12135241522E+02 -0.34522195608E+02 -0.23336181296E+02  0.43400730799E+02  0.00000000000E+00 0. -1.
         11    1    3    3    0    0  0.28285923570E+00  0.76177583584E+01  0.12994468296E+02  0.15065406012E+02  0.51100000000E-03 0. -1.
        -11    1    3    3    0    0 -0.27588853950E+01  0.16516751134E+02  0.69943045179E+01  0.18147584208E+02  0.51100000000E-03 0.  1.
         12    1    3    3    0    0 -0.96592153626E+01  0.10387686116E+02  0.33474084823E+01  0.14574278981E+02  0.00000000000E+00 0. -1.
</event>
<event>
 7    1  0.2706925E-010  0.4778727E+02  0.7816164E-02  0.1312668E+00
        -11   -1    0    0    0    0  0.00000000000E+00  0.00000000000E+00  0.45593999997E+02  0.45594000000E+02  0.51100000000E-03 0.  1.
         11   -1    0    0    0    0 -0.00000000000E+00 -0.00000000000E+00 -0.45593999997E+02  0.45594000000E+02  0.51100000000E-03 0. -1.
    9900012    2    1    2    0    0  0.20235064108E+02  0.13113657628E+02  0.36085976651E+02  0.47787267901E+02  0.19999985668E+02 0.  0.
         12    1    1    2    0    0 -0.20235064108E+02 -0.13113657628E+02 -0.36085976651E+02  0.43400732099E+02  0.00000000000E+00 0. -1.
         11    1    3    3    0    0  0.13174501613E+02  0.14794240440E+02  0.17015006737E+02  0.26114124482E+02  0.51100000000E-03 0. -1.
        -11    1    3    3    0    0  0.70800204322E+01 -0.13239202478E+01  0.19685785034E+02  0.20962098817E+02  0.51100000000E-03 0.  1.
         12    1    3    3    0    0 -0.19457936903E-01 -0.35666256367E+00 -0.61481511952E+00  0.71104460256E+00  0.00000000000E+00 0. -1.
</event>
<event>
 7    1  0.2706925E-010  0.4778727E+02  0.7816164E-02  0.1312668E+00
        -11   -1    0    0    0    0  0.00000000000E+00  0.00000000000E+00  0.45593999997E+02  0.45594000000E+02  0.51100000000E-03 0. -1.
         11   -1    0    0    0    0 -0.00000000000E+00 -0.00000000000E+00 -0.45593999997E+02  0.45594000000E+02  0.51100000000E-03 0.  1.
    9900012    2    1    2    0    0 -0.23972197406E+02 -0.26470415947E+02 -0.24663222548E+02  0.47787265959E+02  0.19999976814E+02 0.  0.
         12    1    1    2    0    0  0.23972197406E+02  0.26470415947E+02  0.24663222548E+02  0.43400734041E+02  0.00000000000E+00 0. -1.
         11    1    3    3    0    0 -0.53060576428E+01 -0.22351898582E+01 -0.44458229014E+01  0.72743152903E+01  0.51100000000E-03 0. -1.
        -11    1    3    3    0    0 -0.21988876528E+02 -0.20005580811E+02 -0.17249926670E+02  0.34369956720E+02  0.51100000000E-03 0.  1.
        -12    1    3    3    0    0  0.33227367656E+01 -0.42296452776E+01 -0.29674729764E+01  0.61429939487E+01  0.00000000000E+00 0.  1.
</event>
<event>
 7    1  0.2706925E-010  0.4778727E+02  0.7816164E-02  0.1312668E+00
        -11   -1    0    0    0    0  0.00000000000E+00  0.00000000000E+00  0.45593999997E+02  0.45594000000E+02  0.51100000000E-03 0. -1.
         11   -1    0    0    0    0 -0.00000000000E+00 -0.00000000000E+00 -0.45593999997E+02  0.45594000000E+02  0.51100000000E-03 0.  1.
    9900012    2    1    2    0    0 -0.19313362119E+02 -0.14680761381E+02 -0.35987396282E+02  0.47787269566E+02  0.19999993258E+02 0.  0.
         12    1    1    2    0    0  0.19313362119E+02  0.14680761381E+02  0.35987396282E+02  0.43400730434E+02  0.00000000000E+00 0. -1.
         11    1    3    3    0    0 -0.19077806014E+02 -0.10001367273E+02 -0.29133255541E+02  0.36231707224E+02  0.51100000000E-03 0.  1.
        -11    1    3    3    0    0  0.92306274808E+00 -0.19082887344E+01  0.15531171588E+01  0.26278858234E+01  0.51100000000E-03 0. -1.
        -12    1    3    3    0    0 -0.11586188532E+01 -0.27711053730E+01 -0.84072578995E+01  0.89276765188E+01  0.00000000000E+00 0.  1.
</event>
<event>
 7    1  0.2706925E-010  0.4778727E+02  0.7816164E-02  0.1312668E+00
        -11   -1    0    0    0    0  0.00000000000E+00  0.00000000000E+00  0.45593999997E+02  0.45594000000E+02  0.51100000000E-03 0. -1.
         11   -1    0    0    0    0 -0.00000000000E+00 -0.00000000000E+00 -0.45593999997E+02  0.45594000000E+02  0.51100000000E-03 0.  1.
    9900012    2    1    2    0    0  0.43224329643E+02  0.31881405728E+01  0.22619802677E+01  0.47787268806E+02  0.19999989795E+02 0.  0.
         12    1    1    2    0    0 -0.43224329643E+02 -0.31881405728E+01 -0.22619802677E+01  0.43400731194E+02  0.00000000000E+00 0. -1.
         11    1    3    3    0    0  0.47184267734E+01 -0.93163582706E+00 -0.20254107092E+01  0.52185999399E+01  0.51100000000E-03 0. -1.
        -11    1    3    3    0    0  0.94060698206E+01  0.68917712267E+01 -0.37560708702E+01  0.12250662380E+02  0.51100000000E-03 0.  1.
        -12    1    3    3    0    0  0.29099833049E+02 -0.27719948268E+01  0.80434618471E+01  0.30318006486E+02  0.00000000000E+00 0.  1.
</event>
<event>
 7    1  0.2706925E-010  0.4778727E+02  0.7816164E-02  0.1312668E+00
        -11   -1    0    0    0    0  0.00000000000E+00  0.00000000000E+00  0.45593999997E+02  0.45594000000E+02  0.51100000000E-03 0. -1.
         11   -1    0    0    0    0 -0.00000000000E+00 -0.00000000000E+00 -0.45593999997E+02  0.45594000000E+02  0.51100000000E-03 0.  1.
    9900012    2    1    2    0    0  0.33642249530E+02  0.23440690497E+02 -0.14225200717E+02  0.47787271206E+02  0.20000000736E+02 0.  0.
         12    1    1    2    0    0 -0.33642249530E+02 -0.23440690497E+02  0.14225200717E+02  0.43400728794E+02  0.00000000000E+00 0. -1.
         11    1    3    3    0    0  0.17979044499E+01  0.22596448782E+01 -0.72517736148E+01  0.78055541897E+01  0.51100000000E-03 0. -1.
        -11    1    3    3    0    0  0.13774072373E+02  0.51872232048E+01 -0.58048501140E+01  0.15821777378E+02  0.51100000000E-03 0.  1.
         12    1    3    3    0    0  0.18070272708E+02  0.15993822414E+02 -0.11685769882E+01  0.24159939638E+02  0.00000000000E+00 0. -1.
</event>
<event>
 7    1  0.2706925E-010  0.4778728E+02  0.7816164E-02  0.1312668E+00
        -11   -1    0    0    0    0  0.00000000000E+00  0.00000000000E+00  0.45593999997E+02  0.45594000000E+02  0.51100000000E-03 0.  1.
         11   -1    0    0    0    0 -0.00000000000E+00 -0.00000000000E+00 -0.45593999997E+02  0.45594000000E+02  0.51100000000E-03 0. -1.
    9900012    2    1    2    0    0 -0.19871004369E+01  0.18089811155E+00  0.43354833583E+02  0.47787275499E+02  0.20000020308E+02 0.  0.
         12    1    1    2    0    0  0.19871004369E+01 -0.18089811155E+00 -0.43354833583E+02  0.43400724501E+02  0.00000000000E+00 0. -1.
         11    1    3    3    0    0  0.10289308542E+01  0.27949904692E+01  0.62590739414E+00  0.30434241822E+01  0.51100000000E-03 0. -1.
        -11    1    3    3    0    0  0.34489235760E+01 -0.45301213279E+01  0.27587150793E+02  0.28168563368E+02  0.51100000000E-03 0.  1.
        -12    1    3    3    0    0 -0.64649548671E+01  0.19160289702E+01  0.15141775396E+02  0.16575287949E+02  0.00000000000E+00 0.  1.
</event>
<event>
 7    1  0.2706925E-010  0.4778726E+02  0.7816164E-02  0.1312668E+00
        -11   -1    0    0    0    0  0.00000000000E+00  0.00000000000E+00  0.45593999997E+02  0.45594000000E+02  0.51100000000E-03 0.  1.
         11   -1    0    0    0    0 -0.00000000000E+00 -0.00000000000E+00 -0.45593999997E+02  0.45594000000E+02  0.51100000000E-03 0. -1.
    9900012    2    1    2    0    0 -0.15948541772E+02 -0.90918564357E+01  0.39326913855E+02  0.47787262777E+02  0.19999962305E+02 0.  0.
         12    1    1    2    0    0  0.15948541772E+02  0.90918564357E+01 -0.39326913855E+02  0.43400737223E+02  0.00000000000E+00 0. -1.
         11    1    3    3    0    0 -0.61638187312E+01 -0.53979779545E+01  0.86560336541E+01  0.11918798019E+02  0.51100000000E-03 0. -1.
        -11    1    3    3    0    0 -0.83666326249E+01  0.31486229805E+01  0.75068275589E+01  0.11673338358E+02  0.51100000000E-03 0.  1.
        -12    1    3    3    0    0 -0.14180904162E+01 -0.68425014617E+01  0.23164052642E+02  0.24195126400E+02  0.00000000000E+00 0.  1.
</event>
<event>
 7    1  0.2706925E-010  0.4778727E+02  0.7816164E-02  0.1312668E+00
        -11   -1    0    0    0    0  0.00000000000E+00  0.00000000000E+00  0.45593999997E+02  0.45594000000E+02  0.51100000000E-03 0. -1.
         11   -1    0    0    0    0 -0.00000000000E+00 -0.00000000000E+00 -0.45593999997E+02  0.45594000000E+02  0.51100000000E-03 0.  1.
    9900012    2    1    2    0    0 -0.17018831782E+02 -0.31598854219E+02 -0.24402766152E+02  0.47787271676E+02  0.20000002878E+02 0.  0.
         12    1    1    2    0    0  0.17018831782E+02  0.31598854219E+02  0.24402766152E+02  0.43400728324E+02  0.00000000000E+00 0. -1.
         11    1    3    3    0    0 -0.13435552185E+02 -0.16019511291E+02 -0.18184605073E+02  0.27709541073E+02  0.51100000000E-03 0.  1.
        -11    1    3    3    0    0 -0.30008100093E+01 -0.40918053446E+01  0.24886681338E+01  0.56516547162E+01  0.51100000000E-03 0. -1.
         12    1    3    3    0    0 -0.58246958775E+00 -0.11487537583E+02 -0.87068292129E+01  0.14426075887E+02  0.00000000000E+00 0. -1.
</event>
<event>
 7    1  0.2706925E-010  0.4778729E+02  0.7816164E-02  0.1312668E+00
        -11   -1    0    0    0    0  0.00000000000E+00  0.00000000000E+00  0.45593999997E+02  0.45594000000E+02  0.51100000000E-03 0.  1.
         11   -1    0    0    0    0 -0.00000000000E+00 -0.00000000000E+00 -0.45593999997E+02  0.45594000000E+02  0.51100000000E-03 0. -1.
    9900012    2    1    2    0    0  0.41858602086E+00  0.57897345906E+01  0.43010755619E+02  0.47787293326E+02  0.20000101588E+02 0.  0.
         12    1    1    2    0    0 -0.41858602086E+00 -0.57897345906E+01 -0.43010755619E+02  0.43400706674E+02  0.00000000000E+00 0. -1.
         11    1    3    3    0    0 -0.52676890322E+01  0.64261829204E+01  0.10734165665E+02  0.13574486636E+02  0.51100000000E-03 0. -1.
        -11    1    3    3    0    0  0.14046761582E+00 -0.29916757221E+01  0.22712065343E+02  0.22908683227E+02  0.51100000000E-03 0.  1.
         12    1    3    3    0    0  0.55458074372E+01  0.23552273922E+01  0.95645246116E+01  0.11304123462E+02  0.00000000000E+00 0. -1.
</event>
<event>
 7    1  0.2706925E-010  0.4778727E+02  0.7816164E-02  0.1312668E+00
        -11   -1    0    0    0    0  0.00000000000E+00  0.00000000000E+00  0.45593999997E+02  0.45594000000E+02  0.51100000000E-03 0. -1.
         11   -1    0    0    0    0 -0.00000000000E+00 -0.00000000000E+00 -0.45593999997E+02  0.45594000000E+02  0.51100000000E-03 0.  1.
    9900012    2    1    2    0    0  0.24322455932E+02 -0.30531941568E+02 -0.18969506082E+02  0.47787268676E+02  0.19999989200E+02 0.  0.
         12    1    1    2    0    0 -0.24322455932E+02  0.30531941568E+02  0.18969506082E+02  0.43400731324E+02  0.00000000000E+00 0. -1.
         11    1    3    3    0    0  0.11661871226E+02 -0.12018326828E+02 -0.13764987070E+01  0.16802802421E+02  0.51100000000E-03 0.  1.
        -11    1    3    3    0    0  0.11080126835E+02 -0.10028061005E+02 -0.16536251747E+02  0.22288536073E+02  0.51100000000E-03 0. -1.
        -12    1    3    3    0    0  0.15804578715E+01 -0.84855537344E+01 -0.10567556285E+01  0.86959301815E+01  0.00000000000E+00 0.  1.
</event>
<event>
 7    1  0.2706925E-010  0.4778727E+02  0.7816164E-02  0.1312668E+00
        -11   -1    0    0    0    0  0.00000000000E+00  0.00000000000E+00  0.45593999997E+02  0.45594000000E+02  0.51100000000E-03 0. -1.
         11   -1    0    0    0    0 -0.00000000000E+00 -0.00000000000E+00 -0.45593999997E+02  0.45594000000E+02  0.51100000000E-03 0.  1.
    9900012    2    1    2    0    0  0.43023294353E+02  0.29626372396E+01  0.48828644067E+01  0.47787269116E+02  0.19999991209E+02 0.  0.
         12    1    1    2    0    0 -0.43023294353E+02 -0.29626372396E+01 -0.48828644067E+01  0.43400730884E+02  0.00000000000E+00 0. -1.
         11    1    3    3    0    0  0.20549938601E+02  0.11041070017E+01  0.95022180658E+01  0.22667403407E+02  0.51100000000E-03 0. -1.
        -11    1    3    3    0    0 -0.12129745939E+00  0.27327638354E+00 -0.23357898306E+01  0.23548476489E+01  0.51100000000E-03 0.  1.
        -12    1    3    3    0    0  0.22594653212E+02  0.15852538544E+01 -0.22835638285E+01  0.22765018061E+02  0.00000000000E+00 0.  1.
</event>
<event>
 7    1  0.2706925E-010  0.4778728E+02  0.7816164E-02  0.1312668E+00
        -11   -1    0    0    0    0  0.00000000000E+00  0.00000000000E+00  0.45593999997E+02  0.45594000000E+02  0.51100000000E-03 0.  1.
         11   -1    0    0    0    0 -0.00000000000E+00 -0.00000000000E+00 -0.45593999997E+02  0.45594000000E+02  0.51100000000E-03 0. -1.
    9900012    2    1    2    0    0  0.35956117146E+00  0.14130952818E+02  0.41034249367E+02  0.47787277277E+02  0.20000028415E+02 0.  0.
         12    1    1    2    0    0 -0.35956117146E+00 -0.14130952818E+02 -0.41034249367E+02  0.43400722723E+02  0.00000000000E+00 0. -1.
         11    1    3    3    0    0  0.35235959159E+01 -0.23047771921E+01  0.23198478559E+01  0.48072258548E+01  0.51100000000E-03 0. -1.
        -11    1    3    3    0    0 -0.12546238704E+01  0.14654068096E+02  0.24886281622E+02  0.28907487024E+02  0.51100000000E-03 0.  1.
        -12    1    3    3    0    0 -0.19094108741E+01  0.17816619146E+01  0.13828119889E+02  0.14072564397E+02  0.00000000000E+00 0.  1.
</event>
<event>
 7    1  0.2706925E-010  0.4778727E+02  0.7816164E-02  0.1312668E+00
        -11   -1    0    0    0    0  0.00000000000E+00  0.00000000000E+00  0.45593999997E+02  0.45594000000E+02  0.51100000000E-03 0.  1.
         11   -1    0    0    0    0 -0.00000000000E+00 -0.00000000000E+00 -0.45593999997E+02  0.45594000000E+02  0.51100000000E-03 0. -1.
    9900012    2    1    2    0    0 -0.39435865256E+02 -0.16181939953E+02  0.81597109632E+01  0.47787268070E+02  0.19999986436E+02 0.  0.
         12    1    1    2    0    0  0.39435865256E+02  0.16181939953E+02 -0.81597109632E+01  0.43400731930E+02  0.00000000000E+00 0. -1.
         11    1    3    3    0    0 -0.17945765095E+02 -0.13984131444E+02 -0.12578080433E+01  0.22785708205E+02  0.51100000000E-03 0. -1.
        -11    1    3    3    0    0 -0.16897058440E+02  0.13595311255E+01  0.49099748464E+01  0.17648420951E+02  0.51100000000E-03 0.  1.
         12    1    3    3    0    0 -0.45930417202E+01 -0.35573396345E+01  0.45075441601E+01  0.73531389130E+01  0.00000000000E+00 0. -1.
</event>
<event>
 7    1  0.2706925E-010  0.4778728E+02  0.7816164E-02  0.1312668E+00
        -11   -1    0    0    0    0  0.00000000000E+00  0.00000000000E+00  0.45593999997E+02  0.45594000000E+02  0.51100000000E-03 0.  1.
         11   -1    0    0    0    0 -0.00000000000E+00 -0.00000000000E+00 -0.45593999997E+02  0.45594000000E+02  0.51100000000E-03 0. -1.
    9900012    2    1    2    0    0  0.16334531817E+00  0.37704278370E+02  0.21493787124E+02  0.47787283715E+02  0.20000057769E+02 0.  0.
         12    1    1    2    0    0 -0.16334531817E+00 -0.37704278370E+02 -0.21493787124E+02  0.43400716285E+02  0.00000000000E+00 0. -1.
         11    1    3    3    0    0 -0.29022847677E+01  0.26258502327E+02  0.64729285991E+01  0.27199834673E+02  0.51100000000E-03 0.  1.
        -11    1    3    3    0    0  0.24041893601E+01  0.38124809362E+01  0.11100856606E+02  0.11980991404E+02  0.51100000000E-03 0. -1.
         12    1    3    3    0    0  0.66144072573E+00  0.76332951072E+01  0.39200019190E+01  0.86064576378E+01  0.00000000000E+00 0. -1.
</event>
<event>
 7    1  0.2706925E-010  0.4778726E+02  0.7816164E-02  0.1312668E+00
        -11   -1    0    0    0    0  0.00000000000E+00  0.00000000000E+00  0.45593999997E+02  0.45594000000E+02  0.51100000000E-03 0.  1.
         11   -1    0    0    0    0 -0.00000000000E+00 -0.00000000000E+00 -0.45593999997E+02  0.45594000000E+02  0.51100000000E-03 0. -1.
    9900012    2    1    2    0    0  0.30011138467E+02 -0.30918902536E+02 -0.51939313818E+01  0.47787263954E+02  0.19999967674E+02 0.  0.
         12    1    1    2    0    0 -0.30011138467E+02  0.30918902536E+02  0.51939313818E+01  0.43400736046E+02  0.00000000000E+00 0. -1.
         11    1    3    3    0    0  0.18440904236E+02 -0.73830021944E+01  0.11283309069E+01  0.19895949370E+02  0.51100000000E-03 0. -1.
        -11    1    3    3    0    0  0.10492829822E+02 -0.23630927168E+02 -0.67594448646E+01  0.26724713126E+02  0.51100000000E-03 0.  1.
        -12    1    3    3    0    0  0.10774044094E+01  0.95026827151E-01  0.43718257589E+00  0.11666014589E+01  0.00000000000E+00 0.  1.
</event>
<event>
 7    1  0.2706925E-010  0.4778727E+02  0.7816164E-02  0.1312668E+00
        -11   -1    0    0    0    0  0.00000000000E+00  0.00000000000E+00  0.45593999997E+02  0.45594000000E+02  0.51100000000E-03 0.  1.
         11   -1    0    0    0    0 -0.00000000000E+00 -0.00000000000E+00 -0.45593999997E+02  0.45594000000E+02  0.51100000000E-03 0. -1.
    9900012    2    1    2    0    0  0.41500454910E+02  0.41401742261E+01 -0.12008111558E+02  0.47787267938E+02  0.19999985835E+02 0.  0.
         12    1    1    2    0    0 -0.41500454910E+02 -0.41401742261E+01  0.12008111558E+02  0.43400732062E+02  0.00000000000E+00 0. -1.
         11    1    3    3    0    0  0.20291887962E+02  0.12814376065E+01  0.22399430244E+01  0.20455320687E+02  0.51100000000E-03 0. -1.
        -11    1    3    3    0    0  0.19267453437E+02  0.22430474160E+00 -0.92899103706E+01  0.21391295181E+02  0.51100000000E-03 0.  1.
         12    1    3    3    0    0  0.19411135109E+01  0.26344318779E+01 -0.49581442121E+01  0.59406520694E+01  0.00000000000E+00 0. -1.
</event>
<event>
 7    1  0.2706925E-010  0.4778727E+02  0.7816164E-02  0.1312668E+00
        -11   -1    0    0    0    0  0.00000000000E+00  0.00000000000E+00  0.45593999997E+02  0.45594000000E+02  0.51100000000E-03 0.  1.
         11   -1    0    0    0    0 -0.00000000000E+00 -0.00000000000E+00 -0.45593999997E+02  0.45594000000E+02  0.51100000000E-03 0. -1.
    9900012    2    1    2    0    0  0.40867558197E+02 -0.14481717100E+02  0.19354450815E+01  0.47787269697E+02  0.19999993858E+02 0.  0.
         12    1    1    2    0    0 -0.40867558197E+02  0.14481717100E+02 -0.19354450815E+01  0.43400730303E+02  0.00000000000E+00 0. -1.
         11    1    3    3    0    0  0.83304790654E+00 -0.40180502433E+01 -0.39877085504E+01  0.57219329179E+01  0.51100000000E-03 0. -1.
        -11    1    3    3    0    0  0.27429515490E+02 -0.90707903359E+01  0.52672051569E+01  0.29366664907E+02  0.51100000000E-03 0.  1.
         12    1    3    3    0    0  0.12604994800E+02 -0.13928765210E+01  0.65594847504E+00  0.12698671872E+02  0.00000000000E+00 0. -1.
</event>
<event>
 7    1  0.2706925E-010  0.4778727E+02  0.7816164E-02  0.1312668E+00
        -11   -1    0    0    0    0  0.00000000000E+00  0.00000000000E+00  0.45593999997E+02  0.45594000000E+02  0.51100000000E-03 0.  1.
         11   -1    0    0    0    0 -0.00000000000E+00 -0.00000000000E+00 -0.45593999997E+02  0.45594000000E+02  0.51100000000E-03 0. -1.
    9900012    2    1    2    0    0 -0.30251422256E+02 -0.23401725041E+02  0.20514238546E+02  0.47787271129E+02  0.20000000387E+02 0.  0.
         12    1    1    2    0    0  0.30251422256E+02  0.23401725041E+02 -0.20514238546E+02  0.43400728871E+02  0.00000000000E+00 0. -1.
         11    1    3    3    0    0 -0.80470373424E+01 -0.45251411260E+01 -0.28729833710E+01  0.96688027135E+01  0.51100000000E-03 0. -1.
        -11    1    3    3    0    0 -0.12065288801E+02 -0.53726820664E+01  0.10664272989E+02  0.16975382914E+02  0.51100000000E-03 0.  1.
         12    1    3    3    0    0 -0.10139096113E+02 -0.13503901849E+02  0.12722948928E+02  0.21143085502E+02  0.00000000000E+00 0. -1.
</event>
<event>
 7    1  0.2706925E-010  0.4778727E+02  0.7816164E-02  0.1312668E+00
        -11   -1    0    0    0    0  0.00000000000E+00  0.00000000000E+00  0.45593999997E+02  0.45594000000E+02  0.51100000000E-03 0.  1.
         11   -1    0    0    0    0 -0.00000000000E+00 -0.00000000000E+00 -0.45593999997E+02  0.45594000000E+02  0.51100000000E-03 0. -1.
    9900012    2    1    2    0    0  0.96090177146E+01  0.41383266733E+02  0.88721491742E+01  0.47787273993E+02  0.20000013445E+02 0.  0.
         12    1    1    2    0    0 -0.96090177146E+01 -0.41383266733E+02 -0.88721491742E+01  0.43400726007E+02  0.00000000000E+00 0. -1.
         11    1    3    3    0    0  0.12053850781E+01  0.22930497617E+02  0.68170188778E+01  0.23952712180E+02  0.51100000000E-03 0. -1.
        -11    1    3    3    0    0  0.16830498091E+01  0.78742301564E+01 -0.49746231252E+01  0.94648313622E+01  0.51100000000E-03 0.  1.
        -12    1    3    3    0    0  0.67205828275E+01  0.10578538960E+02  0.70297534216E+01  0.14369730451E+02  0.00000000000E+00 0.  1.
</event>
<event>
 7    1  0.2706925E-010  0.4778727E+02  0.7816164E-02  0.1312668E+00
        -11   -1    0    0    0    0  0.00000000000E+00  0.00000000000E+00  0.45593999997E+02  0.45594000000E+02  0.51100000000E-03 0.  1.
         11   -1    0    0    0    0 -0.00000000000E+00 -0.00000000000E+00 -0.45593999997E+02  0.45594000000E+02  0.51100000000E-03 0. -1.
    9900012    2    1    2    0    0  0.17213961056E+02  0.11505747068E+02  0.38143421942E+02  0.47787270648E+02  0.19999998194E+02 0.  0.
         12    1    1    2    0    0 -0.17213961056E+02 -0.11505747068E+02 -0.38143421942E+02  0.43400729352E+02  0.00000000000E+00 0. -1.
         11    1    3    3    0    0  0.45206493269E+01 -0.13739488491E+01  0.20048825843E+01  0.51325978037E+01  0.51100000000E-03 0. -1.
        -11    1    3    3    0    0 -0.25634170773E+01  0.46435113083E+01  0.91790572044E+01  0.10601339340E+02  0.51100000000E-03 0.  1.
        -12    1    3    3    0    0  0.15256728806E+02  0.82361846093E+01  0.26959482153E+02  0.32053333504E+02  0.00000000000E+00 0.  1.
</event>
<event>
 7    1  0.2706925E-010  0.4778727E+02  0.7816164E-02  0.1312668E+00
        -11   -1    0    0    0    0  0.00000000000E+00  0.00000000000E+00  0.45593999997E+02  0.45594000000E+02  0.51100000000E-03 0.  1.
         11   -1    0    0    0    0 -0.00000000000E+00 -0.00000000000E+00 -0.45593999997E+02  0.45594000000E+02  0.51100000000E-03 0. -1.
    9900012    2    1    2    0    0  0.18640836829E+01  0.83858500381E+01  0.42542049864E+02  0.47787270796E+02  0.19999998866E+02 0.  0.
         12    1    1    2    0    0 -0.18640836829E+01 -0.83858500381E+01 -0.42542049864E+02  0.43400729204E+02  0.00000000000E+00 0. -1.
         11    1    3    3    0    0 -0.21419693469E+01 -0.31051243401E+01  0.13782818063E+01  0.40161537383E+01  0.51100000000E-03 0. -1.
        -11    1    3    3    0    0  0.15281350074E+01  0.12166579844E+02  0.35314393418E+02  0.37382713177E+02  0.51100000000E-03 0.  1.
        -12    1    3    3    0    0  0.24779180225E+01 -0.67560546614E+00  0.58493746395E+01  0.63884038809E+01  0.00000000000E+00 0.  1.
</event>
<event>
 7    1  0.2706925E-010  0.4778727E+02  0.7816164E-02  0.1312668E+00
        -11   -1    0    0    0    0  0.00000000000E+00  0.00000000000E+00  0.45593999997E+02  0.45594000000E+02  0.51100000000E-03 0. -1.
         11   -1    0    0    0    0 -0.00000000000E+00 -0.00000000000E+00 -0.45593999997E+02  0.45594000000E+02  0.51100000000E-03 0.  1.
    9900012    2    1    2    0    0  0.34454808116E+02  0.11376150058E+02 -0.23813285346E+02  0.47787272455E+02  0.20000006432E+02 0.  0.
         12    1    1    2    0    0 -0.34454808116E+02 -0.11376150058E+02  0.23813285346E+02  0.43400727545E+02  0.00000000000E+00 0. -1.
         11    1    3    3    0    0  0.45194731093E+01  0.18244914103E+00  0.70301679249E+00  0.45774619328E+01  0.51100000000E-03 0. -1.
        -11    1    3    3    0    0 -0.12372968783E+01  0.53458188119E+00 -0.44167231770E+01  0.46178052402E+01  0.51100000000E-03 0.  1.
        -12    1    3    3    0    0  0.31172631885E+02  0.10659119035E+02 -0.20099578961E+02  0.38592005282E+02  0.00000000000E+00 0.  1.
</event>
<event>
 7    1  0.2706925E-010  0.4778727E+02  0.7816164E-02  0.1312668E+00
        -11   -1    0    0    0    0  0.00000000000E+00  0.00000000000E+00  0.45593999997E+02  0.45594000000E+02  0.51100000000E-03 0.  1.
         11   -1    0    0    0    0 -0.00000000000E+00 -0.00000000000E+00 -0.45593999997E+02  0.45594000000E+02  0.51100000000E-03 0. -1.
    9900012    2    1    2    0    0 -0.20879132678E+02 -0.37595443416E+02  0.58539047594E+01  0.47787265583E+02  0.19999975097E+02 0.  0.
         12    1    1    2    0    0  0.20879132678E+02  0.37595443416E+02 -0.58539047594E+01  0.43400734417E+02  0.00000000000E+00 0. -1.
         11    1    3    3    0    0 -0.19666134155E+02 -0.26722171807E+02  0.28588948430E+01  0.33301720356E+02  0.51100000000E-03 0. -1.
        -11    1    3    3    0    0 -0.21295229010E+01 -0.63966550970E+01  0.59929588296E+01  0.90204002134E+01  0.51100000000E-03 0.  1.
         12    1    3    3    0    0  0.91652437768E+00 -0.44766165114E+01 -0.29979489132E+01  0.54651450128E+01  0.00000000000E+00 0. -1.
</event>
<event>
 7    1  0.2706925E-010  0.4778727E+02  0.7816164E-02  0.1312668E+00
        -11   -1    0    0    0    0  0.00000000000E+00  0.00000000000E+00  0.45593999997E+02  0.45594000000E+02  0.51100000000E-03 0.  1.
         11   -1    0    0    0    0 -0.00000000000E+00 -0.00000000000E+00 -0.45593999997E+02  0.45594000000E+02  0.51100000000E-03 0. -1.
    9900012    2    1    2    0    0  0.19597011621E+02  0.14573874785E+02  0.35877323273E+02  0.47787274016E+02  0.20000013547E+02 0.  0.
         12    1    1    2    0    0 -0.19597011621E+02 -0.14573874785E+02 -0.35877323273E+02  0.43400725984E+02  0.00000000000E+00 0. -1.
         11    1    3    3    0    0  0.98859873666E+01  0.10064451557E+02  0.62970231524E+01  0.15449221087E+02  0.51100000000E-03 0. -1.
        -11    1    3    3    0    0  0.68482803803E+01 -0.92981117863E+00  0.15034898020E+02  0.16547255111E+02  0.51100000000E-03 0.  1.
        -12    1    3    3    0    0  0.28627438738E+01  0.54392344066E+01  0.14545402101E+02  0.15790797817E+02  0.00000000000E+00 0.  1.
</event>
<event>
 7    1  0.2706925E-010  0.4778727E+02  0.7816164E-02  0.1312668E+00
        -11   -1    0    0    0    0  0.00000000000E+00  0.00000000000E+00  0.45593999997E+02  0.45594000000E+02  0.51100000000E-03 0. -1.
         11   -1    0    0    0    0 -0.00000000000E+00 -0.00000000000E+00 -0.45593999997E+02  0.45594000000E+02  0.51100000000E-03 0.  1.
    9900012    2    1    2    0    0 -0.16573832434E+02 -0.38405368842E+02  0.11574062241E+02  0.47787271962E+02  0.20000004186E+02 0.  0.
         12    1    1    2    0    0  0.16573832434E+02  0.38405368842E+02 -0.11574062241E+02  0.43400728038E+02  0.00000000000E+00 0. -1.
         11    1    3    3    0    0  0.35814515882E+01 -0.39708408194E+01  0.11789679552E+01  0.54757956492E+01  0.51100000000E-03 0. -1.
        -11    1    3    3    0    0 -0.18666720990E+02 -0.30257885712E+02  0.12108469689E+02  0.37557970642E+02  0.51100000000E-03 0.  1.
        -12    1    3    3    0    0 -0.14885630324E+01 -0.41766423101E+01 -0.17133754037E+01  0.47535056708E+01  0.00000000000E+00 0.  1.
</event>
<event>
 7    1  0.2706925E-010  0.4778727E+02  0.7816164E-02  0.1312668E+00
        -11   -1    0    0    0    0  0.00000000000E+00  0.00000000000E+00  0.45593999997E+02  0.45594000000E+02  0.51100000000E-03 0.  1.
         11   -1    0    0    0    0 -0.00000000000E+00 -0.00000000000E+00 -0.45593999997E+02  0.45594000000E+02  0.51100000000E-03 0. -1.
    9900012    2    1    2    0    0  0.82672852471E+01 -0.90468053816E+01  0.41634491494E+02  0.47787267576E+02  0.19999984188E+02 0.  0.
         12    1    1    2    0    0 -0.82672852471E+01  0.90468053816E+01 -0.41634491494E+02  0.43400732424E+02  0.00000000000E+00 0. -1.
         11    1    3    3    0    0  0.50408182417E+01 -0.69744537660E+01  0.37659896845E+01  0.93933770523E+01  0.51100000000E-03 0. -1.
        -11    1    3    3    0    0  0.20407870610E+01  0.14885450842E+01  0.12912069684E+02  0.13156827964E+02  0.51100000000E-03 0.  1.
         12    1    3    3    0    0  0.11856799444E+01 -0.35608966998E+01  0.24956432125E+02  0.25237062560E+02  0.00000000000E+00 0. -1.
</event>
<event>
 7    1  0.2706925E-010  0.4778727E+02  0.7816164E-02  0.1312668E+00
        -11   -1    0    0    0    0  0.00000000000E+00  0.00000000000E+00  0.45593999997E+02  0.45594000000E+02  0.51100000000E-03 0.  1.
         11   -1    0    0    0    0 -0.00000000000E+00 -0.00000000000E+00 -0.45593999997E+02  0.45594000000E+02  0.51100000000E-03 0. -1.
    9900012    2    1    2    0    0 -0.42762516491E+02  0.73582844221E+01 -0.91980641445E+00  0.47787271779E+02  0.20000003350E+02 0.  0.
         12    1    1    2    0    0  0.42762516491E+02 -0.73582844221E+01  0.91980641445E+00  0.43400728221E+02  0.00000000000E+00 0. -1.
         11    1    3    3    0    0 -0.27584479022E+02  0.14757120381E+01 -0.87145225079E+00  0.27637667018E+02  0.51100000000E-03 0. -1.
        -11    1    3    3    0    0 -0.72808786538E+01  0.89894779208E+01  0.93813615884E+00  0.11606119376E+02  0.51100000000E-03 0.  1.
         12    1    3    3    0    0 -0.78971588152E+01 -0.31069055368E+01 -0.98649032249E+00  0.85434853850E+01  0.00000000000E+00 0. -1.
</event>
<event>
 7    1  0.2706925E-010  0.4778727E+02  0.7816164E-02  0.1312668E+00
        -11   -1    0    0    0    0  0.00000000000E+00  0.00000000000E+00  0.45593999997E+02  0.45594000000E+02  0.51100000000E-03 0.  1.
         11   -1    0    0    0    0 -0.00000000000E+00 -0.00000000000E+00 -0.45593999997E+02  0.45594000000E+02  0.51100000000E-03 0. -1.
    9900012    2    1    2    0    0  0.16111900635E+02 -0.10802403654E+02  0.38824451675E+02  0.47787270575E+02  0.19999997858E+02 0.  0.
         12    1    1    2    0    0 -0.16111900635E+02  0.10802403654E+02 -0.38824451675E+02  0.43400729425E+02  0.00000000000E+00 0. -1.
         11    1    3    3    0    0  0.24689663433E+01 -0.46330287249E+01 -0.16947397220E+00  0.52525681013E+01  0.51100000000E-03 0. -1.
        -11    1    3    3    0    0  0.42333390169E+01  0.15375276015E+01  0.14562848631E+02  0.15243415329E+02  0.51100000000E-03 0.  1.
         12    1    3    3    0    0  0.94095952746E+01 -0.77069025307E+01  0.24431077016E+02  0.27291287145E+02  0.00000000000E+00 0. -1.
</event>
<event>
 7    1  0.2706925E-010  0.4778727E+02  0.7816164E-02  0.1312668E+00
        -11   -1    0    0    0    0  0.00000000000E+00  0.00000000000E+00  0.45593999997E+02  0.45594000000E+02  0.51100000000E-03 0. -1.
         11   -1    0    0    0    0 -0.00000000000E+00 -0.00000000000E+00 -0.45593999997E+02  0.45594000000E+02  0.51100000000E-03 0.  1.
    9900012    2    1    2    0    0 -0.44750099036E+01  0.36995592561E+02 -0.22246885009E+02  0.47787268726E+02  0.19999989427E+02 0.  0.
         12    1    1    2    0    0  0.44750099036E+01 -0.36995592561E+02  0.22246885009E+02  0.43400731274E+02  0.00000000000E+00 0. -1.
         11    1    3    3    0    0 -0.98900266682E+01  0.30390582482E+02 -0.12877726824E+02  0.34456290855E+02  0.51100000000E-03 0.  1.
        -11    1    3    3    0    0  0.24068800730E+01  0.84943246539E+00 -0.46455221008E+01  0.53005172435E+01  0.51100000000E-03 0. -1.
        -12    1    3    3    0    0  0.30081366916E+01  0.57555776133E+01 -0.47236360844E+01  0.80304606266E+01  0.00000000000E+00 0.  1.
</event>
<event>
 7    1  0.2706925E-010  0.4778728E+02  0.7816164E-02  0.1312668E+00
        -11   -1    0    0    0    0  0.00000000000E+00  0.00000000000E+00  0.45593999997E+02  0.45594000000E+02  0.51100000000E-03 0. -1.
         11   -1    0    0    0    0 -0.00000000000E+00 -0.00000000000E+00 -0.45593999997E+02  0.45594000000E+02  0.51100000000E-03 0.  1.
    9900012    2    1    2    0    0 -0.15642038916E+02 -0.39408605409E+02  0.92688208955E+01  0.47787278779E+02  0.20000035264E+02 0.  0.
         12    1    1    2    0    0  0.15642038916E+02  0.39408605409E+02 -0.92688208955E+01  0.43400721221E+02  0.00000000000E+00 0. -1.
         11    1    3    3    0    0 -0.81026044372E+01 -0.92818583214E+01 -0.49106151513E+01  0.13263454829E+02  0.51100000000E-03 0. -1.
        -11    1    3    3    0    0 -0.62789892944E+01 -0.26148259335E+02  0.10211210840E+02  0.28765013470E+02  0.51100000000E-03 0.  1.
         12    1    3    3    0    0 -0.12604451839E+01 -0.39784877524E+01  0.39682252069E+01  0.57588104805E+01  0.00000000000E+00 0. -1.
</event>
<event>
 7    1  0.2706925E-010  0.4778727E+02  0.7816164E-02  0.1312668E+00
        -11   -1    0    0    0    0  0.00000000000E+00  0.00000000000E+00  0.45593999997E+02  0.45594000000E+02  0.51100000000E-03 0.  1.
         11   -1    0    0    0    0 -0.00000000000E+00 -0.00000000000E+00 -0.45593999997E+02  0.45594000000E+02  0.51100000000E-03 0. -1.
    9900012    2    1    2    0    0 -0.15227210706E+02  0.34030405766E+01  0.40499072063E+02  0.47787268796E+02  0.19999989749E+02 0.  0.
         12    1    1    2    0    0  0.15227210706E+02 -0.34030405766E+01 -0.40499072063E+02  0.43400731204E+02  0.00000000000E+00 0. -1.
         11    1    3    3    0    0 -0.82431069153E+01 -0.15095647266E+01  0.23916050991E+02  0.25341765774E+02  0.51100000000E-03 0. -1.
        -11    1    3    3    0    0 -0.44083804083E+01  0.88881160443E+01  0.84432116968E+01  0.13027672419E+02  0.51100000000E-03 0.  1.
        -12    1    3    3    0    0 -0.25757233826E+01 -0.39755107411E+01  0.81398093754E+01  0.94178306028E+01  0.00000000000E+00 0.  1.
</event>
<event>
 7    1  0.2706925E-010  0.4778727E+02  0.7816164E-02  0.1312668E+00
        -11   -1    0    0    0    0  0.00000000000E+00  0.00000000000E+00  0.45593999997E+02  0.45594000000E+02  0.51100000000E-03 0.  1.
         11   -1    0    0    0    0 -0.00000000000E+00 -0.00000000000E+00 -0.45593999997E+02  0.45594000000E+02  0.51100000000E-03 0. -1.
    9900012    2    1    2    0    0 -0.19235600115E+02  0.57505384752E+01  0.38477870887E+02  0.47787267834E+02  0.19999985363E+02 0.  0.
         12    1    1    2    0    0  0.19235600115E+02 -0.57505384752E+01 -0.38477870887E+02  0.43400732166E+02  0.00000000000E+00 0. -1.
         11    1    3    3    0    0 -0.20523148448E+01  0.61947881395E+01  0.30065263489E+01  0.71851650826E+01  0.51100000000E-03 0. -1.
        -11    1    3    3    0    0 -0.17183037823E+02 -0.26220364828E+01  0.29424396125E+02  0.34174946258E+02  0.51100000000E-03 0.  1.
         12    1    3    3    0    0 -0.24744715895E-03  0.21777868184E+01  0.60469484126E+01  0.64271564935E+01  0.00000000000E+00 0. -1.
</event>
<event>
 7    1  0.2706925E-010  0.4778727E+02  0.7816164E-02  0.1312668E+00
        -11   -1    0    0    0    0  0.00000000000E+00  0.00000000000E+00  0.45593999997E+02  0.45594000000E+02  0.51100000000E-03 0. -1.
         11   -1    0    0    0    0 -0.00000000000E+00 -0.00000000000E+00 -0.45593999997E+02  0.45594000000E+02  0.51100000000E-03 0.  1.
    9900012    2    1    2    0    0 -0.40315894435E+02 -0.87904991132E+01 -0.13452843489E+02  0.47787271703E+02  0.20000003001E+02 0.  0.
         12    1    1    2    0    0  0.40315894435E+02  0.87904991132E+01  0.13452843489E+02  0.43400728297E+02  0.00000000000E+00 0. -1.
         11    1    3    3    0    0 -0.68650794996E+00 -0.45501099565E+01 -0.20907026499E+01  0.50542884378E+01  0.51100000000E-03 0. -1.
        -11    1    3    3    0    0 -0.33434827587E+02 -0.71840856471E+01 -0.10747861442E+02  0.35847110180E+02  0.51100000000E-03 0.  1.
         12    1    3    3    0    0 -0.61945588981E+01  0.29436964904E+01 -0.61427939717E+00  0.68858730853E+01  0.00000000000E+00 0. -1.
</event>
<event>
 7    1  0.2706925E-010  0.4778727E+02  0.7816164E-02  0.1312668E+00
        -11   -1    0    0    0    0  0.00000000000E+00  0.00000000000E+00  0.45593999997E+02  0.45594000000E+02  0.51100000000E-03 0.  1.
         11   -1    0    0    0    0 -0.00000000000E+00 -0.00000000000E+00 -0.45593999997E+02  0.45594000000E+02  0.51100000000E-03 0. -1.
    9900012    2    1    2    0    0 -0.20154169417E+02  0.11211810822E+02  0.36765853141E+02  0.47787271850E+02  0.20000003671E+02 0.  0.
         12    1    1    2    0    0  0.20154169417E+02 -0.11211810822E+02 -0.36765853141E+02  0.43400728150E+02  0.00000000000E+00 0. -1.
         11    1    3    3    0    0  0.16951784780E+01  0.48607183740E+00  0.99804646700E+01  0.10135066413E+02  0.51100000000E-03 0. -1.
        -11    1    3    3    0    0 -0.98549243005E+01  0.62472251851E+01  0.57047499262E+01  0.12988130253E+02  0.51100000000E-03 0.  1.
        -12    1    3    3    0    0 -0.11994423595E+02  0.44785137994E+01  0.21080638545E+02  0.24664075184E+02  0.00000000000E+00 0.  1.
</event>
<event>
 7    1  0.2706925E-010  0.4778727E+02  0.7816164E-02  0.1312668E+00
        -11   -1    0    0    0    0  0.00000000000E+00  0.00000000000E+00  0.45593999997E+02  0.45594000000E+02  0.51100000000E-03 0. -1.
         11   -1    0    0    0    0 -0.00000000000E+00 -0.00000000000E+00 -0.45593999997E+02  0.45594000000E+02  0.51100000000E-03 0.  1.
    9900012    2    1    2    0    0 -0.34018333020E+02 -0.21088356473E+02 -0.16782654519E+02  0.47787271286E+02  0.20000001102E+02 0.  0.
         12    1    1    2    0    0  0.34018333020E+02  0.21088356473E+02  0.16782654519E+02  0.43400728714E+02  0.00000000000E+00 0. -1.
         11    1    3    3    0    0 -0.23686965565E+01 -0.84159672693E+01  0.72690360562E+00  0.87731190330E+01  0.51100000000E-03 0. -1.
        -11    1    3    3    0    0 -0.19793666569E+02 -0.10640509612E+02 -0.14028861845E+02  0.26491859994E+02  0.51100000000E-03 0.  1.
         12    1    3    3    0    0 -0.11855969895E+02 -0.20318795913E+01 -0.34806962799E+01  0.12522292259E+02  0.00000000000E+00 0. -1.
</event>
<event>
 7    1  0.2706925E-010  0.4778727E+02  0.7816164E-02  0.1312668E+00
        -11   -1    0    0    0    0  0.00000000000E+00  0.00000000000E+00  0.45593999997E+02  0.45594000000E+02  0.51100000000E-03 0. -1.
         11   -1    0    0    0    0 -0.00000000000E+00 -0.00000000000E+00 -0.45593999997E+02  0.45594000000E+02  0.51100000000E-03 0.  1.
    9900012    2    1    2    0    0  0.25019986028E+02  0.79998579491E+01 -0.34548887532E+02  0.47787273534E+02  0.20000011352E+02 0.  0.
         12    1    1    2    0    0 -0.25019986028E+02 -0.79998579491E+01  0.34548887532E+02  0.43400726466E+02  0.00000000000E+00 0. -1.
         11    1    3    3    0    0  0.14544851349E+02 -0.33609981568E+01 -0.12104758473E+02  0.19219109951E+02  0.51100000000E-03 0. -1.
        -11    1    3    3    0    0  0.63700554030E+01  0.11702981692E+02 -0.18956058221E+02  0.23170445180E+02  0.51100000000E-03 0.  1.
        -12    1    3    3    0    0  0.41050792759E+01 -0.34212558610E+00 -0.34880708387E+01  0.53977184026E+01  0.00000000000E+00 0.  1.
</event>
<event>
 7    1  0.2706925E-010  0.4778728E+02  0.7816164E-02  0.1312668E+00
        -11   -1    0    0    0    0  0.00000000000E+00  0.00000000000E+00  0.45593999997E+02  0.45594000000E+02  0.51100000000E-03 0.  1.
         11   -1    0    0    0    0 -0.00000000000E+00 -0.00000000000E+00 -0.45593999997E+02  0.45594000000E+02  0.51100000000E-03 0. -1.
    9900012    2    1    2    0    0 -0.23970807936E+02 -0.43784500468E+00  0.36177766985E+02  0.47787283815E+02  0.20000058225E+02 0.  0.
         12    1    1    2    0    0  0.23970807936E+02  0.43784500468E+00 -0.36177766985E+02  0.43400716185E+02  0.00000000000E+00 0. -1.
         11    1    3    3    0    0 -0.16580482938E+02 -0.69949961882E+01  0.26310053280E+02  0.31875716305E+02  0.51100000000E-03 0. -1.
        -11    1    3    3    0    0 -0.62914494971E+01  0.73023643940E+01  0.10655075247E+02  0.14367932743E+02  0.51100000000E-03 0.  1.
         12    1    3    3    0    0 -0.10988755015E+01 -0.74521321054E+00 -0.78736154169E+00  0.15436347672E+01  0.00000000000E+00 0. -1.
</event>
<event>
 7    1  0.2706925E-010  0.4778728E+02  0.7816164E-02  0.1312668E+00
        -11   -1    0    0    0    0  0.00000000000E+00  0.00000000000E+00  0.45593999997E+02  0.45594000000E+02  0.51100000000E-03 0. -1.
         11   -1    0    0    0    0 -0.00000000000E+00 -0.00000000000E+00 -0.45593999997E+02  0.45594000000E+02  0.51100000000E-03 0.  1.
    9900012    2    1    2    0    0 -0.35681004960E+02 -0.15283441245E+02 -0.19414045932E+02  0.47787275689E+02  0.20000021177E+02 0.  0.
         12    1    1    2    0    0  0.35681004960E+02  0.15283441245E+02  0.19414045932E+02  0.43400724311E+02  0.00000000000E+00 0. -1.
         11    1    3    3    0    0 -0.34227321755E+01 -0.86763429332E+01 -0.23960786404E+01  0.96299125309E+01  0.51100000000E-03 0. -1.
        -11    1    3    3    0    0 -0.18910207891E+02 -0.19998930019E+01 -0.51215537693E+01  0.19693294488E+02  0.51100000000E-03 0.  1.
         12    1    3    3    0    0 -0.13348064893E+02 -0.46072053101E+01 -0.11896413523E+02  0.18464068670E+02  0.00000000000E+00 0. -1.
</event>
<event>
 7    1  0.2706925E-010  0.4778727E+02  0.7816164E-02  0.1312668E+00
        -11   -1    0    0    0    0  0.00000000000E+00  0.00000000000E+00  0.45593999997E+02  0.45594000000E+02  0.51100000000E-03 0.  1.
         11   -1    0    0    0    0 -0.00000000000E+00 -0.00000000000E+00 -0.45593999997E+02  0.45594000000E+02  0.51100000000E-03 0. -1.
    9900012    2    1    2    0    0  0.88549768435E+00 -0.32507151350E+02  0.28742384480E+02  0.47787266588E+02  0.19999979683E+02 0.  0.
         12    1    1    2    0    0 -0.88549768435E+00  0.32507151350E+02 -0.28742384480E+02  0.43400733412E+02  0.00000000000E+00 0. -1.
         11    1    3    3    0    0 -0.70993824810E+01 -0.97447573390E+01  0.35279442117E+01  0.12562162148E+02  0.51100000000E-03 0. -1.
        -11    1    3    3    0    0  0.69518688908E+01 -0.13104250653E+02  0.16327084497E+02  0.22059545659E+02  0.51100000000E-03 0.  1.
         12    1    3    3    0    0  0.10330112746E+01 -0.96581433581E+01  0.88873557713E+01  0.13165558781E+02  0.00000000000E+00 0. -1.
</event>
<event>
 7    1  0.2706925E-010  0.4778728E+02  0.7816164E-02  0.1312668E+00
        -11   -1    0    0    0    0  0.00000000000E+00  0.00000000000E+00  0.45593999997E+02  0.45594000000E+02  0.51100000000E-03 0.  1.
         11   -1    0    0    0    0 -0.00000000000E+00 -0.00000000000E+00 -0.45593999997E+02  0.45594000000E+02  0.51100000000E-03 0. -1.
    9900012    2    1    2    0    0 -0.12609413303E+02  0.39520072404E+02  0.12758887978E+02  0.47787278243E+02  0.20000032819E+02 0.  0.
         12    1    1    2    0    0  0.12609413303E+02 -0.39520072404E+02 -0.12758887978E+02  0.43400721757E+02  0.00000000000E+00 0. -1.
         11    1    3    3    0    0 -0.10920167020E+01  0.12097322655E+02  0.10508717514E+01  0.12191884497E+02  0.51100000000E-03 0. -1.
        -11    1    3    3    0    0 -0.13227524814E+02  0.22820149352E+02  0.43251744686E+01  0.26728893797E+02  0.51100000000E-03 0.  1.
        -12    1    3    3    0    0  0.17101282132E+01  0.46026003968E+01  0.73828417579E+01  0.88664999487E+01  0.00000000000E+00 0.  1.
</event>
<event>
 7    1  0.2706925E-010  0.4778723E+02  0.7816164E-02  0.1312668E+00
        -11   -1    0    0    0    0  0.00000000000E+00  0.00000000000E+00  0.45593999997E+02  0.45594000000E+02  0.51100000000E-03 0. -1.
         11   -1    0    0    0    0 -0.00000000000E+00 -0.00000000000E+00 -0.45593999997E+02  0.45594000000E+02  0.51100000000E-03 0.  1.
    9900012    2    1    2    0    0  0.87866140151E+00 -0.42435216886E+02 -0.90613021052E+01  0.47787229570E+02  0.19999810901E+02 0.  0.
         12    1    1    2    0    0 -0.87866140151E+00  0.42435216886E+02  0.90613021052E+01  0.43400770430E+02  0.00000000000E+00 0. -1.
         11    1    3    3    0    0  0.48636778958E+01 -0.93823181907E+01 -0.64278247046E+01  0.12369324476E+02  0.51100000000E-03 0. -1.
        -11    1    3    3    0    0  0.12527535718E+01 -0.26884719656E+02 -0.18621038799E-01  0.26913897702E+02  0.51100000000E-03 0.  1.
        -12    1    3    3    0    0 -0.52377700661E+01 -0.61681790395E+01 -0.26148563618E+01  0.85040073920E+01  0.00000000000E+00 0.  1.
</event>
<event>
 7    1  0.2706925E-010  0.4778727E+02  0.7816164E-02  0.1312668E+00
        -11   -1    0    0    0    0  0.00000000000E+00  0.00000000000E+00  0.45593999997E+02  0.45594000000E+02  0.51100000000E-03 0.  1.
         11   -1    0    0    0    0 -0.00000000000E+00 -0.00000000000E+00 -0.45593999997E+02  0.45594000000E+02  0.51100000000E-03 0. -1.
    9900012    2    1    2    0    0 -0.33187303681E+01 -0.26802185408E+02  0.33974282536E+02  0.47787274341E+02  0.20000015031E+02 0.  0.
         12    1    1    2    0    0  0.33187303681E+01  0.26802185408E+02 -0.33974282536E+02  0.43400725659E+02  0.00000000000E+00 0. -1.
         11    1    3    3    0    0 -0.50700946039E+01 -0.24684788521E+01  0.80332834312E+01  0.98149319958E+01  0.51100000000E-03 0. -1.
        -11    1    3    3    0    0  0.68517436939E+01 -0.19563314707E+02  0.18799220963E+02  0.27983573450E+02  0.51100000000E-03 0.  1.
        -12    1    3    3    0    0 -0.51003794582E+01 -0.47703918482E+01  0.71417781422E+01  0.99887688948E+01  0.00000000000E+00 0.  1.
</event>
<event>
 7    1  0.2706925E-010  0.4778727E+02  0.7816164E-02  0.1312668E+00
        -11   -1    0    0    0    0  0.00000000000E+00  0.00000000000E+00  0.45593999997E+02  0.45594000000E+02  0.51100000000E-03 0.  1.
         11   -1    0    0    0    0 -0.00000000000E+00 -0.00000000000E+00 -0.45593999997E+02  0.45594000000E+02  0.51100000000E-03 0. -1.
    9900012    2    1    2    0    0 -0.40877330731E+02 -0.12677840303E+02  0.72068881541E+01  0.47787273747E+02  0.20000012324E+02 0.  0.
         12    1    1    2    0    0  0.40877330731E+02  0.12677840303E+02 -0.72068881541E+01  0.43400726253E+02  0.00000000000E+00 0. -1.
         11    1    3    3    0    0 -0.92592545629E+01 -0.93125854659E+01 -0.29873403325E+00  0.13135725538E+02  0.51100000000E-03 0. -1.
        -11    1    3    3    0    0 -0.10408684114E+02  0.42155430210E+01  0.14122079762E+01  0.11318385025E+02  0.51100000000E-03 0.  1.
        -12    1    3    3    0    0 -0.21209392053E+02 -0.75807978579E+01  0.60934142112E+01  0.23333163184E+02  0.00000000000E+00 0.  1.
</event>
<event>
 7    1  0.2706925E-010  0.4778727E+02  0.7816164E-02  0.1312668E+00
        -11   -1    0    0    0    0  0.00000000000E+00  0.00000000000E+00  0.45593999997E+02  0.45594000000E+02  0.51100000000E-03 0.  1.
         11   -1    0    0    0    0 -0.00000000000E+00 -0.00000000000E+00 -0.45593999997E+02  0.45594000000E+02  0.51100000000E-03 0. -1.
    9900012    2    1    2    0    0  0.22164145067E+02  0.31167276799E+02  0.20517672798E+02  0.47787269975E+02  0.19999995126E+02 0.  0.
         12    1    1    2    0    0 -0.22164145067E+02 -0.31167276799E+02 -0.20517672798E+02  0.43400730025E+02  0.00000000000E+00 0. -1.
         11    1    3    3    0    0  0.12042570553E+02  0.50422323635E+01  0.28863048124E+01  0.13370802835E+02  0.51100000000E-03 0. -1.
        -11    1    3    3    0    0  0.98799618152E+01  0.26415960181E+02  0.18319935738E+02  0.33630888235E+02  0.51100000000E-03 0.  1.
        -12    1    3    3    0    0  0.24161269893E+00 -0.29091574597E+00 -0.68856775191E+00  0.78557890533E+00  0.00000000000E+00 0.  1.
</event>
<event>
 7    1  0.2706925E-010  0.4778727E+02  0.7816164E-02  0.1312668E+00
        -11   -1    0    0    0    0  0.00000000000E+00  0.00000000000E+00  0.45593999997E+02  0.45594000000E+02  0.51100000000E-03 0.  1.
         11   -1    0    0    0    0 -0.00000000000E+00 -0.00000000000E+00 -0.45593999997E+02  0.45594000000E+02  0.51100000000E-03 0. -1.
    9900012    2    1    2    0    0  0.15386785071E+02 -0.12186144976E+02  0.38708762908E+02  0.47787267171E+02  0.19999982340E+02 0.  0.
         12    1    1    2    0    0 -0.15386785071E+02  0.12186144976E+02 -0.38708762908E+02  0.43400732829E+02  0.00000000000E+00 0. -1.
         11    1    3    3    0    0 -0.55509764026E+00  0.37784736116E+01  0.50494784004E+01  0.63310527246E+01  0.51100000000E-03 0. -1.
        -11    1    3    3    0    0  0.97424961142E+01 -0.15003710045E+02  0.25912193728E+02  0.31487605970E+02  0.51100000000E-03 0.  1.
         12    1    3    3    0    0  0.61993865975E+01 -0.96090854239E+00  0.77470907801E+01  0.99686084770E+01  0.00000000000E+00 0. -1.
</event>
<event>
 7    1  0.2706925E-010  0.4778727E+02  0.7816164E-02  0.1312668E+00
        -11   -1    0    0    0    0  0.00000000000E+00  0.00000000000E+00  0.45593999997E+02  0.45594000000E+02  0.51100000000E-03 0. -1.
         11   -1    0    0    0    0 -0.00000000000E+00 -0.00000000000E+00 -0.45593999997E+02  0.45594000000E+02  0.51100000000E-03 0.  1.
    9900012    2    1    2    0    0 -0.24141842954E+02 -0.17923932589E+02 -0.31297400611E+02  0.47787271600E+02  0.20000002531E+02 0.  0.
         12    1    1    2    0    0  0.24141842954E+02  0.17923932589E+02  0.31297400611E+02  0.43400728400E+02  0.00000000000E+00 0. -1.
         11    1    3    3    0    0 -0.45574659937E+01 -0.22340753489E+01  0.16620872790E+00  0.50783082371E+01  0.51100000000E-03 0. -1.
        -11    1    3    3    0    0 -0.19495762971E+02 -0.10567976325E+02 -0.30138221975E+02  0.37417633831E+02  0.51100000000E-03 0.  1.
        -12    1    3    3    0    0 -0.88613989850E-01 -0.51218809155E+01 -0.13253873639E+01  0.52913295320E+01  0.00000000000E+00 0.  1.
</event>
<event>
 7    1  0.2706925E-010  0.4778727E+02  0.7816164E-02  0.1312668E+00
        -11   -1    0    0    0    0  0.00000000000E+00  0.00000000000E+00  0.45593999997E+02  0.45594000000E+02  0.51100000000E-03 0. -1.
         11   -1    0    0    0    0 -0.00000000000E+00 -0.00000000000E+00 -0.45593999997E+02  0.45594000000E+02  0.51100000000E-03 0.  1.
    9900012    2    1    2    0    0 -0.39312075190E+02 -0.29861273813E+01  0.18145730293E+02  0.47787265670E+02  0.19999975497E+02 0.  0.
         12    1    1    2    0    0  0.39312075190E+02  0.29861273813E+01 -0.18145730293E+02  0.43400734330E+02  0.00000000000E+00 0. -1.
         11    1    3    3    0    0 -0.86059430042E+01 -0.56056811514E+01  0.60654361880E+01  0.11927926583E+02  0.51100000000E-03 0. -1.
        -11    1    3    3    0    0 -0.19704941076E+01  0.44412442400E+01  0.74692619655E+00  0.49158312045E+01  0.51100000000E-03 0.  1.
        -12    1    3    3    0    0 -0.28735638078E+02 -0.18216904698E+01  0.11333367909E+02  0.30943507883E+02  0.00000000000E+00 0.  1.
</event>
<event>
 7    1  0.2706925E-010  0.4778727E+02  0.7816164E-02  0.1312668E+00
        -11   -1    0    0    0    0  0.00000000000E+00  0.00000000000E+00  0.45593999997E+02  0.45594000000E+02  0.51100000000E-03 0.  1.
         11   -1    0    0    0    0 -0.00000000000E+00 -0.00000000000E+00 -0.45593999997E+02  0.45594000000E+02  0.51100000000E-03 0. -1.
    9900012    2    1    2    0    0  0.18556796255E+02  0.12335616709E+02  0.37243804836E+02  0.47787272754E+02  0.20000007793E+02 0.  0.
         12    1    1    2    0    0 -0.18556796255E+02 -0.12335616709E+02 -0.37243804836E+02  0.43400727246E+02  0.00000000000E+00 0. -1.
         11    1    3    3    0    0 -0.12786480724E+01 -0.12652904943E+01 -0.12573771659E+01  0.21947433851E+01  0.51100000000E-03 0. -1.
        -11    1    3    3    0    0  0.19379369391E+02  0.13918900448E+02  0.37493131130E+02  0.44441316698E+02  0.51100000000E-03 0.  1.
        -12    1    3    3    0    0  0.45607493670E+00 -0.31799324543E+00  0.10080508719E+01  0.11512126703E+01  0.00000000000E+00 0.  1.
</event>
<event>
 7    1  0.2706925E-010  0.4778727E+02  0.7816164E-02  0.1312668E+00
        -11   -1    0    0    0    0  0.00000000000E+00  0.00000000000E+00  0.45593999997E+02  0.45594000000E+02  0.51100000000E-03 0.  1.
         11   -1    0    0    0    0 -0.00000000000E+00 -0.00000000000E+00 -0.45593999997E+02  0.45594000000E+02  0.51100000000E-03 0. -1.
    9900012    2    1    2    0    0 -0.26669434267E+02 -0.12623910306E+02  0.31827685955E+02  0.47787269260E+02  0.19999991863E+02 0.  0.
         12    1    1    2    0    0  0.26669434267E+02  0.12623910306E+02 -0.31827685955E+02  0.43400730740E+02  0.00000000000E+00 0. -1.
         11    1    3    3    0    0 -0.32750929665E+01 -0.43454972838E+01 -0.14039243147E+01  0.56196605169E+01  0.51100000000E-03 0. -1.
        -11    1    3    3    0    0 -0.14405552200E+02 -0.17180263971E+01  0.22030634887E+02  0.26378408267E+02  0.51100000000E-03 0.  1.
        -12    1    3    3    0    0 -0.89887891003E+01 -0.65603866249E+01  0.11200975383E+02  0.15789200476E+02  0.00000000000E+00 0.  1.
</event>
<event>
 7    1  0.2706925E-010  0.4778728E+02  0.7816164E-02  0.1312668E+00
        -11   -1    0    0    0    0  0.00000000000E+00  0.00000000000E+00  0.45593999997E+02  0.45594000000E+02  0.51100000000E-03 0. -1.
         11   -1    0    0    0    0 -0.00000000000E+00 -0.00000000000E+00 -0.45593999997E+02  0.45594000000E+02  0.51100000000E-03 0.  1.
    9900012    2    1    2    0    0  0.22504378322E+02 -0.35550587089E+02  0.10645733284E+02  0.47787275084E+02  0.20000018420E+02 0.  0.
         12    1    1    2    0    0 -0.22504378322E+02  0.35550587089E+02 -0.10645733284E+02  0.43400724916E+02  0.00000000000E+00 0. -1.
         11    1    3    3    0    0  0.20297107376E+01  0.19258904490E+01 -0.44303047181E+00  0.28328529718E+01  0.51100000000E-03 0. -1.
        -11    1    3    3    0    0  0.17105077398E+02 -0.23518087385E+02  0.58088501584E+01  0.29655131890E+02  0.51100000000E-03 0.  1.
        -12    1    3    3    0    0  0.33695901862E+01 -0.13958390154E+02  0.52799135979E+01  0.15299290222E+02  0.00000000000E+00 0.  1.
</event>
<event>
 7    1  0.2706925E-010  0.4778727E+02  0.7816164E-02  0.1312668E+00
        -11   -1    0    0    0    0  0.00000000000E+00  0.00000000000E+00  0.45593999997E+02  0.45594000000E+02  0.51100000000E-03 0. -1.
         11   -1    0    0    0    0 -0.00000000000E+00 -0.00000000000E+00 -0.45593999997E+02  0.45594000000E+02  0.51100000000E-03 0.  1.
    9900012    2    1    2    0    0  0.21139365394E+02  0.34222984290E+02 -0.16295335496E+02  0.47787269800E+02  0.19999994324E+02 0.  0.
         12    1    1    2    0    0 -0.21139365394E+02 -0.34222984290E+02  0.16295335496E+02  0.43400730200E+02  0.00000000000E+00 0. -1.
         11    1    3    3    0    0  0.24562914061E+01  0.24154692638E-02  0.66091704355E+00  0.25436558152E+01  0.51100000000E-03 0. -1.
        -11    1    3    3    0    0  0.34488809206E+01  0.10582897438E+02  0.20280130503E+01  0.11313944272E+02  0.51100000000E-03 0.  1.
        -12    1    3    3    0    0  0.15234193067E+02  0.23637671383E+02 -0.18984265590E+02  0.33929669713E+02  0.00000000000E+00 0.  1.
</event>
<event>
 7    1  0.2706925E-010  0.4778727E+02  0.7816164E-02  0.1312668E+00
        -11   -1    0    0    0    0  0.00000000000E+00  0.00000000000E+00  0.45593999997E+02  0.45594000000E+02  0.51100000000E-03 0.  1.
         11   -1    0    0    0    0 -0.00000000000E+00 -0.00000000000E+00 -0.45593999997E+02  0.45594000000E+02  0.51100000000E-03 0. -1.
    9900012    2    1    2    0    0  0.21233680639E+02 -0.10072169979E+02  0.36487060000E+02  0.47787270179E+02  0.19999996053E+02 0.  0.
         12    1    1    2    0    0 -0.21233680639E+02  0.10072169979E+02 -0.36487060000E+02  0.43400729821E+02  0.00000000000E+00 0. -1.
         11    1    3    3    0    0  0.60755674590E+01 -0.94393968617E+01  0.20527681653E+02  0.23396590507E+02  0.51100000000E-03 0. -1.
        -11    1    3    3    0    0  0.15192721924E+02 -0.34878738758E+01  0.13594540772E+02  0.20683220317E+02  0.51100000000E-03 0.  1.
         12    1    3    3    0    0 -0.34608744117E-01  0.28551007582E+01  0.23648375748E+01  0.37074593538E+01  0.00000000000E+00 0. -1.
</event>
<event>
 7    1  0.2706925E-010  0.4778726E+02  0.7816164E-02  0.1312668E+00
        -11   -1    0    0    0    0  0.00000000000E+00  0.00000000000E+00  0.45593999997E+02  0.45594000000E+02  0.51100000000E-03 0. -1.
         11   -1    0    0    0    0 -0.00000000000E+00 -0.00000000000E+00 -0.45593999997E+02  0.45594000000E+02  0.51100000000E-03 0.  1.
    9900012    2    1    2    0    0 -0.27750580563E+02  0.11279476632E+02 -0.31405453232E+02  0.47787264898E+02  0.19999971977E+02 0.  0.
         12    1    1    2    0    0  0.27750580563E+02 -0.11279476632E+02  0.31405453232E+02  0.43400735102E+02  0.00000000000E+00 0. -1.
         11    1    3    3    0    0 -0.69947852353E+01 -0.18550894579E+01 -0.23377058493E-01  0.72366376262E+01  0.51100000000E-03 0. -1.
        -11    1    3    3    0    0 -0.16611296889E+02  0.97367876245E+01 -0.28692572755E+02  0.34554362231E+02  0.51100000000E-03 0.  1.
         12    1    3    3    0    0 -0.41444984388E+01  0.33977784658E+01 -0.26895034177E+01  0.59962650413E+01  0.00000000000E+00 0. -1.
</event>
<event>
 7    1  0.2706925E-010  0.4778727E+02  0.7816164E-02  0.1312668E+00
        -11   -1    0    0    0    0  0.00000000000E+00  0.00000000000E+00  0.45593999997E+02  0.45594000000E+02  0.51100000000E-03 0.  1.
         11   -1    0    0    0    0 -0.00000000000E+00 -0.00000000000E+00 -0.45593999997E+02  0.45594000000E+02  0.51100000000E-03 0. -1.
    9900012    2    1    2    0    0 -0.35338783805E+00  0.19410528413E+02  0.38816618340E+02  0.47787270103E+02  0.19999995709E+02 0.  0.
         12    1    1    2    0    0  0.35338783805E+00 -0.19410528413E+02 -0.38816618340E+02  0.43400729897E+02  0.00000000000E+00 0. -1.
         11    1    3    3    0    0 -0.17630842779E+01 -0.16145350162E+01  0.15428147913E+02  0.15612268822E+02  0.51100000000E-03 0.  1.
        -11    1    3    3    0    0  0.19460519023E+00  0.17531744558E+02  0.15256210673E+02  0.23241168275E+02  0.51100000000E-03 0. -1.
         12    1    3    3    0    0  0.12150912496E+01  0.34933188718E+01  0.81322597535E+01  0.89338330062E+01  0.00000000000E+00 0. -1.
</event>
<event>
 7    1  0.2706925E-010  0.4778727E+02  0.7816164E-02  0.1312668E+00
        -11   -1    0    0    0    0  0.00000000000E+00  0.00000000000E+00  0.45593999997E+02  0.45594000000E+02  0.51100000000E-03 0.  1.
         11   -1    0    0    0    0 -0.00000000000E+00 -0.00000000000E+00 -0.45593999997E+02  0.45594000000E+02  0.51100000000E-03 0. -1.
    9900012    2    1    2    0    0  0.10497987172E+02 -0.30969025163E+02  0.28536557266E+02  0.47787270112E+02  0.19999995748E+02 0.  0.
         12    1    1    2    0    0 -0.10497987172E+02  0.30969025163E+02 -0.28536557266E+02  0.43400729888E+02  0.00000000000E+00 0. -1.
         11    1    3    3    0    0 -0.98209364549E+00  0.14097791094E+01 -0.90895915983E-01  0.17205369495E+01  0.51100000000E-03 0. -1.
        -11    1    3    3    0    0  0.13147754866E+02 -0.31339090329E+02  0.26023903701E+02  0.42804738111E+02  0.51100000000E-03 0.  1.
        -12    1    3    3    0    0 -0.16676740481E+01 -0.10397139441E+01  0.26035494805E+01  0.32619950512E+01  0.00000000000E+00 0.  1.
</event>
<event>
 7    1  0.2706925E-010  0.4778728E+02  0.7816164E-02  0.1312668E+00
        -11   -1    0    0    0    0  0.00000000000E+00  0.00000000000E+00  0.45593999997E+02  0.45594000000E+02  0.51100000000E-03 0.  1.
         11   -1    0    0    0    0 -0.00000000000E+00 -0.00000000000E+00 -0.45593999997E+02  0.45594000000E+02  0.51100000000E-03 0. -1.
    9900012    2    1    2    0    0  0.24673495607E+02  0.11250561517E+02  0.33886074580E+02  0.47787279149E+02  0.20000036952E+02 0.  0.
         12    1    1    2    0    0 -0.24673495607E+02 -0.11250561517E+02 -0.33886074580E+02  0.43400720851E+02  0.00000000000E+00 0. -1.
         11    1    3    3    0    0 -0.26697310918E+01  0.10036385897E+01  0.17717361401E+01  0.33576485421E+01  0.51100000000E-03 0. -1.
        -11    1    3    3    0    0  0.22919812029E+02  0.62059558609E+01  0.20538654412E+02  0.31395349925E+02  0.51100000000E-03 0.  1.
        -12    1    3    3    0    0  0.44234146703E+01  0.40409670666E+01  0.11575684028E+02  0.13034280682E+02  0.00000000000E+00 0.  1.
</event>
<event>
 7    1  0.2706925E-010  0.4778728E+02  0.7816164E-02  0.1312668E+00
        -11   -1    0    0    0    0  0.00000000000E+00  0.00000000000E+00  0.45593999997E+02  0.45594000000E+02  0.51100000000E-03 0.  1.
         11   -1    0    0    0    0 -0.00000000000E+00 -0.00000000000E+00 -0.45593999997E+02  0.45594000000E+02  0.51100000000E-03 0. -1.
    9900012    2    1    2    0    0 -0.24874738037E+02  0.60789874521E+01  0.35041624845E+02  0.47787283962E+02  0.20000058896E+02 0.  0.
         12    1    1    2    0    0  0.24874738037E+02 -0.60789874521E+01 -0.35041624845E+02  0.43400716038E+02  0.00000000000E+00 0. -1.
         11    1    3    3    0    0 -0.11966036226E+02  0.50869995208E+01  0.26906811659E+02  0.29883776552E+02  0.51100000000E-03 0. -1.
        -11    1    3    3    0    0 -0.39854969468E+01  0.15693759507E+01 -0.17027134527E+01  0.46093774147E+01  0.51100000000E-03 0.  1.
        -12    1    3    3    0    0 -0.89232048636E+01 -0.57738801937E+00  0.98375266384E+01  0.13294129995E+02  0.00000000000E+00 0.  1.
</event>
<event>
 7    1  0.2706925E-010  0.4778727E+02  0.7816164E-02  0.1312668E+00
        -11   -1    0    0    0    0  0.00000000000E+00  0.00000000000E+00  0.45593999997E+02  0.45594000000E+02  0.51100000000E-03 0. -1.
         11   -1    0    0    0    0 -0.00000000000E+00 -0.00000000000E+00 -0.45593999997E+02  0.45594000000E+02  0.51100000000E-03 0.  1.
    9900012    2    1    2    0    0  0.22776620817E+00  0.38332297188E+02 -0.20352063658E+02  0.47787269818E+02  0.19999994409E+02 0.  0.
         12    1    1    2    0    0 -0.22776620817E+00 -0.38332297188E+02  0.20352063658E+02  0.43400730182E+02  0.00000000000E+00 0. -1.
         11    1    3    3    0    0 -0.59164482702E+01  0.13311729890E+02 -0.14376417470E+02  0.20466750899E+02  0.51100000000E-03 0. -1.
        -11    1    3    3    0    0  0.53149597360E+00  0.58500043382E-01 -0.11719599775E+01  0.12881772685E+01  0.51100000000E-03 0.  1.
         12    1    3    3    0    0  0.56127185048E+01  0.24962067255E+02 -0.48036862104E+01  0.26032341651E+02  0.00000000000E+00 0. -1.
</event>
<event>
 7    1  0.2706925E-010  0.4778727E+02  0.7816164E-02  0.1312668E+00
        -11   -1    0    0    0    0  0.00000000000E+00  0.00000000000E+00  0.45593999997E+02  0.45594000000E+02  0.51100000000E-03 0. -1.
         11   -1    0    0    0    0 -0.00000000000E+00 -0.00000000000E+00 -0.45593999997E+02  0.45594000000E+02  0.51100000000E-03 0.  1.
    9900012    2    1    2    0    0  0.65965287848E+01  0.42769685359E+02 -0.32959287039E+01  0.47787270470E+02  0.19999997379E+02 0.  0.
         12    1    1    2    0    0 -0.65965287848E+01 -0.42769685359E+02  0.32959287039E+01  0.43400729530E+02  0.00000000000E+00 0. -1.
         11    1    3    3    0    0  0.80768181629E+01  0.15290097013E+02  0.19999364661E+01  0.17407521491E+02  0.51100000000E-03 0. -1.
        -11    1    3    3    0    0 -0.58350879693E+01  0.10243447497E+02 -0.43874290080E+01  0.12578791746E+02  0.51100000000E-03 0.  1.
         12    1    3    3    0    0  0.43547985912E+01  0.17236140849E+02 -0.90843616208E+00  0.17800957233E+02  0.00000000000E+00 0. -1.
</event>
<event>
 7    1  0.2706925E-010  0.4778727E+02  0.7816164E-02  0.1312668E+00
        -11   -1    0    0    0    0  0.00000000000E+00  0.00000000000E+00  0.45593999997E+02  0.45594000000E+02  0.51100000000E-03 0.  1.
         11   -1    0    0    0    0 -0.00000000000E+00 -0.00000000000E+00 -0.45593999997E+02  0.45594000000E+02  0.51100000000E-03 0. -1.
    9900012    2    1    2    0    0  0.16788135904E+02 -0.30732232685E+02  0.25638086122E+02  0.47787273130E+02  0.20000009507E+02 0.  0.
         12    1    1    2    0    0 -0.16788135904E+02  0.30732232685E+02 -0.25638086122E+02  0.43400726870E+02  0.00000000000E+00 0. -1.
         11    1    3    3    0    0  0.17082239764E+02 -0.16378945832E+02  0.81917024212E+01  0.25043497574E+02  0.51100000000E-03 0. -1.
        -11    1    3    3    0    0  0.94212925642E+00 -0.91726257056E+01  0.10192226543E+02  0.13744313444E+02  0.51100000000E-03 0.  1.
         12    1    3    3    0    0 -0.12362331167E+01 -0.51806611469E+01  0.72541571569E+01  0.89994621114E+01  0.00000000000E+00 0. -1.
</event>
<event>
 7    1  0.2706925E-010  0.4778727E+02  0.7816164E-02  0.1312668E+00
        -11   -1    0    0    0    0  0.00000000000E+00  0.00000000000E+00  0.45593999997E+02  0.45594000000E+02  0.51100000000E-03 0. -1.
         11   -1    0    0    0    0 -0.00000000000E+00 -0.00000000000E+00 -0.45593999997E+02  0.45594000000E+02  0.51100000000E-03 0.  1.
    9900012    2    1    2    0    0  0.84672242149E+01 -0.15626980733E+02 -0.39594530245E+02  0.47787271458E+02  0.20000001883E+02 0.  0.
         12    1    1    2    0    0 -0.84672242149E+01  0.15626980733E+02  0.39594530245E+02  0.43400728542E+02  0.00000000000E+00 0. -1.
         11    1    3    3    0    0  0.92359856386E+01 -0.64869980599E+01 -0.11184085989E+02  0.15889252790E+02  0.51100000000E-03 0. -1.
        -11    1    3    3    0    0 -0.23966180385E+00 -0.81460261702E+01 -0.29331929414E+02  0.30443016663E+02  0.51100000000E-03 0.  1.
         12    1    3    3    0    0 -0.52909961990E+00 -0.99395650263E+00  0.92148515830E+00  0.14550020048E+01  0.00000000000E+00 0. -1.
</event>
<event>
 7    1  0.2706925E-010  0.4778727E+02  0.7816164E-02  0.1312668E+00
        -11   -1    0    0    0    0  0.00000000000E+00  0.00000000000E+00  0.45593999997E+02  0.45594000000E+02  0.51100000000E-03 0.  1.
         11   -1    0    0    0    0 -0.00000000000E+00 -0.00000000000E+00 -0.45593999997E+02  0.45594000000E+02  0.51100000000E-03 0. -1.
    9900012    2    1    2    0    0  0.37265907734E+02 -0.19346607966E+01  0.22161512184E+02  0.47787269431E+02  0.19999992644E+02 0.  0.
         12    1    1    2    0    0 -0.37265907734E+02  0.19346607966E+01 -0.22161512184E+02  0.43400730569E+02  0.00000000000E+00 0. -1.
         11    1    3    3    0    0  0.32504323530E+02 -0.15218836321E+01  0.13733769976E+02  0.35319450958E+02  0.51100000000E-03 0.  1.
        -11    1    3    3    0    0  0.20866785772E+01  0.35363315619E+01  0.23128434823E+01  0.47126546272E+01  0.51100000000E-03 0. -1.
         12    1    3    3    0    0  0.26749056262E+01 -0.39491087264E+01  0.61148987264E+01  0.77551638459E+01  0.00000000000E+00 0. -1.
</event>
<event>
 7    1  0.2706925E-010  0.4778727E+02  0.7816164E-02  0.1312668E+00
        -11   -1    0    0    0    0  0.00000000000E+00  0.00000000000E+00  0.45593999997E+02  0.45594000000E+02  0.51100000000E-03 0.  1.
         11   -1    0    0    0    0 -0.00000000000E+00 -0.00000000000E+00 -0.45593999997E+02  0.45594000000E+02  0.51100000000E-03 0. -1.
    9900012    2    1    2    0    0  0.22372085066E+02  0.14026697334E+02  0.34443642480E+02  0.47787274942E+02  0.20000017770E+02 0.  0.
         12    1    1    2    0    0 -0.22372085066E+02 -0.14026697334E+02 -0.34443642480E+02  0.43400725058E+02  0.00000000000E+00 0. -1.
         11    1    3    3    0    0  0.15370995613E+02  0.10597955954E+02  0.91542888051E+01  0.20793873625E+02  0.51100000000E-03 0. -1.
        -11    1    3    3    0    0  0.65983356080E+01  0.21246458563E+01  0.24397049280E+02  0.25362731845E+02  0.51100000000E-03 0.  1.
        -12    1    3    3    0    0  0.40275384521E+00  0.13040955236E+01  0.89230439497E+00  0.16306694722E+01  0.00000000000E+00 0.  1.
</event>
<event>
 7    1  0.2706925E-010  0.4778728E+02  0.7816164E-02  0.1312668E+00
        -11   -1    0    0    0    0  0.00000000000E+00  0.00000000000E+00  0.45593999997E+02  0.45594000000E+02  0.51100000000E-03 0. -1.
         11   -1    0    0    0    0 -0.00000000000E+00 -0.00000000000E+00 -0.45593999997E+02  0.45594000000E+02  0.51100000000E-03 0.  1.
    9900012    2    1    2    0    0 -0.34189651365E+02  0.15987955746E+02 -0.21426044000E+02  0.47787281678E+02  0.20000048484E+02 0.  0.
         12    1    1    2    0    0  0.34189651365E+02 -0.15987955746E+02  0.21426044000E+02  0.43400718322E+02  0.00000000000E+00 0. -1.
         11    1    3    3    0    0 -0.12458803726E+02  0.48383628731E+01 -0.18158099694E+02  0.22546576910E+02  0.51100000000E-03 0. -1.
        -11    1    3    3    0    0 -0.12686019782E+02  0.34729954451E+01 -0.13265054976E+01  0.13219546602E+02  0.51100000000E-03 0.  1.
        -12    1    3    3    0    0 -0.90448278566E+01  0.76765974276E+01 -0.19414388077E+01  0.12021158167E+02  0.00000000000E+00 0.  1.
</event>
<event>
 7    1  0.2706925E-010  0.4778728E+02  0.7816164E-02  0.1312668E+00
        -11   -1    0    0    0    0  0.00000000000E+00  0.00000000000E+00  0.45593999997E+02  0.45594000000E+02  0.51100000000E-03 0.  1.
         11   -1    0    0    0    0 -0.00000000000E+00 -0.00000000000E+00 -0.45593999997E+02  0.45594000000E+02  0.51100000000E-03 0. -1.
    9900012    2    1    2    0    0 -0.23077767326E+02 -0.27563466255E+02  0.24316547245E+02  0.47787280113E+02  0.20000041348E+02 0.  0.
         12    1    1    2    0    0  0.23077767326E+02  0.27563466255E+02 -0.24316547245E+02  0.43400719887E+02  0.00000000000E+00 0. -1.
         11    1    3    3    0    0 -0.67771250157E+01 -0.13489571072E+02  0.59994282116E+01  0.16244725000E+02  0.51100000000E-03 0. -1.
        -11    1    3    3    0    0 -0.10431379872E+02 -0.52760474469E+00  0.10611358714E+02  0.14889358174E+02  0.51100000000E-03 0.  1.
        -12    1    3    3    0    0 -0.58692624382E+01 -0.13546290439E+02  0.77057603196E+01  0.16653196940E+02  0.00000000000E+00 0.  1.
</event>
<event>
 7    1  0.2706925E-010  0.4778727E+02  0.7816164E-02  0.1312668E+00
        -11   -1    0    0    0    0  0.00000000000E+00  0.00000000000E+00  0.45593999997E+02  0.45594000000E+02  0.51100000000E-03 0.  1.
         11   -1    0    0    0    0 -0.00000000000E+00 -0.00000000000E+00 -0.45593999997E+02  0.45594000000E+02  0.51100000000E-03 0. -1.
    9900012    2    1    2    0    0  0.16500448421E+02 -0.39665624484E+02 -0.61641435455E+01  0.47787271557E+02  0.20000002335E+02 0.  0.
         12    1    1    2    0    0 -0.16500448421E+02  0.39665624484E+02  0.61641435455E+01  0.43400728443E+02  0.00000000000E+00 0. -1.
         11    1    3    3    0    0  0.11335132771E+02 -0.13771802174E+02 -0.45655426377E+01  0.18411734027E+02  0.51100000000E-03 0. -1.
        -11    1    3    3    0    0 -0.25194990242E+01 -0.14699284284E+02  0.26514360698E+01  0.15147506305E+02  0.51100000000E-03 0.  1.
        -12    1    3    3    0    0  0.76848146741E+01 -0.11194538026E+02 -0.42500369777E+01  0.14228031224E+02  0.00000000000E+00 0.  1.
</event>
<event>
 7    1  0.2706925E-010  0.4778729E+02  0.7816164E-02  0.1312668E+00
        -11   -1    0    0    0    0  0.00000000000E+00  0.00000000000E+00  0.45593999997E+02  0.45594000000E+02  0.51100000000E-03 0.  1.
         11   -1    0    0    0    0 -0.00000000000E+00 -0.00000000000E+00 -0.45593999997E+02  0.45594000000E+02  0.51100000000E-03 0. -1.
    9900012    2    1    2    0    0  0.35187226121E+02 -0.19243758489E+02  0.16587890794E+02  0.47787294431E+02  0.20000106631E+02 0.  0.
         12    1    1    2    0    0 -0.35187226121E+02  0.19243758489E+02 -0.16587890794E+02  0.43400705569E+02  0.00000000000E+00 0. -1.
         11    1    3    3    0    0  0.89149824611E+01  0.80369864789E+00  0.90859333223E+01  0.12754490519E+02  0.51100000000E-03 0. -1.
        -11    1    3    3    0    0  0.24940657163E+02 -0.20778757815E+02  0.62369660747E+01  0.33055905707E+02  0.51100000000E-03 0.  1.
        -12    1    3    3    0    0  0.13315864966E+01  0.73130067795E+00  0.12649913971E+01  0.19768982053E+01  0.00000000000E+00 0.  1.
</event>
<event>
 7    1  0.2706925E-010  0.4778727E+02  0.7816164E-02  0.1312668E+00
        -11   -1    0    0    0    0  0.00000000000E+00  0.00000000000E+00  0.45593999997E+02  0.45594000000E+02  0.51100000000E-03 0. -1.
         11   -1    0    0    0    0 -0.00000000000E+00 -0.00000000000E+00 -0.45593999997E+02  0.45594000000E+02  0.51100000000E-03 0.  1.
    9900012    2    1    2    0    0 -0.13487663203E+02  0.76254696486E+01 -0.40540821306E+02  0.47787273759E+02  0.20000012378E+02 0.  0.
         12    1    1    2    0    0  0.13487663203E+02 -0.76254696486E+01  0.40540821306E+02  0.43400726241E+02  0.00000000000E+00 0. -1.
         11    1    3    3    0    0 -0.13258093649E+02 -0.19273179497E+01 -0.26987661791E+02  0.30130142564E+02  0.51100000000E-03 0. -1.
        -11    1    3    3    0    0 -0.14447461189E+01  0.93864512240E+01 -0.13395574398E+02  0.16420541149E+02  0.51100000000E-03 0.  1.
         12    1    3    3    0    0  0.12151765648E+01  0.16633637426E+00 -0.15758511716E+00  0.12365900461E+01  0.00000000000E+00 0. -1.
</event>
<event>
 7    1  0.2706925E-010  0.4778728E+02  0.7816164E-02  0.1312668E+00
        -11   -1    0    0    0    0  0.00000000000E+00  0.00000000000E+00  0.45593999997E+02  0.45594000000E+02  0.51100000000E-03 0. -1.
         11   -1    0    0    0    0 -0.00000000000E+00 -0.00000000000E+00 -0.45593999997E+02  0.45594000000E+02  0.51100000000E-03 0.  1.
    9900012    2    1    2    0    0  0.14710049219E+02 -0.40794577988E+02 -0.17434837687E+01  0.47787275618E+02  0.20000020852E+02 0.  0.
         12    1    1    2    0    0 -0.14710049219E+02  0.40794577988E+02  0.17434837687E+01  0.43400724382E+02  0.00000000000E+00 0. -1.
         11    1    3    3    0    0  0.53905685771E+01 -0.19654257588E+00 -0.17388183269E+01  0.56674816280E+01  0.51100000000E-03 0. -1.
        -11    1    3    3    0    0  0.89983904605E+01 -0.30054054529E+02 -0.17794810112E+01  0.31422663436E+02  0.51100000000E-03 0.  1.
         12    1    3    3    0    0  0.32109018125E+00 -0.10543980884E+02  0.17748155694E+01  0.10697130554E+02  0.00000000000E+00 0. -1.
</event>
<event>
 7    1  0.2706925E-010  0.4778727E+02  0.7816164E-02  0.1312668E+00
        -11   -1    0    0    0    0  0.00000000000E+00  0.00000000000E+00  0.45593999997E+02  0.45594000000E+02  0.51100000000E-03 0. -1.
         11   -1    0    0    0    0 -0.00000000000E+00 -0.00000000000E+00 -0.45593999997E+02  0.45594000000E+02  0.51100000000E-03 0.  1.
    9900012    2    1    2    0    0  0.42043387917E+01  0.99018096603E+01 -0.42046413293E+02  0.47787272240E+02  0.20000005453E+02 0.  0.
         12    1    1    2    0    0 -0.42043387917E+01 -0.99018096603E+01  0.42046413293E+02  0.43400727760E+02  0.00000000000E+00 0. -1.
         11    1    3    3    0    0  0.11890715333E+01  0.12976213652E+02 -0.25965847736E+02  0.29052044003E+02  0.51100000000E-03 0. -1.
        -11    1    3    3    0    0  0.26670466244E+01  0.12154878350E+01 -0.13281613334E+02  0.13601169118E+02  0.51100000000E-03 0.  1.
         12    1    3    3    0    0  0.34822063395E+00 -0.42898918262E+01 -0.27989522236E+01  0.51340591193E+01  0.00000000000E+00 0. -1.
</event>
<event>
 7    1  0.2706925E-010  0.4778730E+02  0.7816164E-02  0.1312668E+00
        -11   -1    0    0    0    0  0.00000000000E+00  0.00000000000E+00  0.45593999997E+02  0.45594000000E+02  0.51100000000E-03 0.  1.
         11   -1    0    0    0    0 -0.00000000000E+00 -0.00000000000E+00 -0.45593999997E+02  0.45594000000E+02  0.51100000000E-03 0. -1.
    9900012    2    1    2    0    0  0.14873462752E+02 -0.30910639441E+00  0.40771378352E+02  0.47787300308E+02  0.20000133426E+02 0.  0.
         12    1    1    2    0    0 -0.14873462752E+02  0.30910639441E+00 -0.40771378352E+02  0.43400699692E+02  0.00000000000E+00 0. -1.
         11    1    3    3    0    0 -0.22779455919E+01 -0.34595568081E+01  0.27983054755E+01  0.49988081803E+01  0.51100000000E-03 0. -1.
        -11    1    3    3    0    0  0.13095766059E+02 -0.25230734265E-01  0.33491361179E+02  0.35960686856E+02  0.51100000000E-03 0.  1.
         12    1    3    3    0    0  0.40556422852E+01  0.31756811479E+01  0.44817116974E+01  0.68278052724E+01  0.00000000000E+00 0. -1.
</event>
<event>
 7    1  0.2706925E-010  0.4778726E+02  0.7816164E-02  0.1312668E+00
        -11   -1    0    0    0    0  0.00000000000E+00  0.00000000000E+00  0.45593999997E+02  0.45594000000E+02  0.51100000000E-03 0.  1.
         11   -1    0    0    0    0 -0.00000000000E+00 -0.00000000000E+00 -0.45593999997E+02  0.45594000000E+02  0.51100000000E-03 0. -1.
    9900012    2    1    2    0    0 -0.26554342299E+02 -0.10230853629E+02  0.32769202966E+02  0.47787261251E+02  0.19999955349E+02 0.  0.
         12    1    1    2    0    0  0.26554342299E+02  0.10230853629E+02 -0.32769202966E+02  0.43400738749E+02  0.00000000000E+00 0. -1.
         11    1    3    3    0    0 -0.13296827192E+02  0.43045857250E+01  0.80232588665E+01  0.16115450808E+02  0.51100000000E-03 0. -1.
        -11    1    3    3    0    0 -0.81546099433E+01 -0.95591568004E+01  0.14440828441E+02  0.19141908692E+02  0.51100000000E-03 0.  1.
         12    1    3    3    0    0 -0.51029051639E+01 -0.49762825533E+01  0.10305115659E+02  0.12529901751E+02  0.00000000000E+00 0. -1.
</event>
<event>
 7    1  0.2706925E-010  0.4778727E+02  0.7816164E-02  0.1312668E+00
        -11   -1    0    0    0    0  0.00000000000E+00  0.00000000000E+00  0.45593999997E+02  0.45594000000E+02  0.51100000000E-03 0.  1.
         11   -1    0    0    0    0 -0.00000000000E+00 -0.00000000000E+00 -0.45593999997E+02  0.45594000000E+02  0.51100000000E-03 0. -1.
    9900012    2    1    2    0    0  0.13677598259E+02  0.65244926617E+01  0.40669121258E+02  0.47787272788E+02  0.20000007951E+02 0.  0.
         12    1    1    2    0    0 -0.13677598259E+02 -0.65244926617E+01 -0.40669121258E+02  0.43400727212E+02  0.00000000000E+00 0. -1.
         11    1    3    3    0    0  0.98040086365E+01  0.57622332808E+01  0.23406129793E+02  0.26022467790E+02  0.51100000000E-03 0. -1.
        -11    1    3    3    0    0  0.84924480479E+01  0.79530046981E-01  0.12337228738E+02  0.14977824010E+02  0.51100000000E-03 0.  1.
         12    1    3    3    0    0 -0.46188584255E+01  0.68272933396E+00  0.49257627268E+01  0.67869809885E+01  0.00000000000E+00 0. -1.
</event>
<event>
 7    1  0.2706925E-010  0.4778727E+02  0.7816164E-02  0.1312668E+00
        -11   -1    0    0    0    0  0.00000000000E+00  0.00000000000E+00  0.45593999997E+02  0.45594000000E+02  0.51100000000E-03 0.  1.
         11   -1    0    0    0    0 -0.00000000000E+00 -0.00000000000E+00 -0.45593999997E+02  0.45594000000E+02  0.51100000000E-03 0. -1.
    9900012    2    1    2    0    0 -0.36562914618E+02  0.13566058099E+02  0.19045697951E+02  0.47787271111E+02  0.20000000302E+02 0.  0.
         12    1    1    2    0    0  0.36562914618E+02 -0.13566058099E+02 -0.19045697951E+02  0.43400728889E+02  0.00000000000E+00 0. -1.
         11    1    3    3    0    0  0.33869825475E+00  0.34903308610E+01  0.44776160242E+01  0.56873694753E+01  0.51100000000E-03 0. -1.
        -11    1    3    3    0    0 -0.10046924599E+02  0.74643228450E+01  0.47815997783E+01  0.13398526267E+02  0.51100000000E-03 0.  1.
         12    1    3    3    0    0 -0.26854688274E+02  0.26114043927E+01  0.97864821485E+01  0.28701375368E+02  0.00000000000E+00 0. -1.
</event>
<event>
 7    1  0.2706925E-010  0.4778727E+02  0.7816164E-02  0.1312668E+00
        -11   -1    0    0    0    0  0.00000000000E+00  0.00000000000E+00  0.45593999997E+02  0.45594000000E+02  0.51100000000E-03 0. -1.
         11   -1    0    0    0    0 -0.00000000000E+00 -0.00000000000E+00 -0.45593999997E+02  0.45594000000E+02  0.51100000000E-03 0.  1.
    9900012    2    1    2    0    0 -0.28951044920E+02 -0.70505173827E+01 -0.31555511668E+02  0.47787272887E+02  0.20000008401E+02 0.  0.
         12    1    1    2    0    0  0.28951044920E+02  0.70505173827E+01  0.31555511668E+02  0.43400727113E+02  0.00000000000E+00 0. -1.
         11    1    3    3    0    0 -0.20520085354E+02 -0.16299151390E+01 -0.15683724784E+02  0.25878750929E+02  0.51100000000E-03 0. -1.
        -11    1    3    3    0    0 -0.11084853307E+02 -0.31174796876E+01 -0.13033462394E+02  0.17391486270E+02  0.51100000000E-03 0.  1.
         12    1    3    3    0    0  0.26538937408E+01 -0.23031225560E+01 -0.28383244895E+01  0.45170356876E+01  0.00000000000E+00 0. -1.
</event>
<event>
 7    1  0.2706925E-010  0.4778727E+02  0.7816164E-02  0.1312668E+00
        -11   -1    0    0    0    0  0.00000000000E+00  0.00000000000E+00  0.45593999997E+02  0.45594000000E+02  0.51100000000E-03 0. -1.
         11   -1    0    0    0    0 -0.00000000000E+00 -0.00000000000E+00 -0.45593999997E+02  0.45594000000E+02  0.51100000000E-03 0.  1.
    9900012    2    1    2    0    0 -0.26964024699E+02  0.33383745540E+02 -0.64876948819E+01  0.47787270984E+02  0.19999999724E+02 0.  0.
         12    1    1    2    0    0  0.26964024699E+02 -0.33383745540E+02  0.64876948819E+01  0.43400729016E+02  0.00000000000E+00 0. -1.
         11    1    3    3    0    0 -0.50046960895E+01  0.53142912274E+01  0.72875366363E+00  0.73361949511E+01  0.51100000000E-03 0. -1.
        -11    1    3    3    0    0 -0.24260613626E+02  0.21924618962E+02 -0.34394220148E+01  0.32880023026E+02  0.51100000000E-03 0.  1.
        -12    1    3    3    0    0  0.23012850164E+01  0.61448353514E+01 -0.37770265307E+01  0.75710530071E+01  0.00000000000E+00 0.  1.
</event>
<event>
 7    1  0.2706925E-010  0.4778724E+02  0.7816164E-02  0.1312668E+00
        -11   -1    0    0    0    0  0.00000000000E+00  0.00000000000E+00  0.45593999997E+02  0.45594000000E+02  0.51100000000E-03 0.  1.
         11   -1    0    0    0    0 -0.00000000000E+00 -0.00000000000E+00 -0.45593999997E+02  0.45594000000E+02  0.51100000000E-03 0. -1.
    9900012    2    1    2    0    0 -0.16897243713E+02 -0.79612991561E+00  0.39968424658E+02  0.47787243814E+02  0.19999875843E+02 0.  0.
         12    1    1    2    0    0  0.16897243713E+02  0.79612991561E+00 -0.39968424658E+02  0.43400756186E+02  0.00000000000E+00 0. -1.
         11    1    3    3    0    0 -0.94528335285E+01 -0.57736955650E+01  0.17790446765E+02  0.20956899068E+02  0.51100000000E-03 0. -1.
        -11    1    3    3    0    0 -0.10034030332E+02  0.59464821154E+01  0.14138300568E+02  0.18328501234E+02  0.51100000000E-03 0.  1.
        -12    1    3    3    0    0  0.25896201468E+01 -0.96891646595E+00  0.80396773242E+01  0.85018435119E+01  0.00000000000E+00 0.  1.
</event>
<event>
 7    1  0.2706925E-010  0.4778727E+02  0.7816164E-02  0.1312668E+00
        -11   -1    0    0    0    0  0.00000000000E+00  0.00000000000E+00  0.45593999997E+02  0.45594000000E+02  0.51100000000E-03 0.  1.
         11   -1    0    0    0    0 -0.00000000000E+00 -0.00000000000E+00 -0.45593999997E+02  0.45594000000E+02  0.51100000000E-03 0. -1.
    9900012    2    1    2    0    0 -0.43200580698E+02 -0.10027214229E+01  0.40407626759E+01  0.47787269754E+02  0.19999994116E+02 0.  0.
         12    1    1    2    0    0  0.43200580698E+02  0.10027214229E+01 -0.40407626759E+01  0.43400730246E+02  0.00000000000E+00 0. -1.
         11    1    3    3    0    0 -0.82798341235E+01 -0.24145648068E+01  0.64476220380E+01  0.10768361367E+02  0.51100000000E-03 0.  1.
        -11    1    3    3    0    0 -0.27610009817E+02  0.60719600313E+01 -0.17211560051E+01  0.28322141850E+02  0.51100000000E-03 0. -1.
        -12    1    3    3    0    0 -0.73107367572E+01 -0.46601166474E+01 -0.68570335713E+00  0.86967665368E+01  0.00000000000E+00 0.  1.
</event>
<event>
 7    1  0.2706925E-010  0.4778727E+02  0.7816164E-02  0.1312668E+00
        -11   -1    0    0    0    0  0.00000000000E+00  0.00000000000E+00  0.45593999997E+02  0.45594000000E+02  0.51100000000E-03 0.  1.
         11   -1    0    0    0    0 -0.00000000000E+00 -0.00000000000E+00 -0.45593999997E+02  0.45594000000E+02  0.51100000000E-03 0. -1.
    9900012    2    1    2    0    0  0.38458154361E+02 -0.17050662906E+02  0.10670935004E+02  0.47787267331E+02  0.19999983069E+02 0.  0.
         12    1    1    2    0    0 -0.38458154361E+02  0.17050662906E+02 -0.10670935004E+02  0.43400732669E+02  0.00000000000E+00 0. -1.
         11    1    3    3    0    0 -0.63870337055E+00 -0.14543509612E+01  0.31101625120E+00  0.16185827392E+01  0.51100000000E-03 0. -1.
        -11    1    3    3    0    0  0.13769898024E+02 -0.71896837260E+01  0.11703395863E+02  0.19449193265E+02  0.51100000000E-03 0.  1.
        -12    1    3    3    0    0  0.25326959707E+02 -0.84066282184E+01 -0.13434771102E+01  0.26719491327E+02  0.00000000000E+00 0.  1.
</event>
<event>
 7    1  0.2706925E-010  0.4778727E+02  0.7816164E-02  0.1312668E+00
        -11   -1    0    0    0    0  0.00000000000E+00  0.00000000000E+00  0.45593999997E+02  0.45594000000E+02  0.51100000000E-03 0.  1.
         11   -1    0    0    0    0 -0.00000000000E+00 -0.00000000000E+00 -0.45593999997E+02  0.45594000000E+02  0.51100000000E-03 0. -1.
    9900012    2    1    2    0    0 -0.99954536710E+01  0.24595736087E+02  0.34333127663E+02  0.47787274397E+02  0.20000015286E+02 0.  0.
         12    1    1    2    0    0  0.99954536710E+01 -0.24595736087E+02 -0.34333127663E+02  0.43400725603E+02  0.00000000000E+00 0. -1.
         11    1    3    3    0    0 -0.21876326789E+01 -0.75209045549E-01 -0.14867107511E+01  0.26460729878E+01  0.51100000000E-03 0. -1.
        -11    1    3    3    0    0  0.93913237108E-01  0.73768297443E+01  0.49453313011E+01  0.88815955048E+01  0.51100000000E-03 0.  1.
         12    1    3    3    0    0 -0.79017342292E+01  0.17294115389E+02  0.30874507113E+02  0.36259605904E+02  0.00000000000E+00 0. -1.
</event>
<event>
 7    1  0.2706925E-010  0.4778727E+02  0.7816164E-02  0.1312668E+00
        -11   -1    0    0    0    0  0.00000000000E+00  0.00000000000E+00  0.45593999997E+02  0.45594000000E+02  0.51100000000E-03 0.  1.
         11   -1    0    0    0    0 -0.00000000000E+00 -0.00000000000E+00 -0.45593999997E+02  0.45594000000E+02  0.51100000000E-03 0. -1.
    9900012    2    1    2    0    0  0.33305641009E+02  0.27803866514E+02 -0.11413773365E+01  0.47787268919E+02  0.19999990310E+02 0.  0.
         12    1    1    2    0    0 -0.33305641009E+02 -0.27803866514E+02  0.11413773365E+01  0.43400731081E+02  0.00000000000E+00 0. -1.
         11    1    3    3    0    0 -0.13569196172E+01  0.43649210413E+01  0.32564616485E+01  0.56123354563E+01  0.51100000000E-03 0. -1.
        -11    1    3    3    0    0  0.21469808115E+02  0.16154676567E+02 -0.24699619820E+01  0.26981974500E+02  0.51100000000E-03 0.  1.
         12    1    3    3    0    0  0.13192752511E+02  0.72842689058E+01 -0.19278770029E+01  0.15192958963E+02  0.00000000000E+00 0. -1.
</event>
<event>
 7    1  0.2706925E-010  0.4778728E+02  0.7816164E-02  0.1312668E+00
        -11   -1    0    0    0    0  0.00000000000E+00  0.00000000000E+00  0.45593999997E+02  0.45594000000E+02  0.51100000000E-03 0.  1.
         11   -1    0    0    0    0 -0.00000000000E+00 -0.00000000000E+00 -0.45593999997E+02  0.45594000000E+02  0.51100000000E-03 0. -1.
    9900012    2    1    2    0    0  0.32606791069E+02 -0.11439075335E+02  0.26259609763E+02  0.47787281420E+02  0.20000047307E+02 0.  0.
         12    1    1    2    0    0 -0.32606791069E+02  0.11439075335E+02 -0.26259609763E+02  0.43400718580E+02  0.00000000000E+00 0. -1.
         11    1    3    3    0    0  0.14872855187E+02  0.18766098801E+01  0.17425863638E+02  0.22986609360E+02  0.51100000000E-03 0. -1.
        -11    1    3    3    0    0  0.14961784314E+02 -0.79928912129E+01  0.50206164121E+01  0.17690333214E+02  0.51100000000E-03 0.  1.
         12    1    3    3    0    0  0.27721515682E+01 -0.53227940023E+01  0.38131297125E+01  0.71103388465E+01  0.00000000000E+00 0. -1.
</event>
<event>
 7    1  0.2706925E-010  0.4778727E+02  0.7816164E-02  0.1312668E+00
        -11   -1    0    0    0    0  0.00000000000E+00  0.00000000000E+00  0.45593999997E+02  0.45594000000E+02  0.51100000000E-03 0.  1.
         11   -1    0    0    0    0 -0.00000000000E+00 -0.00000000000E+00 -0.45593999997E+02  0.45594000000E+02  0.51100000000E-03 0. -1.
    9900012    2    1    2    0    0  0.49588757842E+01 -0.31815126215E+02  0.29100351170E+02  0.47787272548E+02  0.20000006857E+02 0.  0.
         12    1    1    2    0    0 -0.49588757842E+01  0.31815126215E+02 -0.29100351170E+02  0.43400727452E+02  0.00000000000E+00 0. -1.
         11    1    3    3    0    0 -0.15671666518E+01  0.53014720306E+00 -0.18399127477E+01  0.24743375986E+01  0.51100000000E-03 0. -1.
        -11    1    3    3    0    0  0.35613360701E+01 -0.22940877138E+02  0.22573322858E+02  0.32380887319E+02  0.51100000000E-03 0.  1.
         12    1    3    3    0    0  0.29647063658E+01 -0.94043962796E+01  0.83669410596E+01  0.12932047630E+02  0.00000000000E+00 0. -1.
</event>
<event>
 7    1  0.2706925E-010  0.4778727E+02  0.7816164E-02  0.1312668E+00
        -11   -1    0    0    0    0  0.00000000000E+00  0.00000000000E+00  0.45593999997E+02  0.45594000000E+02  0.51100000000E-03 0.  1.
         11   -1    0    0    0    0 -0.00000000000E+00 -0.00000000000E+00 -0.45593999997E+02  0.45594000000E+02  0.51100000000E-03 0. -1.
    9900012    2    1    2    0    0  0.35697360471E+02 -0.28114100750E+01  0.24523824085E+02  0.47787268221E+02  0.19999987126E+02 0.  0.
         12    1    1    2    0    0 -0.35697360471E+02  0.28114100750E+01 -0.24523824085E+02  0.43400731779E+02  0.00000000000E+00 0. -1.
         11    1    3    3    0    0  0.20597596502E+02  0.54490925301E+01  0.20812861833E+02  0.29784707637E+02  0.51100000000E-03 0. -1.
        -11    1    3    3    0    0  0.62489383719E+01 -0.55448064213E+01  0.19409663258E+01  0.85767977453E+01  0.51100000000E-03 0.  1.
         12    1    3    3    0    0  0.88508255972E+01 -0.27156961838E+01  0.17699959257E+01  0.94257628387E+01  0.00000000000E+00 0. -1.
</event>
<event>
 7    1  0.2706925E-010  0.4778727E+02  0.7816164E-02  0.1312668E+00
        -11   -1    0    0    0    0  0.00000000000E+00  0.00000000000E+00  0.45593999997E+02  0.45594000000E+02  0.51100000000E-03 0.  1.
         11   -1    0    0    0    0 -0.00000000000E+00 -0.00000000000E+00 -0.45593999997E+02  0.45594000000E+02  0.51100000000E-03 0. -1.
    9900012    2    1    2    0    0  0.19934470146E+02  0.10827066866E+02  0.37000198254E+02  0.47787272497E+02  0.20000006624E+02 0.  0.
         12    1    1    2    0    0 -0.19934470146E+02 -0.10827066866E+02 -0.37000198254E+02  0.43400727503E+02  0.00000000000E+00 0. -1.
         11    1    3    3    0    0  0.10633637037E+02  0.47386434831E+01  0.53335339588E+01  0.12805294352E+02  0.51100000000E-03 0. -1.
        -11    1    3    3    0    0  0.25344715871E+01 -0.18683680465E+01  0.25602131982E+01  0.40582061634E+01  0.51100000000E-03 0.  1.
         12    1    3    3    0    0  0.67663615216E+01  0.79567914290E+01  0.29106451097E+02  0.30923771981E+02  0.00000000000E+00 0. -1.
</event>
<event>
 7    1  0.2706925E-010  0.4778728E+02  0.7816164E-02  0.1312668E+00
        -11   -1    0    0    0    0  0.00000000000E+00  0.00000000000E+00  0.45593999997E+02  0.45594000000E+02  0.51100000000E-03 0.  1.
         11   -1    0    0    0    0 -0.00000000000E+00 -0.00000000000E+00 -0.45593999997E+02  0.45594000000E+02  0.51100000000E-03 0. -1.
    9900012    2    1    2    0    0  0.17418079920E+02  0.14570739193E+02  0.36985494326E+02  0.47787277203E+02  0.20000028080E+02 0.  0.
         12    1    1    2    0    0 -0.17418079920E+02 -0.14570739193E+02 -0.36985494326E+02  0.43400722797E+02  0.00000000000E+00 0. -1.
         11    1    3    3    0    0 -0.41332666281E+00  0.29353692732E+01 -0.96777005020E+00  0.31183025561E+01  0.51100000000E-03 0. -1.
        -11    1    3    3    0    0  0.14734090068E+02  0.47237113158E+01  0.20852405488E+02  0.25965932943E+02  0.51100000000E-03 0.  1.
         12    1    3    3    0    0  0.30973165153E+01  0.69116586043E+01  0.17100858888E+02  0.18703041704E+02  0.00000000000E+00 0. -1.
</event>
<event>
 7    1  0.2706925E-010  0.4778728E+02  0.7816164E-02  0.1312668E+00
        -11   -1    0    0    0    0  0.00000000000E+00  0.00000000000E+00  0.45593999997E+02  0.45594000000E+02  0.51100000000E-03 0.  1.
         11   -1    0    0    0    0 -0.00000000000E+00 -0.00000000000E+00 -0.45593999997E+02  0.45594000000E+02  0.51100000000E-03 0. -1.
    9900012    2    1    2    0    0  0.24754772795E+02  0.34633389555E+02 -0.84470382568E+01  0.47787275311E+02  0.20000019454E+02 0.  0.
         12    1    1    2    0    0 -0.24754772795E+02 -0.34633389555E+02  0.84470382568E+01  0.43400724689E+02  0.00000000000E+00 0. -1.
         11    1    3    3    0    0 -0.14111500797E+01  0.13881139516E+01 -0.28186543139E+01  0.34442731153E+01  0.51100000000E-03 0. -1.
        -11    1    3    3    0    0  0.26245892733E+02  0.27411438825E+02 -0.34182985832E+01  0.38104050038E+02  0.51100000000E-03 0.  1.
        -12    1    3    3    0    0 -0.79969858574E-01  0.58338367788E+01 -0.22100853596E+01  0.62389521586E+01  0.00000000000E+00 0.  1.
</event>
<event>
 7    1  0.2706925E-010  0.4778723E+02  0.7816164E-02  0.1312668E+00
        -11   -1    0    0    0    0  0.00000000000E+00  0.00000000000E+00  0.45593999997E+02  0.45594000000E+02  0.51100000000E-03 0.  1.
         11   -1    0    0    0    0 -0.00000000000E+00 -0.00000000000E+00 -0.45593999997E+02  0.45594000000E+02  0.51100000000E-03 0. -1.
    9900012    2    1    2    0    0 -0.83358474781E+01 -0.87122207990E+01  0.41692178802E+02  0.47787229065E+02  0.19999808600E+02 0.  0.
         12    1    1    2    0    0  0.83358474781E+01  0.87122207990E+01 -0.41692178802E+02  0.43400770935E+02  0.00000000000E+00 0. -1.
         11    1    3    3    0    0  0.27935308867E+01 -0.98941632925E+01  0.15701171849E+02  0.18767660476E+02  0.51100000000E-03 0. -1.
        -11    1    3    3    0    0 -0.10044365564E+02  0.32446293182E+01  0.20618892553E+02  0.23163670464E+02  0.51100000000E-03 0.  1.
        -12    1    3    3    0    0 -0.10850128004E+01 -0.20626868246E+01  0.53721144007E+01  0.58558981247E+01  0.00000000000E+00 0.  1.
</event>
<event>
 7    1  0.2706925E-010  0.4778727E+02  0.7816164E-02  0.1312668E+00
        -11   -1    0    0    0    0  0.00000000000E+00  0.00000000000E+00  0.45593999997E+02  0.45594000000E+02  0.51100000000E-03 0.  1.
         11   -1    0    0    0    0 -0.00000000000E+00 -0.00000000000E+00 -0.45593999997E+02  0.45594000000E+02  0.51100000000E-03 0. -1.
    9900012    2    1    2    0    0 -0.40672294435E+02 -0.97962374529E+01  0.11550806712E+02  0.47787274907E+02  0.20000017613E+02 0.  0.
         12    1    1    2    0    0  0.40672294435E+02  0.97962374529E+01 -0.11550806712E+02  0.43400725093E+02  0.00000000000E+00 0. -1.
         11    1    3    3    0    0 -0.20870199800E+01 -0.46421507286E+01  0.64895649341E+01  0.82474037781E+01  0.51100000000E-03 0. -1.
        -11    1    3    3    0    0 -0.20758095670E+02 -0.48771041499E+01  0.16494429026E+01  0.21387036796E+02  0.51100000000E-03 0.  1.
         12    1    3    3    0    0 -0.17827178785E+02 -0.27698257441E+00  0.34117988751E+01  0.18152834334E+02  0.00000000000E+00 0. -1.
</event>
<event>
 7    1  0.2706925E-010  0.4778728E+02  0.7816164E-02  0.1312668E+00
        -11   -1    0    0    0    0  0.00000000000E+00  0.00000000000E+00  0.45593999997E+02  0.45594000000E+02  0.51100000000E-03 0.  1.
         11   -1    0    0    0    0 -0.00000000000E+00 -0.00000000000E+00 -0.45593999997E+02  0.45594000000E+02  0.51100000000E-03 0. -1.
    9900012    2    1    2    0    0 -0.17647159694E+02 -0.36687808335E+01  0.39480889308E+02  0.47787276289E+02  0.20000023912E+02 0.  0.
         12    1    1    2    0    0  0.17647159694E+02  0.36687808335E+01 -0.39480889308E+02  0.43400723711E+02  0.00000000000E+00 0. -1.
         11    1    3    3    0    0 -0.14322246820E+02 -0.83326703537E+01  0.24040195521E+02  0.29197451089E+02  0.51100000000E-03 0. -1.
        -11    1    3    3    0    0 -0.59040390641E+01  0.49663418097E+01  0.12234461625E+02  0.14463895732E+02  0.51100000000E-03 0.  1.
         12    1    3    3    0    0  0.25791261894E+01 -0.30245228953E+00  0.32062321625E+01  0.41259294672E+01  0.00000000000E+00 0. -1.
</event>
<event>
 7    1  0.2706925E-010  0.4778727E+02  0.7816164E-02  0.1312668E+00
        -11   -1    0    0    0    0  0.00000000000E+00  0.00000000000E+00  0.45593999997E+02  0.45594000000E+02  0.51100000000E-03 0.  1.
         11   -1    0    0    0    0 -0.00000000000E+00 -0.00000000000E+00 -0.45593999997E+02  0.45594000000E+02  0.51100000000E-03 0. -1.
    9900012    2    1    2    0    0 -0.29526098743E+02 -0.18414163353E+02  0.25937449934E+02  0.47787271573E+02  0.20000002409E+02 0.  0.
         12    1    1    2    0    0  0.29526098743E+02  0.18414163353E+02 -0.25937449934E+02  0.43400728427E+02  0.00000000000E+00 0. -1.
         11    1    3    3    0    0 -0.59716809845E+01 -0.53866303355E+01  0.11839747178E+02  0.14312804534E+02  0.51100000000E-03 0. -1.
        -11    1    3    3    0    0 -0.45767789198E+01 -0.11277598175E+01 -0.27397500364E+01  0.54520618128E+01  0.51100000000E-03 0.  1.
        -12    1    3    3    0    0 -0.18977638838E+02 -0.11899773200E+02  0.16837452792E+02  0.28022405226E+02  0.00000000000E+00 0.  1.
</event>
<event>
 7    1  0.2706925E-010  0.4778727E+02  0.7816164E-02  0.1312668E+00
        -11   -1    0    0    0    0  0.00000000000E+00  0.00000000000E+00  0.45593999997E+02  0.45594000000E+02  0.51100000000E-03 0. -1.
         11   -1    0    0    0    0 -0.00000000000E+00 -0.00000000000E+00 -0.45593999997E+02  0.45594000000E+02  0.51100000000E-03 0.  1.
    9900012    2    1    2    0    0 -0.24938636918E+02 -0.14028213276E+02 -0.32632754702E+02  0.47787273526E+02  0.20000011313E+02 0.  0.
         12    1    1    2    0    0  0.24938636918E+02  0.14028213276E+02  0.32632754702E+02  0.43400726474E+02  0.00000000000E+00 0. -1.
         11    1    3    3    0    0 -0.11479939019E+02 -0.12242827884E+02 -0.99255655887E+01  0.19498530380E+02  0.51100000000E-03 0. -1.
        -11    1    3    3    0    0 -0.49734349136E+01  0.13705913813E+01 -0.16562193353E+02  0.17347040800E+02  0.51100000000E-03 0.  1.
        -12    1    3    3    0    0 -0.84852629858E+01 -0.31559767733E+01 -0.61449957601E+01  0.10941702346E+02  0.00000000000E+00 0.  1.
</event>
<event>
 7    1  0.2706925E-010  0.4778727E+02  0.7816164E-02  0.1312668E+00
        -11   -1    0    0    0    0  0.00000000000E+00  0.00000000000E+00  0.45593999997E+02  0.45594000000E+02  0.51100000000E-03 0. -1.
         11   -1    0    0    0    0 -0.00000000000E+00 -0.00000000000E+00 -0.45593999997E+02  0.45594000000E+02  0.51100000000E-03 0.  1.
    9900012    2    1    2    0    0  0.14993898124E+02 -0.21112608458E+02 -0.34829069077E+02  0.47787271094E+02  0.20000000225E+02 0.  0.
         12    1    1    2    0    0 -0.14993898124E+02  0.21112608458E+02  0.34829069077E+02  0.43400728906E+02  0.00000000000E+00 0. -1.
         11    1    3    3    0    0  0.58222709882E+01 -0.13629951282E+01 -0.47380801305E+01  0.76292855999E+01  0.51100000000E-03 0. -1.
        -11    1    3    3    0    0 -0.31693845927E+01 -0.39942650803E+01 -0.12547547037E+02  0.13544005653E+02  0.51100000000E-03 0.  1.
        -12    1    3    3    0    0  0.12341011729E+02 -0.15755348249E+02 -0.17543441909E+02  0.26613979841E+02  0.00000000000E+00 0.  1.
</event>
<event>
 7    1  0.2706925E-010  0.4778727E+02  0.7816164E-02  0.1312668E+00
        -11   -1    0    0    0    0  0.00000000000E+00  0.00000000000E+00  0.45593999997E+02  0.45594000000E+02  0.51100000000E-03 0.  1.
         11   -1    0    0    0    0 -0.00000000000E+00 -0.00000000000E+00 -0.45593999997E+02  0.45594000000E+02  0.51100000000E-03 0. -1.
    9900012    2    1    2    0    0 -0.21589026979E+01 -0.41927847937E+02  0.11000811572E+02  0.47787272487E+02  0.20000006575E+02 0.  0.
         12    1    1    2    0    0  0.21589026979E+01  0.41927847937E+02 -0.11000811572E+02  0.43400727513E+02  0.00000000000E+00 0. -1.
         11    1    3    3    0    0 -0.10519384327E+02 -0.24234434180E+02  0.35142835226E+01  0.26651743575E+02  0.51100000000E-03 0. -1.
        -11    1    3    3    0    0  0.49416429821E+01 -0.11825828288E+02  0.61432182681E+01  0.14212993387E+02  0.51100000000E-03 0.  1.
         12    1    3    3    0    0  0.34188386472E+01 -0.58675854685E+01  0.13433097815E+01  0.69225355249E+01  0.00000000000E+00 0. -1.
</event>
<event>
 7    1  0.2706925E-010  0.4778727E+02  0.7816164E-02  0.1312668E+00
        -11   -1    0    0    0    0  0.00000000000E+00  0.00000000000E+00  0.45593999997E+02  0.45594000000E+02  0.51100000000E-03 0. -1.
         11   -1    0    0    0    0 -0.00000000000E+00 -0.00000000000E+00 -0.45593999997E+02  0.45594000000E+02  0.51100000000E-03 0.  1.
    9900012    2    1    2    0    0 -0.27719850416E+02 -0.48663955207E+01 -0.33038637691E+02  0.47787268521E+02  0.19999988493E+02 0.  0.
         12    1    1    2    0    0  0.27719850416E+02  0.48663955207E+01  0.33038637691E+02  0.43400731479E+02  0.00000000000E+00 0. -1.
         11    1    3    3    0    0  0.14245813937E+01 -0.30961768519E+01 -0.65015385423E+01  0.73406911748E+01  0.51100000000E-03 0. -1.
        -11    1    3    3    0    0 -0.27868476708E+02 -0.39090729593E-01 -0.22290218754E+02  0.35686235084E+02  0.51100000000E-03 0.  1.
        -12    1    3    3    0    0 -0.12759551018E+01 -0.17311279392E+01 -0.42468803947E+01  0.47603422619E+01  0.00000000000E+00 0.  1.
</event>
<event>
 7    1  0.2706925E-010  0.4778727E+02  0.7816164E-02  0.1312668E+00
        -11   -1    0    0    0    0  0.00000000000E+00  0.00000000000E+00  0.45593999997E+02  0.45594000000E+02  0.51100000000E-03 0. -1.
         11   -1    0    0    0    0 -0.00000000000E+00 -0.00000000000E+00 -0.45593999997E+02  0.45594000000E+02  0.51100000000E-03 0.  1.
    9900012    2    1    2    0    0 -0.28853674726E+02 -0.28426151299E+02 -0.15589829058E+02  0.47787269673E+02  0.19999993746E+02 0.  0.
         12    1    1    2    0    0  0.28853674726E+02  0.28426151299E+02  0.15589829058E+02  0.43400730327E+02  0.00000000000E+00 0. -1.
         11    1    3    3    0    0 -0.35584261948E+01  0.14042267661E+01  0.10252290353E+01  0.39604727787E+01  0.51100000000E-03 0. -1.
        -11    1    3    3    0    0 -0.24732016156E+02 -0.30205541914E+02 -0.14564408554E+02  0.41667365914E+02  0.51100000000E-03 0.  1.
        -12    1    3    3    0    0 -0.56323237549E+00  0.37516384903E+00 -0.20506495394E+01  0.21594309797E+01  0.00000000000E+00 0.  1.
</event>
<event>
 7    1  0.2706925E-010  0.4778727E+02  0.7816164E-02  0.1312668E+00
        -11   -1    0    0    0    0  0.00000000000E+00  0.00000000000E+00  0.45593999997E+02  0.45594000000E+02  0.51100000000E-03 0. -1.
         11   -1    0    0    0    0 -0.00000000000E+00 -0.00000000000E+00 -0.45593999997E+02  0.45594000000E+02  0.51100000000E-03 0.  1.
    9900012    2    1    2    0    0 -0.23659308165E+02 -0.28002736849E+02 -0.23231594275E+02  0.47787272974E+02  0.20000008796E+02 0.  0.
         12    1    1    2    0    0  0.23659308165E+02  0.28002736849E+02  0.23231594275E+02  0.43400727026E+02  0.00000000000E+00 0. -1.
         11    1    3    3    0    0  0.63237923987E-01  0.11610573633E+01  0.90143002090E+00  0.14712680176E+01  0.51100000000E-03 0. -1.
        -11    1    3    3    0    0 -0.18604103235E+02 -0.18895420626E+02 -0.22401396198E+02  0.34712708475E+02  0.51100000000E-03 0.  1.
         12    1    3    3    0    0 -0.51184428542E+01 -0.10268373586E+02 -0.17316280981E+01  0.11603296481E+02  0.00000000000E+00 0. -1.
</event>
<event>
 7    1  0.2706925E-010  0.4778727E+02  0.7816164E-02  0.1312668E+00
        -11   -1    0    0    0    0  0.00000000000E+00  0.00000000000E+00  0.45593999997E+02  0.45594000000E+02  0.51100000000E-03 0.  1.
         11   -1    0    0    0    0 -0.00000000000E+00 -0.00000000000E+00 -0.45593999997E+02  0.45594000000E+02  0.51100000000E-03 0. -1.
    9900012    2    1    2    0    0 -0.26976340549E+02 -0.18386989148E+02  0.28597534683E+02  0.47787270637E+02  0.19999998141E+02 0.  0.
         12    1    1    2    0    0  0.26976340549E+02  0.18386989148E+02 -0.28597534683E+02  0.43400729363E+02  0.00000000000E+00 0. -1.
         11    1    3    3    0    0 -0.18462942446E+02 -0.50587433087E+01  0.21642792454E+02  0.28894317661E+02  0.51100000000E-03 0. -1.
        -11    1    3    3    0    0 -0.80921301699E+01 -0.68923187002E+01  0.21361819786E+01  0.10842043233E+02  0.51100000000E-03 0.  1.
         12    1    3    3    0    0 -0.42126793309E+00 -0.64359271389E+01  0.48185602506E+01  0.80509097435E+01  0.00000000000E+00 0. -1.
</event>
<event>
 7    1  0.2706925E-010  0.4778727E+02  0.7816164E-02  0.1312668E+00
        -11   -1    0    0    0    0  0.00000000000E+00  0.00000000000E+00  0.45593999997E+02  0.45594000000E+02  0.51100000000E-03 0.  1.
         11   -1    0    0    0    0 -0.00000000000E+00 -0.00000000000E+00 -0.45593999997E+02  0.45594000000E+02  0.51100000000E-03 0. -1.
    9900012    2    1    2    0    0 -0.38761752378E+02 -0.13495412383E+02  0.14107565239E+02  0.47787274202E+02  0.20000014396E+02 0.  0.
         12    1    1    2    0    0  0.38761752378E+02  0.13495412383E+02 -0.14107565239E+02  0.43400725798E+02  0.00000000000E+00 0. -1.
         11    1    3    3    0    0 -0.36584094945E+02 -0.10278676466E+02  0.80392841170E+01  0.38841695151E+02  0.51100000000E-03 0. -1.
        -11    1    3    3    0    0 -0.24896957881E+01 -0.43176304115E+01  0.59989395182E+01  0.77992174666E+01  0.51100000000E-03 0.  1.
        -12    1    3    3    0    0  0.31203835514E+00  0.11008944944E+01  0.69341603906E-01  0.11463615838E+01  0.00000000000E+00 0.  1.
</event>
<event>
 7    1  0.2706925E-010  0.4778727E+02  0.7816164E-02  0.1312668E+00
        -11   -1    0    0    0    0  0.00000000000E+00  0.00000000000E+00  0.45593999997E+02  0.45594000000E+02  0.51100000000E-03 0.  1.
         11   -1    0    0    0    0 -0.00000000000E+00 -0.00000000000E+00 -0.45593999997E+02  0.45594000000E+02  0.51100000000E-03 0. -1.
    9900012    2    1    2    0    0  0.10501478890E+02  0.23804685079E+01  0.42043732138E+02  0.47787273033E+02  0.20000009065E+02 0.  0.
         12    1    1    2    0    0 -0.10501478890E+02 -0.23804685079E+01 -0.42043732138E+02  0.43400726967E+02  0.00000000000E+00 0. -1.
         11    1    3    3    0    0  0.37977014642E+01  0.15699376698E+01  0.13331009855E+01  0.43202313823E+01  0.51100000000E-03 0. -1.
        -11    1    3    3    0    0  0.90262338192E+01  0.68600396609E+00  0.40034225557E+02  0.41044886583E+02  0.51100000000E-03 0.  1.
        -12    1    3    3    0    0 -0.23224563936E+01  0.12452687204E+00  0.67640559607E+00  0.24221550678E+01  0.00000000000E+00 0.  1.
</event>
<event>
 7    1  0.2706925E-010  0.4778730E+02  0.7816164E-02  0.1312668E+00
        -11   -1    0    0    0    0  0.00000000000E+00  0.00000000000E+00  0.45593999997E+02  0.45594000000E+02  0.51100000000E-03 0.  1.
         11   -1    0    0    0    0 -0.00000000000E+00 -0.00000000000E+00 -0.45593999997E+02  0.45594000000E+02  0.51100000000E-03 0. -1.
    9900012    2    1    2    0    0  0.33278864564E+02  0.15051071982E+02  0.23443614929E+02  0.47787300980E+02  0.20000136487E+02 0.  0.
         12    1    1    2    0    0 -0.33278864564E+02 -0.15051071982E+02 -0.23443614929E+02  0.43400699020E+02  0.00000000000E+00 0. -1.
         11    1    3    3    0    0  0.16680854116E+02  0.16731811833E+02  0.19475841818E+02  0.30618831395E+02  0.51100000000E-03 0. -1.
        -11    1    3    3    0    0  0.96216009311E+01 -0.58993353301E+00  0.21335605034E+01  0.98729583578E+01  0.51100000000E-03 0.  1.
         12    1    3    3    0    0  0.69764095170E+01 -0.10908063173E+01  0.18342126079E+01  0.72955112269E+01  0.00000000000E+00 0. -1.
</event>
<event>
 7    1  0.2706925E-010  0.4778727E+02  0.7816164E-02  0.1312668E+00
        -11   -1    0    0    0    0  0.00000000000E+00  0.00000000000E+00  0.45593999997E+02  0.45594000000E+02  0.51100000000E-03 0.  1.
         11   -1    0    0    0    0 -0.00000000000E+00 -0.00000000000E+00 -0.45593999997E+02  0.45594000000E+02  0.51100000000E-03 0. -1.
    9900012    2    1    2    0    0  0.11176045628E+01  0.14290276769E+02  0.40965375955E+02  0.47787273310E+02  0.20000010330E+02 0.  0.
         12    1    1    2    0    0 -0.11176045628E+01 -0.14290276769E+02 -0.40965375955E+02  0.43400726690E+02  0.00000000000E+00 0. -1.
         11    1    3    3    0    0 -0.70497727907E+01  0.71906708644E+01  0.11331415119E+02  0.15159353969E+02  0.51100000000E-03 0. -1.
        -11    1    3    3    0    0  0.26903303432E+01  0.18071732359E+01  0.20410955039E+02  0.20666660067E+02  0.51100000000E-03 0.  1.
         12    1    3    3    0    0  0.54770470102E+01  0.52924326688E+01  0.92230057964E+01  0.11961259274E+02  0.00000000000E+00 0. -1.
</event>
<event>
 7    1  0.2706925E-010  0.4778727E+02  0.7816164E-02  0.1312668E+00
        -11   -1    0    0    0    0  0.00000000000E+00  0.00000000000E+00  0.45593999997E+02  0.45594000000E+02  0.51100000000E-03 0. -1.
         11   -1    0    0    0    0 -0.00000000000E+00 -0.00000000000E+00 -0.45593999997E+02  0.45594000000E+02  0.51100000000E-03 0.  1.
    9900012    2    1    2    0    0 -0.30331174475E+02 -0.22772058530E+02 -0.21096830101E+02  0.47787273796E+02  0.20000012547E+02 0.  0.
         12    1    1    2    0    0  0.30331174475E+02  0.22772058530E+02  0.21096830101E+02  0.43400726204E+02  0.00000000000E+00 0. -1.
         11    1    3    3    0    0 -0.33627803930E+01 -0.57526954084E+00 -0.10803461596E+02  0.11329342864E+02  0.51100000000E-03 0. -1.
        -11    1    3    3    0    0 -0.21676429121E+02 -0.17821771103E+02 -0.90072087963E+01  0.29472239740E+02  0.51100000000E-03 0.  1.
         12    1    3    3    0    0 -0.52919649602E+01 -0.43750178858E+01 -0.12861597084E+01  0.69856911925E+01  0.00000000000E+00 0. -1.
</event>
<event>
 7    1  0.2706925E-010  0.4778727E+02  0.7816164E-02  0.1312668E+00
        -11   -1    0    0    0    0  0.00000000000E+00  0.00000000000E+00  0.45593999997E+02  0.45594000000E+02  0.51100000000E-03 0.  1.
         11   -1    0    0    0    0 -0.00000000000E+00 -0.00000000000E+00 -0.45593999997E+02  0.45594000000E+02  0.51100000000E-03 0. -1.
    9900012    2    1    2    0    0  0.85794752618E+01  0.16982905818E+02  0.39007652662E+02  0.47787268993E+02  0.19999990645E+02 0.  0.
         12    1    1    2    0    0 -0.85794752618E+01 -0.16982905818E+02 -0.39007652662E+02  0.43400731007E+02  0.00000000000E+00 0. -1.
         11    1    3    3    0    0  0.25665869594E+01  0.55854950896E+01 -0.46633994987E+00  0.61646246622E+01  0.51100000000E-03 0. -1.
        -11    1    3    3    0    0  0.60079084602E+01  0.91178998379E+01  0.32891254904E+02  0.34656394950E+02  0.51100000000E-03 0.  1.
         12    1    3    3    0    0  0.49798421664E-02  0.22795108908E+01  0.65827377075E+01  0.69662493801E+01  0.00000000000E+00 0. -1.
</event>
<event>
 7    1  0.2706925E-010  0.4778728E+02  0.7816164E-02  0.1312668E+00
        -11   -1    0    0    0    0  0.00000000000E+00  0.00000000000E+00  0.45593999997E+02  0.45594000000E+02  0.51100000000E-03 0.  1.
         11   -1    0    0    0    0 -0.00000000000E+00 -0.00000000000E+00 -0.45593999997E+02  0.45594000000E+02  0.51100000000E-03 0. -1.
    9900012    2    1    2    0    0 -0.10489016338E+02 -0.29449136009E+02  0.30105672921E+02  0.47787278607E+02  0.20000034482E+02 0.  0.
         12    1    1    2    0    0  0.10489016338E+02  0.29449136009E+02 -0.30105672921E+02  0.43400721393E+02  0.00000000000E+00 0. -1.
         11    1    3    3    0    0  0.21570016108E+01 -0.10853650739E+01  0.11131073936E+02  0.11389972806E+02  0.51100000000E-03 0. -1.
        -11    1    3    3    0    0 -0.91022978085E+01 -0.19806366327E+02  0.13367503036E+02  0.25570180096E+02  0.51100000000E-03 0.  1.
         12    1    3    3    0    0 -0.35437201405E+01 -0.85574046075E+01  0.56070959493E+01  0.10827125705E+02  0.00000000000E+00 0. -1.
</event>
<event>
 7    1  0.2706925E-010  0.4778727E+02  0.7816164E-02  0.1312668E+00
        -11   -1    0    0    0    0  0.00000000000E+00  0.00000000000E+00  0.45593999997E+02  0.45594000000E+02  0.51100000000E-03 0.  1.
         11   -1    0    0    0    0 -0.00000000000E+00 -0.00000000000E+00 -0.45593999997E+02  0.45594000000E+02  0.51100000000E-03 0. -1.
    9900012    2    1    2    0    0 -0.77450034530E+01 -0.88152542488E+01  0.41784325429E+02  0.47787266855E+02  0.19999980901E+02 0.  0.
         12    1    1    2    0    0  0.77450034530E+01  0.88152542488E+01 -0.41784325429E+02  0.43400733145E+02  0.00000000000E+00 0. -1.
         11    1    3    3    0    0 -0.50297539005E+01  0.98541969272E+00  0.48601129187E+00  0.51483670719E+01  0.51100000000E-03 0. -1.
        -11    1    3    3    0    0 -0.32380866216E+01 -0.86147327606E+01  0.33856216569E+02  0.35084786249E+02  0.51100000000E-03 0.  1.
         12    1    3    3    0    0  0.52283706912E+00 -0.11859411809E+01  0.74420975675E+01  0.75541135343E+01  0.00000000000E+00 0. -1.
</event>
<event>
 7    1  0.2706925E-010  0.4778728E+02  0.7816164E-02  0.1312668E+00
        -11   -1    0    0    0    0  0.00000000000E+00  0.00000000000E+00  0.45593999997E+02  0.45594000000E+02  0.51100000000E-03 0. -1.
         11   -1    0    0    0    0 -0.00000000000E+00 -0.00000000000E+00 -0.45593999997E+02  0.45594000000E+02  0.51100000000E-03 0.  1.
    9900012    2    1    2    0    0  0.27591453407E+02 -0.15076115373E+02 -0.29917306118E+02  0.47787276951E+02  0.20000026929E+02 0.  0.
         12    1    1    2    0    0 -0.27591453407E+02  0.15076115373E+02  0.29917306118E+02  0.43400723049E+02  0.00000000000E+00 0. -1.
         11    1    3    3    0    0  0.72364412157E+01 -0.72144344856E+01 -0.10535043258E+02  0.14676555561E+02  0.51100000000E-03 0. -1.
        -11    1    3    3    0    0  0.69027139338E+01 -0.85554944133E+01 -0.20878066055E+01  0.11189409323E+02  0.51100000000E-03 0.  1.
        -12    1    3    3    0    0  0.13452298257E+02  0.69381352582E+00 -0.17294456255E+02  0.21921312067E+02  0.00000000000E+00 0.  1.
</event>
<event>
 7    1  0.2706925E-010  0.4778727E+02  0.7816164E-02  0.1312668E+00
        -11   -1    0    0    0    0  0.00000000000E+00  0.00000000000E+00  0.45593999997E+02  0.45594000000E+02  0.51100000000E-03 0. -1.
         11   -1    0    0    0    0 -0.00000000000E+00 -0.00000000000E+00 -0.45593999997E+02  0.45594000000E+02  0.51100000000E-03 0.  1.
    9900012    2    1    2    0    0 -0.33092689782E+02 -0.69349785988E+01 -0.27210348705E+02  0.47787272796E+02  0.20000007986E+02 0.  0.
         12    1    1    2    0    0  0.33092689782E+02  0.69349785988E+01  0.27210348705E+02  0.43400727204E+02  0.00000000000E+00 0. -1.
         11    1    3    3    0    0 -0.12869499123E+02  0.53795969291E+00 -0.17802806286E+01  0.13003184521E+02  0.51100000000E-03 0. -1.
        -11    1    3    3    0    0 -0.11401938585E+02 -0.12167181111E+00 -0.80677500611E+01  0.13968092169E+02  0.51100000000E-03 0.  1.
         12    1    3    3    0    0 -0.88212520738E+01 -0.73512664806E+01 -0.17362318016E+02  0.20815996106E+02  0.00000000000E+00 0. -1.
</event>
<event>
 7    1  0.2706925E-010  0.4778727E+02  0.7816164E-02  0.1312668E+00
        -11   -1    0    0    0    0  0.00000000000E+00  0.00000000000E+00  0.45593999997E+02  0.45594000000E+02  0.51100000000E-03 0.  1.
         11   -1    0    0    0    0 -0.00000000000E+00 -0.00000000000E+00 -0.45593999997E+02  0.45594000000E+02  0.51100000000E-03 0. -1.
    9900012    2    1    2    0    0  0.12689750943E+01  0.57055910957E+01  0.43005337135E+02  0.47787273167E+02  0.20000009679E+02 0.  0.
         12    1    1    2    0    0 -0.12689750943E+01 -0.57055910957E+01 -0.43005337135E+02  0.43400726833E+02  0.00000000000E+00 0. -1.
         11    1    3    3    0    0 -0.16912098867E+01 -0.30215572472E+01 -0.20219367737E-01  0.34627168760E+01  0.51100000000E-03 0. -1.
        -11    1    3    3    0    0  0.21318049142E+01  0.11336548682E+01  0.17941688647E+02  0.18103423912E+02  0.51100000000E-03 0.  1.
         12    1    3    3    0    0  0.82838006679E+00  0.75934934746E+01  0.25083867855E+02  0.26221132379E+02  0.00000000000E+00 0. -1.
</event>
<event>
 7    1  0.2706925E-010  0.4778728E+02  0.7816164E-02  0.1312668E+00
        -11   -1    0    0    0    0  0.00000000000E+00  0.00000000000E+00  0.45593999997E+02  0.45594000000E+02  0.51100000000E-03 0.  1.
         11   -1    0    0    0    0 -0.00000000000E+00 -0.00000000000E+00 -0.45593999997E+02  0.45594000000E+02  0.51100000000E-03 0. -1.
    9900012    2    1    2    0    0 -0.12740971236E+02 -0.16345116803E+02  0.38133015801E+02  0.47787284736E+02  0.20000062426E+02 0.  0.
         12    1    1    2    0    0  0.12740971236E+02  0.16345116803E+02 -0.38133015801E+02  0.43400715264E+02  0.00000000000E+00 0. -1.
         11    1    3    3    0    0 -0.77340697571E+01  0.11792136210E+01  0.10046240525E+02  0.12733158631E+02  0.51100000000E-03 0. -1.
        -11    1    3    3    0    0 -0.26595307173E+01 -0.81878151536E+00  0.66867836707E+00  0.28619290393E+01  0.51100000000E-03 0.  1.
        -12    1    3    3    0    0 -0.23473707612E+01 -0.16705548909E+02  0.27418096909E+02  0.32192197066E+02  0.00000000000E+00 0.  1.
</event>
<event>
 7    1  0.2706925E-010  0.4778727E+02  0.7816164E-02  0.1312668E+00
        -11   -1    0    0    0    0  0.00000000000E+00  0.00000000000E+00  0.45593999997E+02  0.45594000000E+02  0.51100000000E-03 0.  1.
         11   -1    0    0    0    0 -0.00000000000E+00 -0.00000000000E+00 -0.45593999997E+02  0.45594000000E+02  0.51100000000E-03 0. -1.
    9900012    2    1    2    0    0 -0.22124829670E+02  0.16425336408E+00  0.37337488785E+02  0.47787272634E+02  0.20000007250E+02 0.  0.
         12    1    1    2    0    0  0.22124829670E+02 -0.16425336408E+00 -0.37337488785E+02  0.43400727366E+02  0.00000000000E+00 0. -1.
         11    1    3    3    0    0 -0.17320506267E+02 -0.65994867101E+01  0.15587979290E+02  0.24218551996E+02  0.51100000000E-03 0.  1.
        -11    1    3    3    0    0 -0.36230046859E+00  0.34273223816E+01  0.98691344353E+01  0.10453593406E+02  0.51100000000E-03 0. -1.
        -12    1    3    3    0    0 -0.44420229351E+01  0.33364176925E+01  0.11880375059E+02  0.13115127232E+02  0.00000000000E+00 0.  1.
</event>
<event>
 7    1  0.2706925E-010  0.4778727E+02  0.7816164E-02  0.1312668E+00
        -11   -1    0    0    0    0  0.00000000000E+00  0.00000000000E+00  0.45593999997E+02  0.45594000000E+02  0.51100000000E-03 0.  1.
         11   -1    0    0    0    0 -0.00000000000E+00 -0.00000000000E+00 -0.45593999997E+02  0.45594000000E+02  0.51100000000E-03 0. -1.
    9900012    2    1    2    0    0  0.35965313215E+02  0.22190916948E+02  0.98834665651E+01  0.47787268889E+02  0.19999990171E+02 0.  0.
         12    1    1    2    0    0 -0.35965313215E+02 -0.22190916948E+02 -0.98834665651E+01  0.43400731111E+02  0.00000000000E+00 0. -1.
         11    1    3    3    0    0  0.97925640998E+01  0.64881803408E+01 -0.23156181398E+01  0.11973006448E+02  0.51100000000E-03 0. -1.
        -11    1    3    3    0    0  0.22448745355E+02  0.13643338478E+02  0.15434773100E+02  0.30468329028E+02  0.51100000000E-03 0.  1.
        -12    1    3    3    0    0  0.37240037600E+01  0.20593981294E+01 -0.32356883950E+01  0.53459334124E+01  0.00000000000E+00 0.  1.
</event>
<event>
 7    1  0.2706925E-010  0.4778728E+02  0.7816164E-02  0.1312668E+00
        -11   -1    0    0    0    0  0.00000000000E+00  0.00000000000E+00  0.45593999997E+02  0.45594000000E+02  0.51100000000E-03 0.  1.
         11   -1    0    0    0    0 -0.00000000000E+00 -0.00000000000E+00 -0.45593999997E+02  0.45594000000E+02  0.51100000000E-03 0. -1.
    9900012    2    1    2    0    0  0.31774172171E+02  0.29536929935E+02  0.12627815430E+01  0.47787275762E+02  0.20000021510E+02 0.  0.
         12    1    1    2    0    0 -0.31774172171E+02 -0.29536929935E+02 -0.12627815430E+01  0.43400724238E+02  0.00000000000E+00 0. -1.
         11    1    3    3    0    0 -0.41617574138E+00  0.56177455407E+01 -0.52723078948E+00  0.56577592538E+01  0.51100000000E-03 0. -1.
        -11    1    3    3    0    0  0.23395233446E+02  0.18879569995E+02  0.68000715734E+01  0.30822330945E+02  0.51100000000E-03 0.  1.
        -12    1    3    3    0    0  0.87951144667E+01  0.50396143990E+01 -0.50100592409E+01  0.11307185564E+02  0.00000000000E+00 0.  1.
</event>
<event>
 7    1  0.2706925E-010  0.4778726E+02  0.7816164E-02  0.1312668E+00
        -11   -1    0    0    0    0  0.00000000000E+00  0.00000000000E+00  0.45593999997E+02  0.45594000000E+02  0.51100000000E-03 0.  1.
         11   -1    0    0    0    0 -0.00000000000E+00 -0.00000000000E+00 -0.45593999997E+02  0.45594000000E+02  0.51100000000E-03 0. -1.
    9900012    2    1    2    0    0  0.14135526645E+01 -0.34979388840E+02  0.25652837729E+02  0.47787264312E+02  0.19999969303E+02 0.  0.
         12    1    1    2    0    0 -0.14135526645E+01  0.34979388840E+02 -0.25652837729E+02  0.43400735688E+02  0.00000000000E+00 0. -1.
         11    1    3    3    0    0  0.33386177853E+01 -0.31166622024E+02  0.19260591307E+02  0.36789605528E+02  0.51100000000E-03 0. -1.
        -11    1    3    3    0    0  0.13136521921E+01 -0.48575379329E+01  0.55506643952E+01  0.74920779721E+01  0.51100000000E-03 0.  1.
         12    1    3    3    0    0 -0.32387173130E+01  0.10447711173E+01  0.84158202617E+00  0.35055808117E+01  0.00000000000E+00 0. -1.
</event>
<event>
 7    1  0.2706925E-010  0.4778727E+02  0.7816164E-02  0.1312668E+00
        -11   -1    0    0    0    0  0.00000000000E+00  0.00000000000E+00  0.45593999997E+02  0.45594000000E+02  0.51100000000E-03 0.  1.
         11   -1    0    0    0    0 -0.00000000000E+00 -0.00000000000E+00 -0.45593999997E+02  0.45594000000E+02  0.51100000000E-03 0. -1.
    9900012    2    1    2    0    0  0.26359214651E+02 -0.22135159690E+02  0.26435768206E+02  0.47787270373E+02  0.19999996938E+02 0.  0.
         12    1    1    2    0    0 -0.26359214651E+02  0.22135159690E+02 -0.26435768206E+02  0.43400729627E+02  0.00000000000E+00 0. -1.
         11    1    3    3    0    0  0.25043616883E+01 -0.75467457409E+01  0.11407534578E+02  0.13905288352E+02  0.51100000000E-03 0. -1.
        -11    1    3    3    0    0  0.15267666804E+02 -0.63843604405E+01  0.27067332018E+01  0.16768664608E+02  0.51100000000E-03 0.  1.
        -12    1    3    3    0    0  0.85871861591E+01 -0.82040535088E+01  0.12321500426E+02  0.17113317412E+02  0.00000000000E+00 0.  1.
</event>
<event>
 7    1  0.2706925E-010  0.4778727E+02  0.7816164E-02  0.1312668E+00
        -11   -1    0    0    0    0  0.00000000000E+00  0.00000000000E+00  0.45593999997E+02  0.45594000000E+02  0.51100000000E-03 0. -1.
         11   -1    0    0    0    0 -0.00000000000E+00 -0.00000000000E+00 -0.45593999997E+02  0.45594000000E+02  0.51100000000E-03 0.  1.
    9900012    2    1    2    0    0  0.36169298154E+02 -0.13214377960E+02  0.20019627047E+02  0.47787269811E+02  0.19999994375E+02 0.  0.
         12    1    1    2    0    0 -0.36169298154E+02  0.13214377960E+02 -0.20019627047E+02  0.43400730189E+02  0.00000000000E+00 0. -1.
         11    1    3    3    0    0  0.74078291016E+01 -0.35377905089E-01  0.10677589399E+02  0.12995695412E+02  0.51100000000E-03 0. -1.
        -11    1    3    3    0    0  0.27052404730E+02 -0.10606890211E+02  0.11252567042E+02  0.31160214809E+02  0.51100000000E-03 0.  1.
         12    1    3    3    0    0  0.17090643226E+01 -0.25721098434E+01 -0.19105293941E+01  0.36313595899E+01  0.00000000000E+00 0. -1.
</event>
<event>
 7    1  0.2706925E-010  0.4778733E+02  0.7816164E-02  0.1312667E+00
        -11   -1    0    0    0    0  0.00000000000E+00  0.00000000000E+00  0.45593999997E+02  0.45594000000E+02  0.51100000000E-03 0. -1.
         11   -1    0    0    0    0 -0.00000000000E+00 -0.00000000000E+00 -0.45593999997E+02  0.45594000000E+02  0.51100000000E-03 0.  1.
    9900012    2    1    2    0    0  0.25000809676E+02  0.35064548182E+02 -0.53902564707E+01  0.47787333087E+02  0.20000282876E+02 0.  0.
         12    1    1    2    0    0 -0.25000809676E+02 -0.35064548182E+02  0.53902564707E+01  0.43400666913E+02  0.00000000000E+00 0. -1.
         11    1    3    3    0    0  0.31663482112E+01  0.17124421020E+02 -0.13257643041E+01  0.17465085385E+02  0.51100000000E-03 0. -1.
        -11    1    3    3    0    0  0.19220143328E+02  0.19181195602E+02 -0.36076987617E+01  0.27392474603E+02  0.51100000000E-03 0.  1.
        -12    1    3    3    0    0  0.26143181373E+01 -0.12410684404E+01 -0.45679340487E+00  0.29297730990E+01  0.00000000000E+00 0.  1.
</event>
<event>
 7    1  0.2706925E-010  0.4778727E+02  0.7816164E-02  0.1312668E+00
        -11   -1    0    0    0    0  0.00000000000E+00  0.00000000000E+00  0.45593999997E+02  0.45594000000E+02  0.51100000000E-03 0.  1.
         11   -1    0    0    0    0 -0.00000000000E+00 -0.00000000000E+00 -0.45593999997E+02  0.45594000000E+02  0.51100000000E-03 0. -1.
    9900012    2    1    2    0    0 -0.26200296328E+02  0.34435310395E+02  0.33729740512E+01  0.47787273237E+02  0.20000009995E+02 0.  0.
         12    1    1    2    0    0  0.26200296328E+02 -0.34435310395E+02 -0.33729740512E+01  0.43400726763E+02  0.00000000000E+00 0. -1.
         11    1    3    3    0    0 -0.19178357794E+02  0.28346796836E+02  0.40228753304E+01  0.34460612657E+02  0.51100000000E-03 0.  1.
        -11    1    3    3    0    0 -0.44701273746E+01  0.85861225139E+01 -0.10351691692E+01  0.97352511030E+01  0.51100000000E-03 0. -1.
         12    1    3    3    0    0 -0.25518111595E+01 -0.24976089547E+01  0.38526788992E+00  0.35914094770E+01  0.00000000000E+00 0. -1.
</event>
<event>
 7    1  0.2706925E-010  0.4778730E+02  0.7816164E-02  0.1312668E+00
        -11   -1    0    0    0    0  0.00000000000E+00  0.00000000000E+00  0.45593999997E+02  0.45594000000E+02  0.51100000000E-03 0.  1.
         11   -1    0    0    0    0 -0.00000000000E+00 -0.00000000000E+00 -0.45593999997E+02  0.45594000000E+02  0.51100000000E-03 0. -1.
    9900012    2    1    2    0    0 -0.39608260209E+02  0.15126021880E+02  0.92741567220E+01  0.47787299572E+02  0.20000130070E+02 0.  0.
         12    1    1    2    0    0  0.39608260209E+02 -0.15126021880E+02 -0.92741567220E+01  0.43400700428E+02  0.00000000000E+00 0. -1.
         11    1    3    3    0    0  0.59007254648E+00 -0.23807524242E+01 -0.45124568229E+00  0.24939508100E+01  0.51100000000E-03 0. -1.
        -11    1    3    3    0    0 -0.39623361557E+02  0.17931802892E+02  0.97735965573E+01  0.44576715065E+02  0.51100000000E-03 0.  1.
        -12    1    3    3    0    0 -0.57497119891E+00 -0.42502858831E+00 -0.48194152988E-01  0.71663369782E+00  0.00000000000E+00 0.  1.
</event>
<event>
 7    1  0.2706925E-010  0.4778727E+02  0.7816164E-02  0.1312668E+00
        -11   -1    0    0    0    0  0.00000000000E+00  0.00000000000E+00  0.45593999997E+02  0.45594000000E+02  0.51100000000E-03 0.  1.
         11   -1    0    0    0    0 -0.00000000000E+00 -0.00000000000E+00 -0.45593999997E+02  0.45594000000E+02  0.51100000000E-03 0. -1.
    9900012    2    1    2    0    0  0.17845625832E+02 -0.39050158679E+02  0.63436479354E+01  0.47787272779E+02  0.20000007907E+02 0.  0.
         12    1    1    2    0    0 -0.17845625832E+02  0.39050158679E+02 -0.63436479354E+01  0.43400727221E+02  0.00000000000E+00 0. -1.
         11    1    3    3    0    0  0.13929435349E+02 -0.34198034313E+02 -0.55727016652E+00  0.36930275795E+02  0.51100000000E-03 0. -1.
        -11    1    3    3    0    0  0.16934563846E+01 -0.54552083605E+01  0.62429241562E+01  0.84617489365E+01  0.51100000000E-03 0.  1.
         12    1    3    3    0    0  0.22227340978E+01  0.60308399389E+00  0.65799394571E+00  0.23952480468E+01  0.00000000000E+00 0. -1.
</event>
<event>
 7    1  0.2706925E-010  0.4778727E+02  0.7816164E-02  0.1312668E+00
        -11   -1    0    0    0    0  0.00000000000E+00  0.00000000000E+00  0.45593999997E+02  0.45594000000E+02  0.51100000000E-03 0.  1.
         11   -1    0    0    0    0 -0.00000000000E+00 -0.00000000000E+00 -0.45593999997E+02  0.45594000000E+02  0.51100000000E-03 0. -1.
    9900012    2    1    2    0    0  0.30190415104E+01  0.39860724272E+02  0.16900627085E+02  0.47787272507E+02  0.20000006667E+02 0.  0.
         12    1    1    2    0    0 -0.30190415104E+01 -0.39860724272E+02 -0.16900627085E+02  0.43400727493E+02  0.00000000000E+00 0. -1.
         11    1    3    3    0    0  0.22921465923E+01  0.47177137255E+01 -0.39189794725E+01  0.65474544033E+01  0.51100000000E-03 0. -1.
        -11    1    3    3    0    0  0.30494461775E+01  0.18100836113E+02  0.11760975925E+02  0.21800457448E+02  0.51100000000E-03 0.  1.
         12    1    3    3    0    0 -0.23225512594E+01  0.17042174434E+02  0.90586306321E+01  0.19439360656E+02  0.00000000000E+00 0. -1.
</event>
<event>
 7    1  0.2706925E-010  0.4778727E+02  0.7816164E-02  0.1312668E+00
        -11   -1    0    0    0    0  0.00000000000E+00  0.00000000000E+00  0.45593999997E+02  0.45594000000E+02  0.51100000000E-03 0. -1.
         11   -1    0    0    0    0 -0.00000000000E+00 -0.00000000000E+00 -0.45593999997E+02  0.45594000000E+02  0.51100000000E-03 0.  1.
    9900012    2    1    2    0    0  0.26159287823E+02 -0.90582593260E+01 -0.33425485028E+02  0.47787269006E+02  0.19999990707E+02 0.  0.
         12    1    1    2    0    0 -0.26159287823E+02  0.90582593260E+01  0.33425485028E+02  0.43400730994E+02  0.00000000000E+00 0. -1.
         11    1    3    3    0    0  0.16744572002E+02  0.28523730824E+01 -0.20954365934E+02  0.26974101945E+02  0.51100000000E-03 0. -1.
        -11    1    3    3    0    0  0.92212492669E+01 -0.12325061388E+02 -0.12975630906E+02  0.20132202411E+02  0.51100000000E-03 0.  1.
         12    1    3    3    0    0  0.19346655377E+00  0.41442897953E+00  0.50451181223E+00  0.68096465046E+00  0.00000000000E+00 0. -1.
</event>
<event>
 7    1  0.2706925E-010  0.4778727E+02  0.7816164E-02  0.1312668E+00
        -11   -1    0    0    0    0  0.00000000000E+00  0.00000000000E+00  0.45593999997E+02  0.45594000000E+02  0.51100000000E-03 0.  1.
         11   -1    0    0    0    0 -0.00000000000E+00 -0.00000000000E+00 -0.45593999997E+02  0.45594000000E+02  0.51100000000E-03 0. -1.
    9900012    2    1    2    0    0  0.17155065305E+02  0.39866229163E+02  0.10399342221E+00  0.47787270652E+02  0.19999998212E+02 0.  0.
         12    1    1    2    0    0 -0.17155065305E+02 -0.39866229163E+02 -0.10399342221E+00  0.43400729348E+02  0.00000000000E+00 0. -1.
         11    1    3    3    0    0  0.14101480234E+02  0.15089838164E+02 -0.30493733056E+01  0.20877107999E+02  0.51100000000E-03 0. -1.
        -11    1    3    3    0    0  0.46973248722E+01  0.55439869473E+01  0.21661931592E+01  0.75824168502E+01  0.51100000000E-03 0.  1.
         12    1    3    3    0    0 -0.16437398017E+01  0.19232404052E+02  0.98717356861E+00  0.19327745803E+02  0.00000000000E+00 0. -1.
</event>
<event>
 7    1  0.2706925E-010  0.4778727E+02  0.7816164E-02  0.1312668E+00
        -11   -1    0    0    0    0  0.00000000000E+00  0.00000000000E+00  0.45593999997E+02  0.45594000000E+02  0.51100000000E-03 0.  1.
         11   -1    0    0    0    0 -0.00000000000E+00 -0.00000000000E+00 -0.45593999997E+02  0.45594000000E+02  0.51100000000E-03 0. -1.
    9900012    2    1    2    0    0 -0.39722444195E+02  0.16630886561E+02  0.54003946326E+01  0.47787271633E+02  0.20000002681E+02 0.  0.
         12    1    1    2    0    0  0.39722444195E+02 -0.16630886561E+02 -0.54003946326E+01  0.43400728367E+02  0.00000000000E+00 0. -1.
         11    1    3    3    0    0  0.80257813537E-03 -0.21816837861E+00  0.39338081492E+01  0.39398534112E+01  0.51100000000E-03 0. -1.
        -11    1    3    3    0    0 -0.23085038573E+02  0.72954867029E+01  0.38478355368E+01  0.24514260558E+02  0.51100000000E-03 0.  1.
         12    1    3    3    0    0 -0.16638208200E+02  0.95535682363E+01 -0.23812490534E+01  0.19333157663E+02  0.00000000000E+00 0. -1.
</event>
<event>
 7    1  0.2706925E-010  0.4778727E+02  0.7816164E-02  0.1312668E+00
        -11   -1    0    0    0    0  0.00000000000E+00  0.00000000000E+00  0.45593999997E+02  0.45594000000E+02  0.51100000000E-03 0.  1.
         11   -1    0    0    0    0 -0.00000000000E+00 -0.00000000000E+00 -0.45593999997E+02  0.45594000000E+02  0.51100000000E-03 0. -1.
    9900012    2    1    2    0    0 -0.31463728916E+01  0.22466775830E+02  0.36999563159E+02  0.47787270138E+02  0.19999995868E+02 0.  0.
         12    1    1    2    0    0  0.31463728916E+01 -0.22466775830E+02 -0.36999563159E+02  0.43400729862E+02  0.00000000000E+00 0. -1.
         11    1    3    3    0    0 -0.70601229330E+01  0.39770554012E+01  0.12374686635E+02  0.14791726575E+02  0.51100000000E-03 0. -1.
        -11    1    3    3    0    0  0.73404438620E+01  0.16131293495E+02  0.18788798333E+02  0.25828660224E+02  0.51100000000E-03 0.  1.
        -12    1    3    3    0    0 -0.34266938206E+01  0.23584269340E+01  0.58360781914E+01  0.71668833393E+01  0.00000000000E+00 0.  1.
</event>
<event>
 7    1  0.2706925E-010  0.4778727E+02  0.7816164E-02  0.1312668E+00
        -11   -1    0    0    0    0  0.00000000000E+00  0.00000000000E+00  0.45593999997E+02  0.45594000000E+02  0.51100000000E-03 0. -1.
         11   -1    0    0    0    0 -0.00000000000E+00 -0.00000000000E+00 -0.45593999997E+02  0.45594000000E+02  0.51100000000E-03 0.  1.
    9900012    2    1    2    0    0  0.12931124578E+01 -0.14645145566E+02 -0.40834682418E+02  0.47787265943E+02  0.19999976741E+02 0.  0.
         12    1    1    2    0    0 -0.12931124578E+01  0.14645145566E+02  0.40834682418E+02  0.43400734057E+02  0.00000000000E+00 0. -1.
         11    1    3    3    0    0 -0.32003754839E+01  0.27652110020E+01 -0.79203093468E+01  0.89788693907E+01  0.51100000000E-03 0.  1.
        -11    1    3    3    0    0  0.16639649699E+01 -0.11871523302E+02 -0.29197830996E+02  0.31562876612E+02  0.51100000000E-03 0. -1.
         12    1    3    3    0    0  0.28295229718E+01 -0.55388332664E+01 -0.37165420755E+01  0.72455199399E+01  0.00000000000E+00 0. -1.
</event>
<event>
 7    1  0.2706925E-010  0.4778727E+02  0.7816164E-02  0.1312668E+00
        -11   -1    0    0    0    0  0.00000000000E+00  0.00000000000E+00  0.45593999997E+02  0.45594000000E+02  0.51100000000E-03 0. -1.
         11   -1    0    0    0    0 -0.00000000000E+00 -0.00000000000E+00 -0.45593999997E+02  0.45594000000E+02  0.51100000000E-03 0.  1.
    9900012    2    1    2    0    0  0.29628709703E+02 -0.29052658287E+02 -0.12716358590E+02  0.47787272264E+02  0.20000005563E+02 0.  0.
         12    1    1    2    0    0 -0.29628709703E+02  0.29052658287E+02  0.12716358590E+02  0.43400727736E+02  0.00000000000E+00 0. -1.
         11    1    3    3    0    0  0.75189709057E+01 -0.18549490901E+02 -0.81916443743E+01  0.21626871571E+02  0.51100000000E-03 0.  1.
        -11    1    3    3    0    0  0.99901149207E+01 -0.50835222557E+01  0.19696520034E+01  0.11380866572E+02  0.51100000000E-03 0. -1.
         12    1    3    3    0    0  0.12119623877E+02 -0.54196451302E+01 -0.64943662189E+01  0.14779534121E+02  0.00000000000E+00 0. -1.
</event>
<event>
 7    1  0.2706925E-010  0.4778728E+02  0.7816164E-02  0.1312668E+00
        -11   -1    0    0    0    0  0.00000000000E+00  0.00000000000E+00  0.45593999997E+02  0.45594000000E+02  0.51100000000E-03 0. -1.
         11   -1    0    0    0    0 -0.00000000000E+00 -0.00000000000E+00 -0.45593999997E+02  0.45594000000E+02  0.51100000000E-03 0.  1.
    9900012    2    1    2    0    0 -0.36636646126E+02  0.11123220989E+02 -0.20436547932E+02  0.47787281390E+02  0.20000047168E+02 0.  0.
         12    1    1    2    0    0  0.36636646126E+02 -0.11123220989E+02  0.20436547932E+02  0.43400718610E+02  0.00000000000E+00 0. -1.
         11    1    3    3    0    0 -0.64428117133E+01  0.71354705648E+01 -0.90160827683E+01  0.13180080110E+02  0.51100000000E-03 0. -1.
        -11    1    3    3    0    0 -0.26190374270E+02  0.23625452494E+01 -0.13775415268E+02  0.29686350239E+02  0.51100000000E-03 0.  1.
        -12    1    3    3    0    0 -0.40034601424E+01  0.16252051743E+01  0.23549501039E+01  0.49208510404E+01  0.00000000000E+00 0.  1.
</event>
<event>
 7    1  0.2706925E-010  0.4778727E+02  0.7816164E-02  0.1312668E+00
        -11   -1    0    0    0    0  0.00000000000E+00  0.00000000000E+00  0.45593999997E+02  0.45594000000E+02  0.51100000000E-03 0. -1.
         11   -1    0    0    0    0 -0.00000000000E+00 -0.00000000000E+00 -0.45593999997E+02  0.45594000000E+02  0.51100000000E-03 0.  1.
    9900012    2    1    2    0    0  0.24586893771E+02  0.33226642271E+02 -0.13232461394E+02  0.47787272627E+02  0.20000007215E+02 0.  0.
         12    1    1    2    0    0 -0.24586893771E+02 -0.33226642271E+02  0.13232461394E+02  0.43400727373E+02  0.00000000000E+00 0. -1.
         11    1    3    3    0    0 -0.63220877215E+00  0.43159203088E+01 -0.11518078898E+01  0.45114873069E+01  0.51100000000E-03 0. -1.
        -11    1    3    3    0    0  0.64751434145E+01  0.12535214795E+02 -0.11786778637E+02  0.18384429365E+02  0.51100000000E-03 0.  1.
        -12    1    3    3    0    0  0.18743959129E+02  0.16375507168E+02 -0.29387486749E+00  0.24891355955E+02  0.00000000000E+00 0.  1.
</event>
<event>
 7    1  0.2706925E-010  0.4778727E+02  0.7816164E-02  0.1312668E+00
        -11   -1    0    0    0    0  0.00000000000E+00  0.00000000000E+00  0.45593999997E+02  0.45594000000E+02  0.51100000000E-03 0.  1.
         11   -1    0    0    0    0 -0.00000000000E+00 -0.00000000000E+00 -0.45593999997E+02  0.45594000000E+02  0.51100000000E-03 0. -1.
    9900012    2    1    2    0    0 -0.98759503642E+01 -0.28347509462E+02  0.31344982691E+02  0.47787266963E+02  0.19999981389E+02 0.  0.
         12    1    1    2    0    0  0.98759503642E+01  0.28347509462E+02 -0.31344982691E+02  0.43400733037E+02  0.00000000000E+00 0. -1.
         11    1    3    3    0    0  0.46617115434E+01 -0.36194791836E+01  0.62878283831E+01  0.86237445527E+01  0.51100000000E-03 0. -1.
        -11    1    3    3    0    0 -0.51819390627E+01 -0.89899456926E+01  0.15101612114E+02  0.18322944760E+02  0.51100000000E-03 0.  1.
         12    1    3    3    0    0 -0.93557228449E+01 -0.15738084586E+02  0.99555421939E+01  0.20840577649E+02  0.00000000000E+00 0. -1.
</event>
<event>
 7    1  0.2706925E-010  0.4778726E+02  0.7816164E-02  0.1312668E+00
        -11   -1    0    0    0    0  0.00000000000E+00  0.00000000000E+00  0.45593999997E+02  0.45594000000E+02  0.51100000000E-03 0.  1.
         11   -1    0    0    0    0 -0.00000000000E+00 -0.00000000000E+00 -0.45593999997E+02  0.45594000000E+02  0.51100000000E-03 0. -1.
    9900012    2    1    2    0    0 -0.19946887978E+02  0.25449628849E+01  0.38461263533E+02  0.47787263041E+02  0.19999963508E+02 0.  0.
         12    1    1    2    0    0  0.19946887978E+02 -0.25449628849E+01 -0.38461263533E+02  0.43400736959E+02  0.00000000000E+00 0. -1.
         11    1    3    3    0    0  0.18977544194E+01  0.15743091358E+01  0.10267034371E+01  0.26709626168E+01  0.51100000000E-03 0. -1.
        -11    1    3    3    0    0 -0.22113026845E+02  0.36959704036E+01  0.33943225659E+02  0.40679094408E+02  0.51100000000E-03 0.  1.
        -12    1    3    3    0    0  0.26838444780E+00 -0.27253166544E+01  0.34913344363E+01  0.44372060156E+01  0.00000000000E+00 0.  1.
</event>
<event>
 7    1  0.2706925E-010  0.4778727E+02  0.7816164E-02  0.1312668E+00
        -11   -1    0    0    0    0  0.00000000000E+00  0.00000000000E+00  0.45593999997E+02  0.45594000000E+02  0.51100000000E-03 0.  1.
         11   -1    0    0    0    0 -0.00000000000E+00 -0.00000000000E+00 -0.45593999997E+02  0.45594000000E+02  0.51100000000E-03 0. -1.
    9900012    2    1    2    0    0 -0.28166005241E+02  0.20975769860E+02  0.25501306075E+02  0.47787269776E+02  0.19999994216E+02 0.  0.
         12    1    1    2    0    0  0.28166005241E+02 -0.20975769860E+02 -0.25501306075E+02  0.43400730224E+02  0.00000000000E+00 0. -1.
         11    1    3    3    0    0 -0.27133192543E+01  0.63761089045E+01 -0.36943828478E+00  0.69392615634E+01  0.51100000000E-03 0. -1.
        -11    1    3    3    0    0 -0.14568668554E+02  0.12797934403E+02  0.21575443443E+02  0.29009188001E+02  0.51100000000E-03 0.  1.
        -12    1    3    3    0    0 -0.10884017433E+02  0.18017265525E+01  0.42953009160E+01  0.11838820212E+02  0.00000000000E+00 0.  1.
</event>
<event>
 7    1  0.2706925E-010  0.4778727E+02  0.7816164E-02  0.1312668E+00
        -11   -1    0    0    0    0  0.00000000000E+00  0.00000000000E+00  0.45593999997E+02  0.45594000000E+02  0.51100000000E-03 0.  1.
         11   -1    0    0    0    0 -0.00000000000E+00 -0.00000000000E+00 -0.45593999997E+02  0.45594000000E+02  0.51100000000E-03 0. -1.
    9900012    2    1    2    0    0  0.33359626975E+02 -0.30680471637E+00  0.27760842162E+02  0.47787271912E+02  0.20000003957E+02 0.  0.
         12    1    1    2    0    0 -0.33359626975E+02  0.30680471637E+00 -0.27760842162E+02  0.43400728088E+02  0.00000000000E+00 0. -1.
         11    1    3    3    0    0  0.49935559959E+00  0.88388538482E-01  0.34789563350E+01  0.35157226840E+01  0.51100000000E-03 0. -1.
        -11    1    3    3    0    0  0.80251934656E+01  0.24248812056E+01  0.15783101482E+02  0.17871487674E+02  0.51100000000E-03 0.  1.
        -12    1    3    3    0    0  0.24835077909E+02 -0.28200744605E+01  0.84987843441E+01  0.26400061554E+02  0.00000000000E+00 0.  1.
</event>
<event>
 7    1  0.2706925E-010  0.4778727E+02  0.7816164E-02  0.1312668E+00
        -11   -1    0    0    0    0  0.00000000000E+00  0.00000000000E+00  0.45593999997E+02  0.45594000000E+02  0.51100000000E-03 0.  1.
         11   -1    0    0    0    0 -0.00000000000E+00 -0.00000000000E+00 -0.45593999997E+02  0.45594000000E+02  0.51100000000E-03 0. -1.
    9900012    2    1    2    0    0 -0.43126111219E+02  0.53113287672E+00 -0.48455676762E+01  0.47787273081E+02  0.20000009285E+02 0.  0.
         12    1    1    2    0    0  0.43126111219E+02 -0.53113287672E+00  0.48455676762E+01  0.43400726919E+02  0.00000000000E+00 0. -1.
         11    1    3    3    0    0 -0.60225326164E+01  0.54231473448E+01 -0.53187510911E+01  0.96938402952E+01  0.51100000000E-03 0. -1.
        -11    1    3    3    0    0 -0.25557433704E+02 -0.25184593520E+01  0.35125142815E+01  0.25920316585E+02  0.51100000000E-03 0.  1.
        -12    1    3    3    0    0 -0.11546144899E+02 -0.23735551160E+01 -0.30393308666E+01  0.12173116200E+02  0.00000000000E+00 0.  1.
</event>
<event>
 7    1  0.2706925E-010  0.4778727E+02  0.7816164E-02  0.1312668E+00
        -11   -1    0    0    0    0  0.00000000000E+00  0.00000000000E+00  0.45593999997E+02  0.45594000000E+02  0.51100000000E-03 0.  1.
         11   -1    0    0    0    0 -0.00000000000E+00 -0.00000000000E+00 -0.45593999997E+02  0.45594000000E+02  0.51100000000E-03 0. -1.
    9900012    2    1    2    0    0  0.25998986217E+02 -0.16724328675E+02  0.30462644721E+02  0.47787272156E+02  0.20000005069E+02 0.  0.
         12    1    1    2    0    0 -0.25998986217E+02  0.16724328675E+02 -0.30462644721E+02  0.43400727844E+02  0.00000000000E+00 0. -1.
         11    1    3    3    0    0  0.14095786273E+02 -0.11278877500E+02  0.12786320108E+02  0.22122256903E+02  0.51100000000E-03 0. -1.
        -11    1    3    3    0    0  0.22631220350E+01 -0.11805084992E+01  0.14402524621E+02  0.14626962684E+02  0.51100000000E-03 0.  1.
         12    1    3    3    0    0  0.96400779093E+01 -0.42649426750E+01  0.32737999929E+01  0.11038052569E+02  0.00000000000E+00 0. -1.
</event>
<event>
 7    1  0.2706925E-010  0.4778728E+02  0.7816164E-02  0.1312668E+00
        -11   -1    0    0    0    0  0.00000000000E+00  0.00000000000E+00  0.45593999997E+02  0.45594000000E+02  0.51100000000E-03 0. -1.
         11   -1    0    0    0    0 -0.00000000000E+00 -0.00000000000E+00 -0.45593999997E+02  0.45594000000E+02  0.51100000000E-03 0.  1.
    9900012    2    1    2    0    0 -0.37709339357E+02 -0.15312385430E+02 -0.15071788571E+02  0.47787283035E+02  0.20000054671E+02 0.  0.
         12    1    1    2    0    0  0.37709339357E+02  0.15312385430E+02  0.15071788571E+02  0.43400716965E+02  0.00000000000E+00 0. -1.
         11    1    3    3    0    0  0.70091473880E-01 -0.10411903320E+01  0.32165735279E+01  0.33816173118E+01  0.51100000000E-03 0. -1.
        -11    1    3    3    0    0 -0.23363771308E+02 -0.80849296405E+01 -0.12308414236E+02  0.27617548013E+02  0.51100000000E-03 0.  1.
         12    1    3    3    0    0 -0.14415659523E+02 -0.61862654572E+01 -0.59799478630E+01  0.16788117710E+02  0.00000000000E+00 0. -1.
</event>
<event>
 7    1  0.2706925E-010  0.4778727E+02  0.7816164E-02  0.1312668E+00
        -11   -1    0    0    0    0  0.00000000000E+00  0.00000000000E+00  0.45593999997E+02  0.45594000000E+02  0.51100000000E-03 0.  1.
         11   -1    0    0    0    0 -0.00000000000E+00 -0.00000000000E+00 -0.45593999997E+02  0.45594000000E+02  0.51100000000E-03 0. -1.
    9900012    2    1    2    0    0 -0.39847680831E+02 -0.20025069977E+01  0.17081446870E+02  0.47787268105E+02  0.19999986597E+02 0.  0.
         12    1    1    2    0    0  0.39847680831E+02  0.20025069977E+01 -0.17081446870E+02  0.43400731895E+02  0.00000000000E+00 0. -1.
         11    1    3    3    0    0 -0.21411372017E+02 -0.72464683244E+01  0.94816078575E+00  0.22624260518E+02  0.51100000000E-03 0. -1.
        -11    1    3    3    0    0 -0.12234580429E+02  0.40004179102E+01  0.12065696659E+02  0.17642826810E+02  0.51100000000E-03 0.  1.
         12    1    3    3    0    0 -0.62017283843E+01  0.12435434166E+01  0.40675894251E+01  0.75201807766E+01  0.00000000000E+00 0. -1.
</event>
<event>
 7    1  0.2706925E-010  0.4778728E+02  0.7816164E-02  0.1312668E+00
        -11   -1    0    0    0    0  0.00000000000E+00  0.00000000000E+00  0.45593999997E+02  0.45594000000E+02  0.51100000000E-03 0.  1.
         11   -1    0    0    0    0 -0.00000000000E+00 -0.00000000000E+00 -0.45593999997E+02  0.45594000000E+02  0.51100000000E-03 0. -1.
    9900012    2    1    2    0    0 -0.17608413767E+02  0.31327562422E+02  0.24334134728E+02  0.47787279780E+02  0.20000039827E+02 0.  0.
         12    1    1    2    0    0  0.17608413767E+02 -0.31327562422E+02 -0.24334134728E+02  0.43400720220E+02  0.00000000000E+00 0. -1.
         11    1    3    3    0    0 -0.53279524283E+01  0.19197590492E+02  0.10543309715E+02  0.22540983514E+02  0.51100000000E-03 0.  1.
        -11    1    3    3    0    0 -0.53360664849E+01 -0.98748264680E+00  0.72975561250E+00  0.54755155944E+01  0.51100000000E-03 0. -1.
        -12    1    3    3    0    0 -0.69443948537E+01  0.13117454577E+02  0.13061069401E+02  0.19770780671E+02  0.00000000000E+00 0.  1.
</event>
<event>
 7    1  0.2706925E-010  0.4778727E+02  0.7816164E-02  0.1312668E+00
        -11   -1    0    0    0    0  0.00000000000E+00  0.00000000000E+00  0.45593999997E+02  0.45594000000E+02  0.51100000000E-03 0.  1.
         11   -1    0    0    0    0 -0.00000000000E+00 -0.00000000000E+00 -0.45593999997E+02  0.45594000000E+02  0.51100000000E-03 0. -1.
    9900012    2    1    2    0    0  0.27193484867E+02 -0.18818524404E+02  0.28106947706E+02  0.47787274323E+02  0.20000014948E+02 0.  0.
         12    1    1    2    0    0 -0.27193484867E+02  0.18818524404E+02 -0.28106947706E+02  0.43400725677E+02  0.00000000000E+00 0. -1.
         11    1    3    3    0    0  0.60109691633E+01 -0.12213893209E+02  0.43920885291E+01  0.14303893858E+02  0.51100000000E-03 0. -1.
        -11    1    3    3    0    0  0.17355675304E+02 -0.84858117761E+01  0.18516995053E+02  0.26760186337E+02  0.51100000000E-03 0.  1.
         12    1    3    3    0    0  0.38268404002E+01  0.18811805811E+01  0.51978641235E+01  0.67231941273E+01  0.00000000000E+00 0. -1.
</event>
<event>
 7    1  0.2706925E-010  0.4778726E+02  0.7816164E-02  0.1312668E+00
        -11   -1    0    0    0    0  0.00000000000E+00  0.00000000000E+00  0.45593999997E+02  0.45594000000E+02  0.51100000000E-03 0. -1.
         11   -1    0    0    0    0 -0.00000000000E+00 -0.00000000000E+00 -0.45593999997E+02  0.45594000000E+02  0.51100000000E-03 0.  1.
    9900012    2    1    2    0    0 -0.17511115235E+02 -0.37948011028E+02 -0.11701843595E+02  0.47787264508E+02  0.19999970198E+02 0.  0.
         12    1    1    2    0    0  0.17511115235E+02  0.37948011028E+02  0.11701843595E+02  0.43400735492E+02  0.00000000000E+00 0. -1.
         11    1    3    3    0    0 -0.30709303600E+01 -0.13777435106E+01 -0.74178073458E+01  0.81457139980E+01  0.51100000000E-03 0. -1.
        -11    1    3    3    0    0 -0.85905929813E+01 -0.21231036840E+02 -0.11771978862E+01  0.22933403764E+02  0.51100000000E-03 0.  1.
         12    1    3    3    0    0 -0.58495918933E+01 -0.15339230677E+02 -0.31068383632E+01  0.16708146746E+02  0.00000000000E+00 0. -1.
</event>
<event>
 7    1  0.2706925E-010  0.4778727E+02  0.7816164E-02  0.1312668E+00
        -11   -1    0    0    0    0  0.00000000000E+00  0.00000000000E+00  0.45593999997E+02  0.45594000000E+02  0.51100000000E-03 0.  1.
         11   -1    0    0    0    0 -0.00000000000E+00 -0.00000000000E+00 -0.45593999997E+02  0.45594000000E+02  0.51100000000E-03 0. -1.
    9900012    2    1    2    0    0 -0.24016245420E+02 -0.30449522341E+02  0.19485120375E+02  0.47787269927E+02  0.19999994906E+02 0.  0.
         12    1    1    2    0    0  0.24016245420E+02  0.30449522341E+02 -0.19485120375E+02  0.43400730073E+02  0.00000000000E+00 0. -1.
         11    1    3    3    0    0 -0.16513781977E+02 -0.26639853047E+02  0.11076917962E+02  0.33242816928E+02  0.51100000000E-03 0. -1.
        -11    1    3    3    0    0 -0.56468054743E+01  0.87887455855E+00  0.13533684228E+01  0.58728561112E+01  0.51100000000E-03 0.  1.
         12    1    3    3    0    0 -0.18556579685E+01 -0.46885438523E+01  0.70548339904E+01  0.86715968877E+01  0.00000000000E+00 0. -1.
</event>
<event>
 7    1  0.2706925E-010  0.4778727E+02  0.7816164E-02  0.1312668E+00
        -11   -1    0    0    0    0  0.00000000000E+00  0.00000000000E+00  0.45593999997E+02  0.45594000000E+02  0.51100000000E-03 0.  1.
         11   -1    0    0    0    0 -0.00000000000E+00 -0.00000000000E+00 -0.45593999997E+02  0.45594000000E+02  0.51100000000E-03 0. -1.
    9900012    2    1    2    0    0  0.29717549194E+02  0.27536864450E+02  0.15563165486E+02  0.47787265515E+02  0.19999974791E+02 0.  0.
         12    1    1    2    0    0 -0.29717549194E+02 -0.27536864450E+02 -0.15563165486E+02  0.43400734485E+02  0.00000000000E+00 0. -1.
         11    1    3    3    0    0  0.73174895126E+01  0.23661348392E+01 -0.10398203418E+01  0.77605072932E+01  0.51100000000E-03 0. -1.
        -11    1    3    3    0    0  0.14930002925E+02  0.24706086628E+02  0.14166664097E+02  0.32155716066E+02  0.51100000000E-03 0.  1.
        -12    1    3    3    0    0  0.74700567572E+01  0.46464298296E+00  0.24363217302E+01  0.78710421566E+01  0.00000000000E+00 0.  1.
</event>
<event>
 7    1  0.2706925E-010  0.4778728E+02  0.7816164E-02  0.1312668E+00
        -11   -1    0    0    0    0  0.00000000000E+00  0.00000000000E+00  0.45593999997E+02  0.45594000000E+02  0.51100000000E-03 0.  1.
         11   -1    0    0    0    0 -0.00000000000E+00 -0.00000000000E+00 -0.45593999997E+02  0.45594000000E+02  0.51100000000E-03 0. -1.
    9900012    2    1    2    0    0  0.14817078217E+02 -0.82696650956E+01  0.39946085278E+02  0.47787275390E+02  0.20000019811E+02 0.  0.
         12    1    1    2    0    0 -0.14817078217E+02  0.82696650956E+01 -0.39946085278E+02  0.43400724610E+02  0.00000000000E+00 0. -1.
         11    1    3    3    0    0  0.75595533121E+00 -0.94126019544E+01  0.24716016935E+02  0.26458458711E+02  0.51100000000E-03 0. -1.
        -11    1    3    3    0    0  0.12473503376E+01  0.91138576228E+00  0.40032513527E+01  0.42909822333E+01  0.51100000000E-03 0.  1.
         12    1    3    3    0    0  0.12813772548E+02  0.23155109653E+00  0.11226816991E+02  0.17037834445E+02  0.00000000000E+00 0. -1.
</event>
<event>
 7    1  0.2706925E-010  0.4778730E+02  0.7816164E-02  0.1312668E+00
        -11   -1    0    0    0    0  0.00000000000E+00  0.00000000000E+00  0.45593999997E+02  0.45594000000E+02  0.51100000000E-03 0.  1.
         11   -1    0    0    0    0 -0.00000000000E+00 -0.00000000000E+00 -0.45593999997E+02  0.45594000000E+02  0.51100000000E-03 0. -1.
    9900012    2    1    2    0    0  0.96445158744E+01  0.69208011131E+01  0.41745732362E+02  0.47787304787E+02  0.20000153846E+02 0.  0.
         12    1    1    2    0    0 -0.96445158744E+01 -0.69208011131E+01 -0.41745732362E+02  0.43400695213E+02  0.00000000000E+00 0. -1.
         11    1    3    3    0    0 -0.13879794445E+01  0.23629277105E+01 -0.43704249092E+00  0.27750532794E+01  0.51100000000E-03 0. -1.
        -11    1    3    3    0    0  0.47437267972E+01  0.28623949165E+01  0.34491337616E+02  0.34933488509E+02  0.51100000000E-03 0.  1.
         12    1    3    3    0    0  0.62887685217E+01  0.16954784860E+01  0.76914372372E+01  0.10078762999E+02  0.00000000000E+00 0. -1.
</event>
<event>
 7    1  0.2706925E-010  0.4778727E+02  0.7816164E-02  0.1312668E+00
        -11   -1    0    0    0    0  0.00000000000E+00  0.00000000000E+00  0.45593999997E+02  0.45594000000E+02  0.51100000000E-03 0.  1.
         11   -1    0    0    0    0 -0.00000000000E+00 -0.00000000000E+00 -0.45593999997E+02  0.45594000000E+02  0.51100000000E-03 0. -1.
    9900012    2    1    2    0    0 -0.30708189365E+01 -0.29391902961E+02  0.31785361687E+02  0.47787272977E+02  0.20000008810E+02 0.  0.
         12    1    1    2    0    0  0.30708189365E+01  0.29391902961E+02 -0.31785361687E+02  0.43400727023E+02  0.00000000000E+00 0. -1.
         11    1    3    3    0    0  0.15441140985E+00 -0.70655722980E+00  0.90807041128E+01  0.91094595585E+01  0.51100000000E-03 0. -1.
        -11    1    3    3    0    0 -0.41197362424E+01 -0.19879472901E+02  0.86489841632E+01  0.22067410288E+02  0.51100000000E-03 0.  1.
        -12    1    3    3    0    0  0.89450589604E+00 -0.88058728303E+01  0.14055673411E+02  0.16610403130E+02  0.00000000000E+00 0.  1.
</event>
<event>
 7    1  0.2706925E-010  0.4778727E+02  0.7816164E-02  0.1312668E+00
        -11   -1    0    0    0    0  0.00000000000E+00  0.00000000000E+00  0.45593999997E+02  0.45594000000E+02  0.51100000000E-03 0.  1.
         11   -1    0    0    0    0 -0.00000000000E+00 -0.00000000000E+00 -0.45593999997E+02  0.45594000000E+02  0.51100000000E-03 0. -1.
    9900012    2    1    2    0    0 -0.48609289303E+01 -0.37578626676E+02  0.21162265362E+02  0.47787270880E+02  0.19999999248E+02 0.  0.
         12    1    1    2    0    0  0.48609289303E+01  0.37578626676E+02 -0.21162265362E+02  0.43400729120E+02  0.00000000000E+00 0. -1.
         11    1    3    3    0    0  0.17076645708E+01 -0.31456558247E+02  0.95610043628E+01  0.32921785792E+02  0.51100000000E-03 0. -1.
        -11    1    3    3    0    0 -0.40726448829E+01 -0.21885747887E+01  0.53888282006E+01  0.71004060155E+01  0.51100000000E-03 0.  1.
         12    1    3    3    0    0 -0.24959486182E+01 -0.39334936407E+01  0.62124327982E+01  0.77650790723E+01  0.00000000000E+00 0. -1.
</event>
<event>
 7    1  0.2706925E-010  0.4778726E+02  0.7816164E-02  0.1312668E+00
        -11   -1    0    0    0    0  0.00000000000E+00  0.00000000000E+00  0.45593999997E+02  0.45594000000E+02  0.51100000000E-03 0.  1.
         11   -1    0    0    0    0 -0.00000000000E+00 -0.00000000000E+00 -0.45593999997E+02  0.45594000000E+02  0.51100000000E-03 0. -1.
    9900012    2    1    2    0    0  0.29262341248E+02  0.92962050859E+01  0.30674416588E+02  0.47787264092E+02  0.19999968303E+02 0.  0.
         12    1    1    2    0    0 -0.29262341248E+02 -0.92962050859E+01 -0.30674416588E+02  0.43400735908E+02  0.00000000000E+00 0. -1.
         11    1    3    3    0    0  0.19902565124E+02  0.10787756830E+02  0.12542821504E+02  0.25880691016E+02  0.51100000000E-03 0. -1.
        -11    1    3    3    0    0  0.10120442776E+02 -0.30411166403E+01  0.15528209386E+02  0.18782892200E+02  0.51100000000E-03 0.  1.
         12    1    3    3    0    0 -0.76066665213E+00  0.15495648961E+01  0.26033856983E+01  0.31236808763E+01  0.00000000000E+00 0. -1.
</event>
<event>
 7    1  0.2706925E-010  0.4778727E+02  0.7816164E-02  0.1312668E+00
        -11   -1    0    0    0    0  0.00000000000E+00  0.00000000000E+00  0.45593999997E+02  0.45594000000E+02  0.51100000000E-03 0.  1.
         11   -1    0    0    0    0 -0.00000000000E+00 -0.00000000000E+00 -0.45593999997E+02  0.45594000000E+02  0.51100000000E-03 0. -1.
    9900012    2    1    2    0    0 -0.34457128013E+02  0.50293375934E+01  0.25904348592E+02  0.47787272086E+02  0.20000004748E+02 0.  0.
         12    1    1    2    0    0  0.34457128013E+02 -0.50293375934E+01 -0.25904348592E+02  0.43400727914E+02  0.00000000000E+00 0. -1.
         11    1    3    3    0    0  0.78845985752E+00  0.45758253511E+00  0.78355668778E+01  0.78884193145E+01  0.51100000000E-03 0. -1.
        -11    1    3    3    0    0 -0.27527390240E+02  0.38126954576E+01  0.13471999914E+02  0.30883468750E+02  0.51100000000E-03 0.  1.
         12    1    3    3    0    0 -0.77181976300E+01  0.75905960067E+00  0.45967818000E+01  0.90153840212E+01  0.00000000000E+00 0. -1.
</event>
<event>
 7    1  0.2706925E-010  0.4778727E+02  0.7816164E-02  0.1312668E+00
        -11   -1    0    0    0    0  0.00000000000E+00  0.00000000000E+00  0.45593999997E+02  0.45594000000E+02  0.51100000000E-03 0.  1.
         11   -1    0    0    0    0 -0.00000000000E+00 -0.00000000000E+00 -0.45593999997E+02  0.45594000000E+02  0.51100000000E-03 0. -1.
    9900012    2    1    2    0    0  0.45748694730E+01  0.10688234461E+02  0.41814535637E+02  0.47787272159E+02  0.20000005083E+02 0.  0.
         12    1    1    2    0    0 -0.45748694730E+01 -0.10688234461E+02 -0.41814535637E+02  0.43400727841E+02  0.00000000000E+00 0. -1.
         11    1    3    3    0    0  0.11619967761E+00 -0.31364886493E+01  0.59361666685E+01  0.67148446289E+01  0.51100000000E-03 0. -1.
        -11    1    3    3    0    0  0.42896597292E+01  0.81631019615E+01  0.33805857131E+02  0.35041024398E+02  0.51100000000E-03 0.  1.
        -12    1    3    3    0    0  0.16901006621E+00  0.56616211487E+01  0.20725118373E+01  0.60314031327E+01  0.00000000000E+00 0.  1.
</event>
<event>
 7    1  0.2706925E-010  0.4778727E+02  0.7816164E-02  0.1312668E+00
        -11   -1    0    0    0    0  0.00000000000E+00  0.00000000000E+00  0.45593999997E+02  0.45594000000E+02  0.51100000000E-03 0. -1.
         11   -1    0    0    0    0 -0.00000000000E+00 -0.00000000000E+00 -0.45593999997E+02  0.45594000000E+02  0.51100000000E-03 0.  1.
    9900012    2    1    2    0    0  0.17048163134E+02  0.39042347129E+02  0.82872500591E+01  0.47787271330E+02  0.20000001300E+02 0.  0.
         12    1    1    2    0    0 -0.17048163134E+02 -0.39042347129E+02 -0.82872500591E+01  0.43400728670E+02  0.00000000000E+00 0. -1.
         11    1    3    3    0    0  0.82008768764E+01  0.34214998799E+01  0.51904784906E+00  0.89011490214E+01  0.51100000000E-03 0. -1.
        -11    1    3    3    0    0  0.33932395868E+01  0.30277294578E+02  0.62178874366E+01  0.31094867202E+02  0.51100000000E-03 0.  1.
        -12    1    3    3    0    0  0.54540466712E+01  0.53435526703E+01  0.15503147735E+01  0.77912551061E+01  0.00000000000E+00 0.  1.
</event>
<event>
 7    1  0.2706925E-010  0.4778727E+02  0.7816164E-02  0.1312668E+00
        -11   -1    0    0    0    0  0.00000000000E+00  0.00000000000E+00  0.45593999997E+02  0.45594000000E+02  0.51100000000E-03 0.  1.
         11   -1    0    0    0    0 -0.00000000000E+00 -0.00000000000E+00 -0.45593999997E+02  0.45594000000E+02  0.51100000000E-03 0. -1.
    9900012    2    1    2    0    0  0.14892428963E+02  0.26346543179E+01  0.40680432383E+02  0.47787269330E+02  0.19999992183E+02 0.  0.
         12    1    1    2    0    0 -0.14892428963E+02 -0.26346543179E+01 -0.40680432383E+02  0.43400730670E+02  0.00000000000E+00 0. -1.
         11    1    3    3    0    0  0.20725262424E+01 -0.46015882519E+01  0.12963052510E+02  0.13910812705E+02  0.51100000000E-03 0. -1.
        -11    1    3    3    0    0  0.11104449194E+02  0.59781443748E+01  0.10171409487E+02  0.16201992880E+02  0.51100000000E-03 0.  1.
        -12    1    3    3    0    0  0.17154535264E+01  0.12580981950E+01  0.17545970386E+02  0.17674463745E+02  0.00000000000E+00 0.  1.
</event>
<event>
 7    1  0.2706925E-010  0.4778727E+02  0.7816164E-02  0.1312668E+00
        -11   -1    0    0    0    0  0.00000000000E+00  0.00000000000E+00  0.45593999997E+02  0.45594000000E+02  0.51100000000E-03 0.  1.
         11   -1    0    0    0    0 -0.00000000000E+00 -0.00000000000E+00 -0.45593999997E+02  0.45594000000E+02  0.51100000000E-03 0. -1.
    9900012    2    1    2    0    0 -0.11714427139E+02  0.22275889517E+02  0.35357886869E+02  0.47787271656E+02  0.20000002787E+02 0.  0.
         12    1    1    2    0    0  0.11714427139E+02 -0.22275889517E+02 -0.35357886869E+02  0.43400728344E+02  0.00000000000E+00 0. -1.
         11    1    3    3    0    0 -0.36160033047E+01  0.96388375224E+00  0.12102657513E+02  0.12668025534E+02  0.51100000000E-03 0. -1.
        -11    1    3    3    0    0 -0.56696997789E+01  0.89068672196E+01  0.19080672824E+02  0.21807105606E+02  0.51100000000E-03 0.  1.
        -12    1    3    3    0    0 -0.24287240551E+01  0.12405138545E+02  0.41745565325E+01  0.13312140516E+02  0.00000000000E+00 0.  1.
</event>
<event>
 7    1  0.2706925E-010  0.4778727E+02  0.7816164E-02  0.1312668E+00
        -11   -1    0    0    0    0  0.00000000000E+00  0.00000000000E+00  0.45593999997E+02  0.45594000000E+02  0.51100000000E-03 0.  1.
         11   -1    0    0    0    0 -0.00000000000E+00 -0.00000000000E+00 -0.45593999997E+02  0.45594000000E+02  0.51100000000E-03 0. -1.
    9900012    2    1    2    0    0  0.19381733556E+02  0.18355155606E+02  0.34220753453E+02  0.47787270745E+02  0.19999998635E+02 0.  0.
         12    1    1    2    0    0 -0.19381733556E+02 -0.18355155606E+02 -0.34220753453E+02  0.43400729255E+02  0.00000000000E+00 0. -1.
         11    1    3    3    0    0  0.39356499658E+01  0.41555452211E+01 -0.15821812477E+01  0.59381137156E+01  0.51100000000E-03 0. -1.
        -11    1    3    3    0    0  0.13979945325E+02  0.14529121971E+02  0.33480258979E+02  0.39082758323E+02  0.51100000000E-03 0.  1.
        -12    1    3    3    0    0  0.14661382642E+01 -0.32951158565E+00  0.23226757216E+01  0.27663987063E+01  0.00000000000E+00 0.  1.
</event>
<event>
 7    1  0.2706925E-010  0.4778727E+02  0.7816164E-02  0.1312668E+00
        -11   -1    0    0    0    0  0.00000000000E+00  0.00000000000E+00  0.45593999997E+02  0.45594000000E+02  0.51100000000E-03 0. -1.
         11   -1    0    0    0    0 -0.00000000000E+00 -0.00000000000E+00 -0.45593999997E+02  0.45594000000E+02  0.51100000000E-03 0.  1.
    9900012    2    1    2    0    0 -0.29981909192E+02 -0.20838723135E+02 -0.23461802897E+02  0.47787268947E+02  0.19999990439E+02 0.  0.
         12    1    1    2    0    0  0.29981909192E+02  0.20838723135E+02  0.23461802897E+02  0.43400731053E+02  0.00000000000E+00 0. -1.
         11    1    3    3    0    0 -0.12662985277E+02 -0.12788973075E+01 -0.72930864280E+01  0.14668874679E+02  0.51100000000E-03 0. -1.
        -11    1    3    3    0    0 -0.70441003768E+01 -0.16835950977E+02 -0.95716697318E+01  0.20607897931E+02  0.51100000000E-03 0.  1.
        -12    1    3    3    0    0 -0.10274823539E+02 -0.27238748508E+01 -0.65970467374E+01  0.12510496337E+02  0.00000000000E+00 0.  1.
</event>
<event>
 7    1  0.2706925E-010  0.4778729E+02  0.7816164E-02  0.1312668E+00
        -11   -1    0    0    0    0  0.00000000000E+00  0.00000000000E+00  0.45593999997E+02  0.45594000000E+02  0.51100000000E-03 0. -1.
         11   -1    0    0    0    0 -0.00000000000E+00 -0.00000000000E+00 -0.45593999997E+02  0.45594000000E+02  0.51100000000E-03 0.  1.
    9900012    2    1    2    0    0 -0.39694956790E+02  0.16424021081E+02 -0.61792736365E+01  0.47787291645E+02  0.20000093926E+02 0.  0.
         12    1    1    2    0    0  0.39694956790E+02 -0.16424021081E+02  0.61792736365E+01  0.43400708355E+02  0.00000000000E+00 0. -1.
         11    1    3    3    0    0 -0.26588254694E+02  0.16309880024E+02 -0.59178928226E+01  0.31748526419E+02  0.51100000000E-03 0.  1.
        -11    1    3    3    0    0 -0.88952566971E+01 -0.76191824558E+00 -0.45016922359E+01  0.99985671157E+01  0.51100000000E-03 0. -1.
         12    1    3    3    0    0 -0.42114453995E+01  0.87605930230E+00  0.42403114220E+01  0.60401981102E+01  0.00000000000E+00 0. -1.
</event>
<event>
 7    1  0.2706925E-010  0.4778726E+02  0.7816164E-02  0.1312668E+00
        -11   -1    0    0    0    0  0.00000000000E+00  0.00000000000E+00  0.45593999997E+02  0.45594000000E+02  0.51100000000E-03 0.  1.
         11   -1    0    0    0    0 -0.00000000000E+00 -0.00000000000E+00 -0.45593999997E+02  0.45594000000E+02  0.51100000000E-03 0. -1.
    9900012    2    1    2    0    0  0.42534135467E+02  0.25281700534E+01  0.82510793184E+01  0.47787255379E+02  0.19999928575E+02 0.  0.
         12    1    1    2    0    0 -0.42534135467E+02 -0.25281700534E+01 -0.82510793184E+01  0.43400744621E+02  0.00000000000E+00 0. -1.
         11    1    3    3    0    0  0.27390344917E+02 -0.23712832803E+01  0.34599965014E+01  0.27709665373E+02  0.51100000000E-03 0. -1.
        -11    1    3    3    0    0  0.13452986637E+02  0.69814308116E+01  0.69119723271E+01  0.16658288848E+02  0.51100000000E-03 0.  1.
        -12    1    3    3    0    0  0.16908039130E+01 -0.20819774779E+01 -0.21208895101E+01  0.34193011574E+01  0.00000000000E+00 0.  1.
</event>
<event>
 7    1  0.2706925E-010  0.4778727E+02  0.7816164E-02  0.1312668E+00
        -11   -1    0    0    0    0  0.00000000000E+00  0.00000000000E+00  0.45593999997E+02  0.45594000000E+02  0.51100000000E-03 0. -1.
         11   -1    0    0    0    0 -0.00000000000E+00 -0.00000000000E+00 -0.45593999997E+02  0.45594000000E+02  0.51100000000E-03 0.  1.
    9900012    2    1    2    0    0  0.25143650281E+02 -0.35375051412E+02 -0.16242305406E+00  0.47787265063E+02  0.19999972727E+02 0.  0.
         12    1    1    2    0    0 -0.25143650281E+02  0.35375051412E+02  0.16242305406E+00  0.43400734937E+02  0.00000000000E+00 0. -1.
         11    1    3    3    0    0  0.32159469757E+01 -0.26928682473E+01  0.61324029419E+01  0.74296850842E+01  0.51100000000E-03 0. -1.
        -11    1    3    3    0    0  0.17210915480E+02 -0.28219116965E+02 -0.71202418416E+01  0.33811714214E+02  0.51100000000E-03 0.  1.
         12    1    3    3    0    0  0.47167878252E+01 -0.44630662001E+01  0.82541584558E+00  0.65458657649E+01  0.00000000000E+00 0. -1.
</event>
<event>
 7    1  0.2706925E-010  0.4778727E+02  0.7816164E-02  0.1312668E+00
        -11   -1    0    0    0    0  0.00000000000E+00  0.00000000000E+00  0.45593999997E+02  0.45594000000E+02  0.51100000000E-03 0.  1.
         11   -1    0    0    0    0 -0.00000000000E+00 -0.00000000000E+00 -0.45593999997E+02  0.45594000000E+02  0.51100000000E-03 0. -1.
    9900012    2    1    2    0    0  0.32484204758E+02 -0.25382139671E+02  0.13570062314E+02  0.47787272307E+02  0.20000005758E+02 0.  0.
         12    1    1    2    0    0 -0.32484204758E+02  0.25382139671E+02 -0.13570062314E+02  0.43400727693E+02  0.00000000000E+00 0. -1.
         11    1    3    3    0    0  0.88839136651E+01 -0.46140416159E+01  0.35102248438E+01  0.10608250598E+02  0.51100000000E-03 0. -1.
        -11    1    3    3    0    0  0.18482644580E+02 -0.82626805894E+01 -0.14559478128E+00  0.20246017863E+02  0.51100000000E-03 0.  1.
        -12    1    3    3    0    0  0.51176465132E+01 -0.12505417466E+02  0.10205432251E+02  0.16933003846E+02  0.00000000000E+00 0.  1.
</event>
<event>
 7    1  0.2706925E-010  0.4778727E+02  0.7816164E-02  0.1312668E+00
        -11   -1    0    0    0    0  0.00000000000E+00  0.00000000000E+00  0.45593999997E+02  0.45594000000E+02  0.51100000000E-03 0. -1.
         11   -1    0    0    0    0 -0.00000000000E+00 -0.00000000000E+00 -0.45593999997E+02  0.45594000000E+02  0.51100000000E-03 0.  1.
    9900012    2    1    2    0    0 -0.40664277170E+02 -0.54413826311E+01  0.14157364967E+02  0.47787273445E+02  0.20000010945E+02 0.  0.
         12    1    1    2    0    0  0.40664277170E+02  0.54413826311E+01 -0.14157364967E+02  0.43400726555E+02  0.00000000000E+00 0. -1.
         11    1    3    3    0    0 -0.36754612457E+01 -0.29932899600E+01  0.54009082350E+01  0.71860009865E+01  0.51100000000E-03 0. -1.
        -11    1    3    3    0    0 -0.25073251134E+02 -0.26484785677E+01 -0.95099184363E+00  0.25230670759E+02  0.51100000000E-03 0.  1.
        -12    1    3    3    0    0 -0.11915564790E+02  0.20038589653E+00  0.97074485758E+01  0.15370601700E+02  0.00000000000E+00 0.  1.
</event>
<event>
 7    1  0.2706925E-010  0.4778727E+02  0.7816164E-02  0.1312668E+00
        -11   -1    0    0    0    0  0.00000000000E+00  0.00000000000E+00  0.45593999997E+02  0.45594000000E+02  0.51100000000E-03 0.  1.
         11   -1    0    0    0    0 -0.00000000000E+00 -0.00000000000E+00 -0.45593999997E+02  0.45594000000E+02  0.51100000000E-03 0. -1.
    9900012    2    1    2    0    0  0.36739425685E+02  0.18196509676E+02  0.14238158663E+02  0.47787268138E+02  0.19999986748E+02 0.  0.
         12    1    1    2    0    0 -0.36739425685E+02 -0.18196509676E+02 -0.14238158663E+02  0.43400731862E+02  0.00000000000E+00 0. -1.
         11    1    3    3    0    0  0.13016563286E+02  0.21631574390E+01 -0.21707539814E+00  0.13196866745E+02  0.51100000000E-03 0. -1.
        -11    1    3    3    0    0  0.23525138329E+02  0.17629776064E+02  0.14847528798E+02  0.32934636010E+02  0.51100000000E-03 0.  1.
        -12    1    3    3    0    0  0.19772407036E+00 -0.15964238271E+01 -0.39229473653E+00  0.16557653832E+01  0.00000000000E+00 0.  1.
</event>
<event>
 7    1  0.2706925E-010  0.4778727E+02  0.7816164E-02  0.1312668E+00
        -11   -1    0    0    0    0  0.00000000000E+00  0.00000000000E+00  0.45593999997E+02  0.45594000000E+02  0.51100000000E-03 0. -1.
         11   -1    0    0    0    0 -0.00000000000E+00 -0.00000000000E+00 -0.45593999997E+02  0.45594000000E+02  0.51100000000E-03 0.  1.
    9900012    2    1    2    0    0  0.17270679744E+02 -0.36754313285E+02 -0.15312336957E+02  0.47787267437E+02  0.19999983554E+02 0.  0.
         12    1    1    2    0    0 -0.17270679744E+02  0.36754313285E+02  0.15312336957E+02  0.43400732563E+02  0.00000000000E+00 0. -1.
         11    1    3    3    0    0  0.32850411311E+01 -0.14561310387E+01 -0.26361713926E+01  0.44565920508E+01  0.51100000000E-03 0. -1.
        -11    1    3    3    0    0 -0.57408032078E-01 -0.44851512335E+01  0.36079114010E+01  0.57564661215E+01  0.51100000000E-03 0.  1.
        -12    1    3    3    0    0  0.14043046645E+02 -0.30813031013E+02 -0.16284076965E+02  0.37574209265E+02  0.00000000000E+00 0.  1.
</event>
<event>
 7    1  0.2706925E-010  0.4778727E+02  0.7816164E-02  0.1312668E+00
        -11   -1    0    0    0    0  0.00000000000E+00  0.00000000000E+00  0.45593999997E+02  0.45594000000E+02  0.51100000000E-03 0.  1.
         11   -1    0    0    0    0 -0.00000000000E+00 -0.00000000000E+00 -0.45593999997E+02  0.45594000000E+02  0.51100000000E-03 0. -1.
    9900012    2    1    2    0    0  0.39244684715E+02  0.73993305648E+01  0.16991991957E+02  0.47787272335E+02  0.20000005884E+02 0.  0.
         12    1    1    2    0    0 -0.39244684715E+02 -0.73993305648E+01 -0.16991991957E+02  0.43400727665E+02  0.00000000000E+00 0. -1.
         11    1    3    3    0    0  0.99558457145E+01  0.32529326175E+01 -0.15761928893E+01  0.10591733512E+02  0.51100000000E-03 0. -1.
        -11    1    3    3    0    0  0.22543958735E+02  0.71409515448E+01  0.18138727242E+02  0.29803299996E+02  0.51100000000E-03 0.  1.
        -12    1    3    3    0    0  0.67448802652E+01 -0.29945535976E+01  0.42945760385E+00  0.73922388269E+01  0.00000000000E+00 0.  1.
</event>
<event>
 7    1  0.2706925E-010  0.4778727E+02  0.7816164E-02  0.1312668E+00
        -11   -1    0    0    0    0  0.00000000000E+00  0.00000000000E+00  0.45593999997E+02  0.45594000000E+02  0.51100000000E-03 0.  1.
         11   -1    0    0    0    0 -0.00000000000E+00 -0.00000000000E+00 -0.45593999997E+02  0.45594000000E+02  0.51100000000E-03 0. -1.
    9900012    2    1    2    0    0 -0.38296190917E+02 -0.58436582637E+01  0.19567229696E+02  0.47787273524E+02  0.20000011306E+02 0.  0.
         12    1    1    2    0    0  0.38296190917E+02  0.58436582637E+01 -0.19567229696E+02  0.43400726476E+02  0.00000000000E+00 0. -1.
         11    1    3    3    0    0 -0.50418021333E+01 -0.69321148685E+01  0.29392855680E+01  0.90616436265E+01  0.51100000000E-03 0. -1.
        -11    1    3    3    0    0 -0.29533392925E+02 -0.49938722664E+00  0.10431639120E+02  0.31325545171E+02  0.51100000000E-03 0.  1.
        -12    1    3    3    0    0 -0.37209958588E+01  0.15878438314E+01  0.61963050077E+01  0.74000847267E+01  0.00000000000E+00 0.  1.
</event>
<event>
 7    1  0.2706925E-010  0.4778726E+02  0.7816164E-02  0.1312668E+00
        -11   -1    0    0    0    0  0.00000000000E+00  0.00000000000E+00  0.45593999997E+02  0.45594000000E+02  0.51100000000E-03 0.  1.
         11   -1    0    0    0    0 -0.00000000000E+00 -0.00000000000E+00 -0.45593999997E+02  0.45594000000E+02  0.51100000000E-03 0. -1.
    9900012    2    1    2    0    0 -0.19704822221E+00  0.28062559181E+02  0.33107069114E+02  0.47787261744E+02  0.19999957596E+02 0.  0.
         12    1    1    2    0    0  0.19704822221E+00 -0.28062559181E+02 -0.33107069114E+02  0.43400738256E+02  0.00000000000E+00 0. -1.
         11    1    3    3    0    0 -0.54153688314E+01  0.22616741733E+02  0.28018081093E+02  0.36412306911E+02  0.51100000000E-03 0. -1.
        -11    1    3    3    0    0  0.37850325866E+01 -0.84768537781E-01  0.40929812419E+01  0.55754957712E+01  0.51100000000E-03 0.  1.
        -12    1    3    3    0    0  0.14332880226E+01  0.55305859864E+01  0.99600677985E+00  0.57994590622E+01  0.00000000000E+00 0.  1.
</event>
<event>
 7    1  0.2706925E-010  0.4778727E+02  0.7816164E-02  0.1312668E+00
        -11   -1    0    0    0    0  0.00000000000E+00  0.00000000000E+00  0.45593999997E+02  0.45594000000E+02  0.51100000000E-03 0.  1.
         11   -1    0    0    0    0 -0.00000000000E+00 -0.00000000000E+00 -0.45593999997E+02  0.45594000000E+02  0.51100000000E-03 0. -1.
    9900012    2    1    2    0    0  0.19403091885E+02 -0.13576306792E+02  0.36370690456E+02  0.47787271837E+02  0.20000003614E+02 0.  0.
         12    1    1    2    0    0 -0.19403091885E+02  0.13576306792E+02 -0.36370690456E+02  0.43400728163E+02  0.00000000000E+00 0. -1.
         11    1    3    3    0    0 -0.62621867327E+00 -0.39492348170E+01  0.67264720957E+00  0.40547576988E+01  0.51100000000E-03 0. -1.
        -11    1    3    3    0    0  0.21056805624E+02 -0.10613788220E+02  0.31848754109E+02  0.39628079716E+02  0.51100000000E-03 0.  1.
         12    1    3    3    0    0 -0.10274950656E+01  0.98671624479E+00  0.38492891378E+01  0.41044344219E+01  0.00000000000E+00 0. -1.
</event>
<event>
 7    1  0.2706925E-010  0.4778727E+02  0.7816164E-02  0.1312668E+00
        -11   -1    0    0    0    0  0.00000000000E+00  0.00000000000E+00  0.45593999997E+02  0.45594000000E+02  0.51100000000E-03 0. -1.
         11   -1    0    0    0    0 -0.00000000000E+00 -0.00000000000E+00 -0.45593999997E+02  0.45594000000E+02  0.51100000000E-03 0.  1.
    9900012    2    1    2    0    0 -0.43273232288E+02 -0.15147115459E+00 -0.33208707245E+01  0.47787265461E+02  0.19999974545E+02 0.  0.
         12    1    1    2    0    0  0.43273232288E+02  0.15147115459E+00  0.33208707245E+01  0.43400734539E+02  0.00000000000E+00 0. -1.
         11    1    3    3    0    0 -0.91236296305E+01 -0.29403277081E+01 -0.76890054015E+01  0.12288488475E+02  0.51100000000E-03 0. -1.
        -11    1    3    3    0    0 -0.90998567204E+01  0.35123823878E+00 -0.24367072001E+01  0.94269986142E+01  0.51100000000E-03 0.  1.
         12    1    3    3    0    0 -0.25049745937E+02  0.24376183147E+01  0.68048418770E+01  0.26071778373E+02  0.00000000000E+00 0. -1.
</event>
<event>
 7    1  0.2706925E-010  0.4778727E+02  0.7816164E-02  0.1312668E+00
        -11   -1    0    0    0    0  0.00000000000E+00  0.00000000000E+00  0.45593999997E+02  0.45594000000E+02  0.51100000000E-03 0. -1.
         11   -1    0    0    0    0 -0.00000000000E+00 -0.00000000000E+00 -0.45593999997E+02  0.45594000000E+02  0.51100000000E-03 0.  1.
    9900012    2    1    2    0    0  0.34918445848E+02  0.55427214332E+00  0.25768548560E+02  0.47787272208E+02  0.20000005304E+02 0.  0.
         12    1    1    2    0    0 -0.34918445848E+02 -0.55427214332E+00 -0.25768548560E+02  0.43400727792E+02  0.00000000000E+00 0. -1.
         11    1    3    3    0    0  0.13814643691E+02 -0.10361346190E+01  0.19777412516E+02  0.24146718232E+02  0.51100000000E-03 0. -1.
        -11    1    3    3    0    0  0.57132463448E+01 -0.31495832557E+01  0.33079589357E+01  0.73146189964E+01  0.51100000000E-03 0.  1.
         12    1    3    3    0    0  0.15390555812E+02  0.47399900181E+01  0.26831771076E+01  0.16325934980E+02  0.00000000000E+00 0. -1.
</event>
<event>
 7    1  0.2706925E-010  0.4778727E+02  0.7816164E-02  0.1312668E+00
        -11   -1    0    0    0    0  0.00000000000E+00  0.00000000000E+00  0.45593999997E+02  0.45594000000E+02  0.51100000000E-03 0. -1.
         11   -1    0    0    0    0 -0.00000000000E+00 -0.00000000000E+00 -0.45593999997E+02  0.45594000000E+02  0.51100000000E-03 0.  1.
    9900012    2    1    2    0    0  0.20767983063E+02 -0.11538866701E+01 -0.38091768222E+02  0.47787269808E+02  0.19999994362E+02 0.  0.
         12    1    1    2    0    0 -0.20767983063E+02  0.11538866701E+01  0.38091768222E+02  0.43400730192E+02  0.00000000000E+00 0. -1.
         11    1    3    3    0    0 -0.11034229903E+01 -0.36101946089E+00 -0.16488522961E+02  0.16529345632E+02  0.51100000000E-03 0. -1.
        -11    1    3    3    0    0  0.92243164063E+01 -0.30117156679E+01 -0.10306158764E+02  0.14155400141E+02  0.51100000000E-03 0.  1.
         12    1    3    3    0    0  0.12647089647E+02  0.22188484588E+01 -0.11297086498E+02  0.17102524035E+02  0.00000000000E+00 0. -1.
</event>
<event>
 7    1  0.2706925E-010  0.4778726E+02  0.7816164E-02  0.1312668E+00
        -11   -1    0    0    0    0  0.00000000000E+00  0.00000000000E+00  0.45593999997E+02  0.45594000000E+02  0.51100000000E-03 0.  1.
         11   -1    0    0    0    0 -0.00000000000E+00 -0.00000000000E+00 -0.45593999997E+02  0.45594000000E+02  0.51100000000E-03 0. -1.
    9900012    2    1    2    0    0  0.23862067482E+02 -0.41985706561E+01  0.36008303947E+02  0.47787260223E+02  0.19999950660E+02 0.  0.
         12    1    1    2    0    0 -0.23862067482E+02  0.41985706561E+01 -0.36008303947E+02  0.43400739777E+02  0.00000000000E+00 0. -1.
         11    1    3    3    0    0 -0.14191256546E+01  0.27469003248E+01  0.95262460471E+00  0.32352546912E+01  0.51100000000E-03 0. -1.
        -11    1    3    3    0    0  0.16998857336E+02 -0.72588522960E+01  0.28569526231E+02  0.34027487664E+02  0.51100000000E-03 0.  1.
        -12    1    3    3    0    0  0.82823358010E+01  0.31338131509E+00  0.64861531112E+01  0.10524517868E+02  0.00000000000E+00 0.  1.
</event>
<event>
 7    1  0.2706925E-010  0.4778727E+02  0.7816164E-02  0.1312668E+00
        -11   -1    0    0    0    0  0.00000000000E+00  0.00000000000E+00  0.45593999997E+02  0.45594000000E+02  0.51100000000E-03 0.  1.
         11   -1    0    0    0    0 -0.00000000000E+00 -0.00000000000E+00 -0.45593999997E+02  0.45594000000E+02  0.51100000000E-03 0. -1.
    9900012    2    1    2    0    0 -0.64992969127E+01  0.22416674222E+02  0.36590642090E+02  0.47787271526E+02  0.20000002194E+02 0.  0.
         12    1    1    2    0    0  0.64992969127E+01 -0.22416674222E+02 -0.36590642090E+02  0.43400728474E+02  0.00000000000E+00 0. -1.
         11    1    3    3    0    0  0.47116577196E+01  0.25453747040E+01  0.61046461669E+01  0.81206745984E+01  0.51100000000E-03 0. -1.
        -11    1    3    3    0    0 -0.94297209223E+01  0.86180420970E+01  0.99908126702E+01  0.16217478976E+02  0.51100000000E-03 0.  1.
         12    1    3    3    0    0 -0.17812337099E+01  0.11253257421E+02  0.20495183253E+02  0.23449117951E+02  0.00000000000E+00 0. -1.
</event>
<event>
 7    1  0.2706925E-010  0.4778727E+02  0.7816164E-02  0.1312668E+00
        -11   -1    0    0    0    0  0.00000000000E+00  0.00000000000E+00  0.45593999997E+02  0.45594000000E+02  0.51100000000E-03 0.  1.
         11   -1    0    0    0    0 -0.00000000000E+00 -0.00000000000E+00 -0.45593999997E+02  0.45594000000E+02  0.51100000000E-03 0. -1.
    9900012    2    1    2    0    0 -0.12546107633E+02  0.38313826381E+02  0.16070758185E+02  0.47787269853E+02  0.19999994566E+02 0.  0.
         12    1    1    2    0    0  0.12546107633E+02 -0.38313826381E+02 -0.16070758185E+02  0.43400730147E+02  0.00000000000E+00 0. -1.
         11    1    3    3    0    0 -0.56811651444E+01  0.88870068724E+00  0.33539146285E+01  0.66568889059E+01  0.51100000000E-03 0. -1.
        -11    1    3    3    0    0 -0.29987283554E+01  0.22583835609E+02  0.12065841467E+02  0.25779963792E+02  0.51100000000E-03 0.  1.
         12    1    3    3    0    0 -0.38662141336E+01  0.14841290084E+02  0.65100208959E+00  0.15350417155E+02  0.00000000000E+00 0. -1.
</event>
<event>
 7    1  0.2706925E-010  0.4778724E+02  0.7816164E-02  0.1312668E+00
        -11   -1    0    0    0    0  0.00000000000E+00  0.00000000000E+00  0.45593999997E+02  0.45594000000E+02  0.51100000000E-03 0.  1.
         11   -1    0    0    0    0 -0.00000000000E+00 -0.00000000000E+00 -0.45593999997E+02  0.45594000000E+02  0.51100000000E-03 0. -1.
    9900012    2    1    2    0    0 -0.28289785671E+02 -0.18945932078E+02  0.26914046757E+02  0.47787237006E+02  0.19999844806E+02 0.  0.
         12    1    1    2    0    0  0.28289785671E+02  0.18945932078E+02 -0.26914046757E+02  0.43400762994E+02  0.00000000000E+00 0. -1.
         11    1    3    3    0    0 -0.42090613476E+01  0.24737111038E+01 -0.64033193818E-01  0.48825756076E+01  0.51100000000E-03 0. -1.
        -11    1    3    3    0    0 -0.11046142153E+02 -0.14417132640E+02  0.11527260944E+02  0.21511594901E+02  0.51100000000E-03 0.  1.
         12    1    3    3    0    0 -0.13034582170E+02 -0.70025105425E+01  0.15450819006E+02  0.21393066498E+02  0.00000000000E+00 0. -1.
</event>
<event>
 7    1  0.2706925E-010  0.4778727E+02  0.7816164E-02  0.1312668E+00
        -11   -1    0    0    0    0  0.00000000000E+00  0.00000000000E+00  0.45593999997E+02  0.45594000000E+02  0.51100000000E-03 0.  1.
         11   -1    0    0    0    0 -0.00000000000E+00 -0.00000000000E+00 -0.45593999997E+02  0.45594000000E+02  0.51100000000E-03 0. -1.
    9900012    2    1    2    0    0 -0.13595008012E+02 -0.30970593021E+01  0.41099968081E+02  0.47787269644E+02  0.19999993616E+02 0.  0.
         12    1    1    2    0    0  0.13595008012E+02  0.30970593021E+01 -0.41099968081E+02  0.43400730356E+02  0.00000000000E+00 0. -1.
         11    1    3    3    0    0  0.37184355832E-01 -0.57148211391E+00 -0.18463389154E+01  0.19331172067E+01  0.51100000000E-03 0. -1.
        -11    1    3    3    0    0 -0.87236690475E+01  0.83362819111E+00  0.33998784383E+02  0.35110036705E+02  0.51100000000E-03 0.  1.
         12    1    3    3    0    0 -0.49085233202E+01 -0.33592053793E+01  0.89475226133E+01  0.10744115733E+02  0.00000000000E+00 0. -1.
</event>
<event>
 7    1  0.2706925E-010  0.4778727E+02  0.7816164E-02  0.1312668E+00
        -11   -1    0    0    0    0  0.00000000000E+00  0.00000000000E+00  0.45593999997E+02  0.45594000000E+02  0.51100000000E-03 0.  1.
         11   -1    0    0    0    0 -0.00000000000E+00 -0.00000000000E+00 -0.45593999997E+02  0.45594000000E+02  0.51100000000E-03 0. -1.
    9900012    2    1    2    0    0  0.25958302101E+02  0.31895722382E+02  0.13872729641E+02  0.47787272104E+02  0.20000004829E+02 0.  0.
         12    1    1    2    0    0 -0.25958302101E+02 -0.31895722382E+02 -0.13872729641E+02  0.43400727896E+02  0.00000000000E+00 0. -1.
         11    1    3    3    0    0  0.35942420026E+01  0.73952360591E+01  0.63342710860E+01  0.10379358477E+02  0.51100000000E-03 0. -1.
        -11    1    3    3    0    0  0.87926669237E+01  0.17977338509E+01  0.62312574123E+01  0.10925722302E+02  0.51100000000E-03 0.  1.
        -12    1    3    3    0    0  0.13571393175E+02  0.22702752472E+02  0.13072011431E+01  0.26482191324E+02  0.00000000000E+00 0.  1.
</event>
<event>
 7    1  0.2706925E-010  0.4778726E+02  0.7816164E-02  0.1312668E+00
        -11   -1    0    0    0    0  0.00000000000E+00  0.00000000000E+00  0.45593999997E+02  0.45594000000E+02  0.51100000000E-03 0. -1.
         11   -1    0    0    0    0 -0.00000000000E+00 -0.00000000000E+00 -0.45593999997E+02  0.45594000000E+02  0.51100000000E-03 0.  1.
    9900012    2    1    2    0    0  0.37076028395E+02  0.10510671064E+02 -0.19962927600E+02  0.47787256157E+02  0.19999932122E+02 0.  0.
         12    1    1    2    0    0 -0.37076028395E+02 -0.10510671064E+02  0.19962927600E+02  0.43400743843E+02  0.00000000000E+00 0. -1.
         11    1    3    3    0    0  0.19388787072E+02 -0.18943401487E+01 -0.88572436507E+01  0.21400101731E+02  0.51100000000E-03 0. -1.
        -11    1    3    3    0    0  0.91764418289E+01  0.67599139576E+01 -0.13461286094E+00  0.11398317518E+02  0.51100000000E-03 0.  1.
         12    1    3    3    0    0  0.85107994936E+01  0.56450972549E+01 -0.10971071088E+02  0.14988836908E+02  0.00000000000E+00 0. -1.
</event>
<event>
 7    1  0.2706925E-010  0.4778728E+02  0.7816164E-02  0.1312668E+00
        -11   -1    0    0    0    0  0.00000000000E+00  0.00000000000E+00  0.45593999997E+02  0.45594000000E+02  0.51100000000E-03 0.  1.
         11   -1    0    0    0    0 -0.00000000000E+00 -0.00000000000E+00 -0.45593999997E+02  0.45594000000E+02  0.51100000000E-03 0. -1.
    9900012    2    1    2    0    0  0.60959734382E+00 -0.30570048943E+02  0.30801350805E+02  0.47787277509E+02  0.20000029476E+02 0.  0.
         12    1    1    2    0    0 -0.60959734382E+00  0.30570048943E+02 -0.30801350805E+02  0.43400722491E+02  0.00000000000E+00 0. -1.
         11    1    3    3    0    0  0.36796229705E+01 -0.65457980002E+01  0.33751757075E+00  0.75167157081E+01  0.51100000000E-03 0. -1.
        -11    1    3    3    0    0 -0.34855859693E+00 -0.44527352799E+01  0.13527529430E+02  0.14245785248E+02  0.51100000000E-03 0.  1.
        -12    1    3    3    0    0 -0.27214670298E+01 -0.19571515663E+02  0.16936303804E+02  0.26024776554E+02  0.00000000000E+00 0.  1.
</event>
<event>
 7    1  0.2706925E-010  0.4778727E+02  0.7816164E-02  0.1312668E+00
        -11   -1    0    0    0    0  0.00000000000E+00  0.00000000000E+00  0.45593999997E+02  0.45594000000E+02  0.51100000000E-03 0. -1.
         11   -1    0    0    0    0 -0.00000000000E+00 -0.00000000000E+00 -0.45593999997E+02  0.45594000000E+02  0.51100000000E-03 0.  1.
    9900012    2    1    2    0    0  0.35575782570E+02  0.29179045549E+01 -0.24687501845E+02  0.47787271667E+02  0.20000002840E+02 0.  0.
         12    1    1    2    0    0 -0.35575782570E+02 -0.29179045549E+01  0.24687501845E+02  0.43400728333E+02  0.00000000000E+00 0. -1.
         11    1    3    3    0    0  0.15532687214E+01  0.39739810463E+01 -0.11924885374E+01  0.44302593886E+01  0.51100000000E-03 0. -1.
        -11    1    3    3    0    0  0.11845565227E+02  0.50819411897E+01 -0.49647506851E+01  0.13812758285E+02  0.51100000000E-03 0.  1.
        -12    1    3    3    0    0  0.22176948621E+02 -0.61380176811E+01 -0.18530262622E+02  0.29544253994E+02  0.00000000000E+00 0.  1.
</event>
<event>
 7    1  0.2706925E-010  0.4778727E+02  0.7816164E-02  0.1312668E+00
        -11   -1    0    0    0    0  0.00000000000E+00  0.00000000000E+00  0.45593999997E+02  0.45594000000E+02  0.51100000000E-03 0. -1.
         11   -1    0    0    0    0 -0.00000000000E+00 -0.00000000000E+00 -0.45593999997E+02  0.45594000000E+02  0.51100000000E-03 0.  1.
    9900012    2    1    2    0    0 -0.28591008166E+02 -0.26586974138E+02 -0.18955488159E+02  0.47787268749E+02  0.19999989534E+02 0.  0.
         12    1    1    2    0    0  0.28591008166E+02  0.26586974138E+02  0.18955488159E+02  0.43400731251E+02  0.00000000000E+00 0. -1.
         11    1    3    3    0    0 -0.13957802899E+02 -0.15448856031E+02  0.41143577944E+00  0.20824425421E+02  0.51100000000E-03 0. -1.
        -11    1    3    3    0    0 -0.12017626389E+02 -0.10731046622E+02 -0.16539184076E+02  0.23089463306E+02  0.51100000000E-03 0.  1.
         12    1    3    3    0    0 -0.26155788782E+01 -0.40707148493E+00 -0.28277398626E+01  0.38733800217E+01  0.00000000000E+00 0. -1.
</event>
<event>
 7    1  0.2706925E-010  0.4778728E+02  0.7816164E-02  0.1312668E+00
        -11   -1    0    0    0    0  0.00000000000E+00  0.00000000000E+00  0.45593999997E+02  0.45594000000E+02  0.51100000000E-03 0.  1.
         11   -1    0    0    0    0 -0.00000000000E+00 -0.00000000000E+00 -0.45593999997E+02  0.45594000000E+02  0.51100000000E-03 0. -1.
    9900012    2    1    2    0    0  0.54779068207E+01  0.44886738954E+01  0.42819004257E+02  0.47787276711E+02  0.20000025837E+02 0.  0.
         12    1    1    2    0    0 -0.54779068207E+01 -0.44886738954E+01 -0.42819004257E+02  0.43400723289E+02  0.00000000000E+00 0. -1.
         11    1    3    3    0    0 -0.60475952516E+00 -0.21559859207E+01  0.22121506803E+00  0.22500990514E+01  0.51100000000E-03 0. -1.
        -11    1    3    3    0    0  0.88554874904E+01  0.18920620238E+01  0.35023849837E+02  0.36175538905E+02  0.51100000000E-03 0.  1.
         12    1    3    3    0    0 -0.27728211446E+01  0.47525977923E+01  0.75739393516E+01  0.93616387549E+01  0.00000000000E+00 0. -1.
</event>
<event>
 7    1  0.2706925E-010  0.4778727E+02  0.7816164E-02  0.1312668E+00
        -11   -1    0    0    0    0  0.00000000000E+00  0.00000000000E+00  0.45593999997E+02  0.45594000000E+02  0.51100000000E-03 0.  1.
         11   -1    0    0    0    0 -0.00000000000E+00 -0.00000000000E+00 -0.45593999997E+02  0.45594000000E+02  0.51100000000E-03 0. -1.
    9900012    2    1    2    0    0  0.35551849917E+02  0.24164638060E+02  0.59799271043E+01  0.47787270821E+02  0.19999998980E+02 0.  0.
         12    1    1    2    0    0 -0.35551849917E+02 -0.24164638060E+02 -0.59799271043E+01  0.43400729179E+02  0.00000000000E+00 0. -1.
         11    1    3    3    0    0  0.11156796450E+02  0.10405426961E+01  0.30470756766E+01  0.11612127565E+02  0.51100000000E-03 0. -1.
        -11    1    3    3    0    0  0.20752690904E+02  0.20258230306E+02 -0.24112673401E+01  0.29101276352E+02  0.51100000000E-03 0.  1.
        -12    1    3    3    0    0  0.36423625631E+01  0.28658650584E+01  0.53441187678E+01  0.70738669042E+01  0.00000000000E+00 0.  1.
</event>
<event>
 7    1  0.2706925E-010  0.4778728E+02  0.7816164E-02  0.1312668E+00
        -11   -1    0    0    0    0  0.00000000000E+00  0.00000000000E+00  0.45593999997E+02  0.45594000000E+02  0.51100000000E-03 0.  1.
         11   -1    0    0    0    0 -0.00000000000E+00 -0.00000000000E+00 -0.45593999997E+02  0.45594000000E+02  0.51100000000E-03 0. -1.
    9900012    2    1    2    0    0 -0.14591635474E+02 -0.19955955015E+02  0.35671649460E+02  0.47787279481E+02  0.20000038466E+02 0.  0.
         12    1    1    2    0    0  0.14591635474E+02  0.19955955015E+02 -0.35671649460E+02  0.43400720519E+02  0.00000000000E+00 0. -1.
         11    1    3    3    0    0  0.68754740995E+00 -0.30747338945E+01  0.12886835600E+02  0.13266395215E+02  0.51100000000E-03 0. -1.
        -11    1    3    3    0    0 -0.13982449062E+02 -0.12971961355E+02  0.10956588572E+02  0.21996079118E+02  0.51100000000E-03 0.  1.
        -12    1    3    3    0    0 -0.12967338215E+01 -0.39092597655E+01  0.11828225288E+02  0.12524805148E+02  0.00000000000E+00 0.  1.
</event>
<event>
 7    1  0.2706925E-010  0.4778726E+02  0.7816164E-02  0.1312668E+00
        -11   -1    0    0    0    0  0.00000000000E+00  0.00000000000E+00  0.45593999997E+02  0.45594000000E+02  0.51100000000E-03 0.  1.
         11   -1    0    0    0    0 -0.00000000000E+00 -0.00000000000E+00 -0.45593999997E+02  0.45594000000E+02  0.51100000000E-03 0. -1.
    9900012    2    1    2    0    0  0.26776049194E+02 -0.12167240491E+02  0.31915911675E+02  0.47787263029E+02  0.19999963452E+02 0.  0.
         12    1    1    2    0    0 -0.26776049194E+02  0.12167240491E+02 -0.31915911675E+02  0.43400736971E+02  0.00000000000E+00 0. -1.
         11    1    3    3    0    0 -0.17611041909E+01 -0.37045427441E+01  0.50091990820E+00  0.41323172591E+01  0.51100000000E-03 0. -1.
        -11    1    3    3    0    0  0.16793606745E+02 -0.27913195241E+01  0.14996184829E+02  0.22687050312E+02  0.51100000000E-03 0.  1.
         12    1    3    3    0    0  0.11743546640E+02 -0.56713782227E+01  0.16418806938E+02  0.20967895457E+02  0.00000000000E+00 0. -1.
</event>
<event>
 7    1  0.2706925E-010  0.4778727E+02  0.7816164E-02  0.1312668E+00
        -11   -1    0    0    0    0  0.00000000000E+00  0.00000000000E+00  0.45593999997E+02  0.45594000000E+02  0.51100000000E-03 0. -1.
         11   -1    0    0    0    0 -0.00000000000E+00 -0.00000000000E+00 -0.45593999997E+02  0.45594000000E+02  0.51100000000E-03 0.  1.
    9900012    2    1    2    0    0 -0.34319335417E+01  0.70563023457E+01 -0.42685520246E+02  0.47787271789E+02  0.20000003393E+02 0.  0.
         12    1    1    2    0    0  0.34319335417E+01 -0.70563023457E+01  0.42685520246E+02  0.43400728211E+02  0.00000000000E+00 0. -1.
         11    1    3    3    0    0 -0.43410547222E+00  0.21700601657E+01 -0.33631660922E+02  0.33704394748E+02  0.51100000000E-03 0. -1.
        -11    1    3    3    0    0 -0.54648037800E+01  0.52589143185E+00 -0.31115009344E+01  0.63104738711E+01  0.51100000000E-03 0.  1.
        -12    1    3    3    0    0  0.24669757105E+01  0.43603507481E+01 -0.59423583893E+01  0.77724031696E+01  0.00000000000E+00 0.  1.
</event>
<event>
 7    1  0.2706925E-010  0.4778722E+02  0.7816164E-02  0.1312668E+00
        -11   -1    0    0    0    0  0.00000000000E+00  0.00000000000E+00  0.45593999997E+02  0.45594000000E+02  0.51100000000E-03 0.  1.
         11   -1    0    0    0    0 -0.00000000000E+00 -0.00000000000E+00 -0.45593999997E+02  0.45594000000E+02  0.51100000000E-03 0. -1.
    9900012    2    1    2    0    0  0.17294079728E+01 -0.20376969146E+02  0.38280747439E+02  0.47787224108E+02  0.19999785999E+02 0.  0.
         12    1    1    2    0    0 -0.17294079728E+01  0.20376969146E+02 -0.38280747439E+02  0.43400775892E+02  0.00000000000E+00 0. -1.
         11    1    3    3    0    0  0.19309386741E+01 -0.26913622676E+01  0.21820493960E+02  0.22070476025E+02  0.51100000000E-03 0. -1.
        -11    1    3    3    0    0 -0.20238854666E+01 -0.16821025631E+02  0.16567941185E+02  0.23696828713E+02  0.51100000000E-03 0.  1.
        -12    1    3    3    0    0  0.18223547652E+01 -0.86458124694E+00 -0.10768770645E+00  0.20199193709E+01  0.00000000000E+00 0.  1.
</event>
<event>
 7    1  0.2706925E-010  0.4778727E+02  0.7816164E-02  0.1312668E+00
        -11   -1    0    0    0    0  0.00000000000E+00  0.00000000000E+00  0.45593999997E+02  0.45594000000E+02  0.51100000000E-03 0.  1.
         11   -1    0    0    0    0 -0.00000000000E+00 -0.00000000000E+00 -0.45593999997E+02  0.45594000000E+02  0.51100000000E-03 0. -1.
    9900012    2    1    2    0    0  0.37799852984E+00 -0.32703435491E+02  0.28530087202E+02  0.47787268998E+02  0.19999990668E+02 0.  0.
         12    1    1    2    0    0 -0.37799852984E+00  0.32703435491E+02 -0.28530087202E+02  0.43400731002E+02  0.00000000000E+00 0. -1.
         11    1    3    3    0    0 -0.18574026870E+01 -0.72530068609E+01  0.78516076885E+00  0.75281160299E+01  0.51100000000E-03 0. -1.
        -11    1    3    3    0    0  0.14160373045E+01 -0.18497499321E+02  0.27601478047E+02  0.33256641945E+02  0.51100000000E-03 0.  1.
        -12    1    3    3    0    0  0.81936391241E+00 -0.69529293086E+01  0.14344838608E+00  0.70025110232E+01  0.00000000000E+00 0.  1.
</event>
<event>
 7    1  0.2706925E-010  0.4778727E+02  0.7816164E-02  0.1312668E+00
        -11   -1    0    0    0    0  0.00000000000E+00  0.00000000000E+00  0.45593999997E+02  0.45594000000E+02  0.51100000000E-03 0. -1.
         11   -1    0    0    0    0 -0.00000000000E+00 -0.00000000000E+00 -0.45593999997E+02  0.45594000000E+02  0.51100000000E-03 0.  1.
    9900012    2    1    2    0    0  0.28550357181E+02  0.17702235325E+02 -0.27479653123E+02  0.47787269979E+02  0.19999995141E+02 0.  0.
         12    1    1    2    0    0 -0.28550357181E+02 -0.17702235325E+02  0.27479653123E+02  0.43400730021E+02  0.00000000000E+00 0. -1.
         11    1    3    3    0    0  0.16181525077E+02 -0.57515224107E+00 -0.10204989218E+02  0.19139340613E+02  0.51100000000E-03 0. -1.
        -11    1    3    3    0    0  0.54481972332E+01  0.86088591761E+01 -0.11705383967E+02  0.15518096645E+02  0.51100000000E-03 0.  1.
        -12    1    3    3    0    0  0.69206348705E+01  0.96685283900E+01 -0.55692799378E+01  0.13129832720E+02  0.00000000000E+00 0.  1.
</event>
<event>
 7    1  0.2706925E-010  0.4778727E+02  0.7816164E-02  0.1312668E+00
        -11   -1    0    0    0    0  0.00000000000E+00  0.00000000000E+00  0.45593999997E+02  0.45594000000E+02  0.51100000000E-03 0. -1.
         11   -1    0    0    0    0 -0.00000000000E+00 -0.00000000000E+00 -0.45593999997E+02  0.45594000000E+02  0.51100000000E-03 0.  1.
    9900012    2    1    2    0    0  0.23582514937E+02 -0.36391048533E+02  0.17832135256E+01  0.47787271037E+02  0.19999999967E+02 0.  0.
         12    1    1    2    0    0 -0.23582514937E+02  0.36391048533E+02 -0.17832135256E+01  0.43400728963E+02  0.00000000000E+00 0. -1.
         11    1    3    3    0    0  0.45813598907E+00 -0.14770469824E+00  0.11347455597E+01  0.12326203831E+01  0.51100000000E-03 0. -1.
        -11    1    3    3    0    0  0.13529918945E+02 -0.92574568142E+01 -0.54419643586E+01  0.17273511214E+02  0.51100000000E-03 0.  1.
        -12    1    3    3    0    0  0.95944600023E+01 -0.26985887020E+02  0.60904323245E+01  0.29281139440E+02  0.00000000000E+00 0.  1.
</event>
<event>
 7    1  0.2706925E-010  0.4778728E+02  0.7816164E-02  0.1312668E+00
        -11   -1    0    0    0    0  0.00000000000E+00  0.00000000000E+00  0.45593999997E+02  0.45594000000E+02  0.51100000000E-03 0. -1.
         11   -1    0    0    0    0 -0.00000000000E+00 -0.00000000000E+00 -0.45593999997E+02  0.45594000000E+02  0.51100000000E-03 0.  1.
    9900012    2    1    2    0    0  0.43178752962E+02  0.14241780851E+01  0.41460368096E+01  0.47787278672E+02  0.20000034776E+02 0.  0.
         12    1    1    2    0    0 -0.43178752962E+02 -0.14241780851E+01 -0.41460368096E+01  0.43400721328E+02  0.00000000000E+00 0. -1.
         11    1    3    3    0    0  0.77147017355E+01 -0.16815465023E+01  0.53243466810E+01  0.95232814380E+01  0.51100000000E-03 0. -1.
        -11    1    3    3    0    0  0.30276845053E+02  0.16945707603E+01 -0.61501258746E+01  0.30941605727E+02  0.51100000000E-03 0.  1.
        -12    1    3    3    0    0  0.51872061736E+01  0.14111538271E+01  0.49718160033E+01  0.73223915070E+01  0.00000000000E+00 0.  1.
</event>
<event>
 7    1  0.2706925E-010  0.4778728E+02  0.7816164E-02  0.1312668E+00
        -11   -1    0    0    0    0  0.00000000000E+00  0.00000000000E+00  0.45593999997E+02  0.45594000000E+02  0.51100000000E-03 0. -1.
         11   -1    0    0    0    0 -0.00000000000E+00 -0.00000000000E+00 -0.45593999997E+02  0.45594000000E+02  0.51100000000E-03 0.  1.
    9900012    2    1    2    0    0  0.12256432616E+02  0.14864974514E+02 -0.38890031049E+02  0.47787284306E+02  0.20000060465E+02 0.  0.
         12    1    1    2    0    0 -0.12256432616E+02 -0.14864974514E+02  0.38890031049E+02  0.43400715694E+02  0.00000000000E+00 0. -1.
         11    1    3    3    0    0  0.34852404422E+01 -0.13687215973E+01 -0.38672715112E+01  0.53829442643E+01  0.51100000000E-03 0. -1.
        -11    1    3    3    0    0  0.79020312893E+01  0.15478342203E+02 -0.16886947207E+02  0.24232006976E+02  0.51100000000E-03 0.  1.
        -12    1    3    3    0    0  0.86916088490E+00  0.75535390834E+00 -0.18135812331E+02  0.18172333066E+02  0.00000000000E+00 0.  1.
</event>
<event>
 7    1  0.2706925E-010  0.4778726E+02  0.7816164E-02  0.1312668E+00
        -11   -1    0    0    0    0  0.00000000000E+00  0.00000000000E+00  0.45593999997E+02  0.45594000000E+02  0.51100000000E-03 0.  1.
         11   -1    0    0    0    0 -0.00000000000E+00 -0.00000000000E+00 -0.45593999997E+02  0.45594000000E+02  0.51100000000E-03 0. -1.
    9900012    2    1    2    0    0 -0.23618757553E+02 -0.69444964746E+01  0.35742860314E+02  0.47787264948E+02  0.19999972202E+02 0.  0.
         12    1    1    2    0    0  0.23618757553E+02  0.69444964746E+01 -0.35742860314E+02  0.43400735052E+02  0.00000000000E+00 0. -1.
         11    1    3    3    0    0 -0.18693310623E+02 -0.60163294151E+01  0.10945294955E+02  0.22481894128E+02  0.51100000000E-03 0. -1.
        -11    1    3    3    0    0 -0.25840087836E+01 -0.71613529899E+00  0.12352065028E+02  0.12639757192E+02  0.51100000000E-03 0.  1.
         12    1    3    3    0    0 -0.23414381469E+01 -0.21203176055E+00  0.12445500332E+02  0.12665613628E+02  0.00000000000E+00 0. -1.
</event>
<event>
 7    1  0.2706925E-010  0.4778727E+02  0.7816164E-02  0.1312668E+00
        -11   -1    0    0    0    0  0.00000000000E+00  0.00000000000E+00  0.45593999997E+02  0.45594000000E+02  0.51100000000E-03 0.  1.
         11   -1    0    0    0    0 -0.00000000000E+00 -0.00000000000E+00 -0.45593999997E+02  0.45594000000E+02  0.51100000000E-03 0. -1.
    9900012    2    1    2    0    0  0.16493025322E+02  0.52810823477E+01  0.39795902873E+02  0.47787267282E+02  0.19999982844E+02 0.  0.
         12    1    1    2    0    0 -0.16493025322E+02 -0.52810823477E+01 -0.39795902873E+02  0.43400732718E+02  0.00000000000E+00 0. -1.
         11    1    3    3    0    0  0.14933189423E+01  0.66594512442E+01  0.24826764486E+01  0.72623670347E+01  0.51100000000E-03 0. -1.
        -11    1    3    3    0    0  0.13356649709E+01  0.10154883474E+01  0.68394977104E+01  0.70422969754E+01  0.51100000000E-03 0.  1.
         12    1    3    3    0    0  0.13664041408E+02 -0.23938572439E+01  0.30473728714E+02  0.33482603272E+02  0.00000000000E+00 0. -1.
</event>
<event>
 7    1  0.3542821E-010  0.4778727E+02  0.7816164E-02  0.1312668E+00
        -11   -1    0    0    0    0  0.00000000000E+00  0.00000000000E+00  0.45593999997E+02  0.45594000000E+02  0.51100000000E-03 0.  1.
         11   -1    0    0    0    0 -0.00000000000E+00 -0.00000000000E+00 -0.45593999997E+02  0.45594000000E+02  0.51100000000E-03 0. -1.
    9900012    2    1    2    0    0  0.14573197058E+02  0.28140885545E+02  0.29653592208E+02  0.47787273709E+02  0.20000012150E+02 0.  0.
         12    1    1    2    0    0 -0.14573197058E+02 -0.28140885545E+02 -0.29653592208E+02  0.43400726291E+02  0.00000000000E+00 0. -1.
         11    1    3    3    0    0  0.27265883344E+01  0.30715712420E+01 -0.75071927218E+00  0.41752141893E+01  0.51100000000E-03 0. -1.
        -11    1    3    3    0    0  0.13087127602E+02  0.16705763717E+02  0.27360321196E+02  0.34625750915E+02  0.51100000000E-03 0.  1.
        -12    1    3    3    0    0 -0.12405188785E+01  0.83635505856E+01  0.30439902840E+01  0.89863086045E+01  0.00000000000E+00 0.  1.
</event>
<event>
 7    1  0.2706925E-010  0.4778727E+02  0.7816164E-02  0.1312668E+00
        -11   -1    0    0    0    0  0.00000000000E+00  0.00000000000E+00  0.45593999997E+02  0.45594000000E+02  0.51100000000E-03 0.  1.
         11   -1    0    0    0    0 -0.00000000000E+00 -0.00000000000E+00 -0.45593999997E+02  0.45594000000E+02  0.51100000000E-03 0. -1.
    9900012    2    1    2    0    0 -0.31256291526E+02 -0.23370511853E+02  0.18986490510E+02  0.47787269520E+02  0.19999993051E+02 0.  0.
         12    1    1    2    0    0  0.31256291526E+02  0.23370511853E+02 -0.18986490510E+02  0.43400730480E+02  0.00000000000E+00 0. -1.
         11    1    3    3    0    0 -0.93235518816E+00  0.13384864691E+01  0.16457283161E+01  0.23171651163E+01  0.51100000000E-03 0. -1.
        -11    1    3    3    0    0 -0.13329632787E+02 -0.14955783618E+02  0.16336425607E+02  0.25850210362E+02  0.51100000000E-03 0.  1.
        -12    1    3    3    0    0 -0.16994303551E+02 -0.97532147049E+01  0.10043365868E+01  0.19619894042E+02  0.00000000000E+00 0.  1.
</event>
<event>
 7    1  0.3265104E-010  0.4778727E+02  0.7816164E-02  0.1312668E+00
        -11   -1    0    0    0    0  0.00000000000E+00  0.00000000000E+00  0.45593999997E+02  0.45594000000E+02  0.51100000000E-03 0. -1.
         11   -1    0    0    0    0 -0.00000000000E+00 -0.00000000000E+00 -0.45593999997E+02  0.45594000000E+02  0.51100000000E-03 0.  1.
    9900012    2    1    2    0    0 -0.30929728885E+02  0.22841893564E+02 -0.20130153975E+02  0.47787270403E+02  0.19999997077E+02 0.  0.
         12    1    1    2    0    0  0.30929728885E+02 -0.22841893564E+02  0.20130153975E+02  0.43400729597E+02  0.00000000000E+00 0. -1.
         11    1    3    3    0    0 -0.25115728857E+01 -0.72342467222E+00  0.18284228288E+01  0.31897448047E+01  0.51100000000E-03 0. -1.
        -11    1    3    3    0    0 -0.22381752397E+02  0.22549319126E+02 -0.14430698642E+02  0.34894980971E+02  0.51100000000E-03 0.  1.
        -12    1    3    3    0    0 -0.60364036016E+01  0.10159991107E+01 -0.75278781616E+01  0.97025446276E+01  0.00000000000E+00 0.  1.
</event>
<event>
 7    1  0.2706925E-010  0.4778726E+02  0.7816164E-02  0.1312668E+00
        -11   -1    0    0    0    0  0.00000000000E+00  0.00000000000E+00  0.45593999997E+02  0.45594000000E+02  0.51100000000E-03 0. -1.
         11   -1    0    0    0    0 -0.00000000000E+00 -0.00000000000E+00 -0.45593999997E+02  0.45594000000E+02  0.51100000000E-03 0.  1.
    9900012    2    1    2    0    0  0.26139000906E+02 -0.19425579257E+01 -0.34591953601E+02  0.47787260910E+02  0.19999953792E+02 0.  0.
         12    1    1    2    0    0 -0.26139000906E+02  0.19425579257E+01  0.34591953601E+02  0.43400739090E+02  0.00000000000E+00 0. -1.
         11    1    3    3    0    0 -0.38030858128E+00 -0.20311980717E+01 -0.80294333380E+01  0.82910916177E+01  0.51100000000E-03 0. -1.
        -11    1    3    3    0    0  0.23037753496E+02 -0.42863440317E+00 -0.27476989181E+02  0.35859541942E+02  0.51100000000E-03 0.  1.
        -12    1    3    3    0    0  0.34815559912E+01  0.51727454920E+00  0.91446891826E+00  0.36366273499E+01  0.00000000000E+00 0.  1.
</event>
<event>
 7    1  0.2706925E-010  0.4778727E+02  0.7816164E-02  0.1312668E+00
        -11   -1    0    0    0    0  0.00000000000E+00  0.00000000000E+00  0.45593999997E+02  0.45594000000E+02  0.51100000000E-03 0.  1.
         11   -1    0    0    0    0 -0.00000000000E+00 -0.00000000000E+00 -0.45593999997E+02  0.45594000000E+02  0.51100000000E-03 0. -1.
    9900012    2    1    2    0    0 -0.37828986737E+02  0.20171561747E+02  0.67601023962E+01  0.47787272756E+02  0.20000007804E+02 0.  0.
         12    1    1    2    0    0  0.37828986737E+02 -0.20171561747E+02 -0.67601023962E+01  0.43400727244E+02  0.00000000000E+00 0. -1.
         11    1    3    3    0    0  0.51405975120E+00  0.19550889445E+01 -0.18746953845E+01  0.27570116530E+01  0.51100000000E-03 0. -1.
        -11    1    3    3    0    0 -0.19116534455E+02  0.70926325966E+01  0.10129616686E+02  0.22767443010E+02  0.51100000000E-03 0.  1.
        -12    1    3    3    0    0 -0.19226512033E+02  0.11123840206E+02 -0.14948189055E+01  0.22262818093E+02  0.00000000000E+00 0.  1.
</event>
<event>
 7    1  0.2706925E-010  0.4778727E+02  0.7816164E-02  0.1312668E+00
        -11   -1    0    0    0    0  0.00000000000E+00  0.00000000000E+00  0.45593999997E+02  0.45594000000E+02  0.51100000000E-03 0.  1.
         11   -1    0    0    0    0 -0.00000000000E+00 -0.00000000000E+00 -0.45593999997E+02  0.45594000000E+02  0.51100000000E-03 0. -1.
    9900012    2    1    2    0    0  0.18270803479E+02  0.27930420759E+01  0.39268308576E+02  0.47787269566E+02  0.19999993259E+02 0.  0.
         12    1    1    2    0    0 -0.18270803479E+02 -0.27930420759E+01 -0.39268308576E+02  0.43400730434E+02  0.00000000000E+00 0. -1.
         11    1    3    3    0    0  0.82554300267E+01 -0.34198944579E+01  0.30210358090E+02  0.31504182884E+02  0.51100000000E-03 0. -1.
        -11    1    3    3    0    0  0.78690779848E+01  0.66564959938E+01  0.45417004992E+01  0.11263142143E+02  0.51100000000E-03 0.  1.
        -12    1    3    3    0    0  0.21462954674E+01 -0.44355945998E+00  0.45162499868E+01  0.50199445386E+01  0.00000000000E+00 0.  1.
</event>
<event>
 7    1  0.2706925E-010  0.4778727E+02  0.7816164E-02  0.1312668E+00
        -11   -1    0    0    0    0  0.00000000000E+00  0.00000000000E+00  0.45593999997E+02  0.45594000000E+02  0.51100000000E-03 0.  1.
         11   -1    0    0    0    0 -0.00000000000E+00 -0.00000000000E+00 -0.45593999997E+02  0.45594000000E+02  0.51100000000E-03 0. -1.
    9900012    2    1    2    0    0  0.33064892990E+01  0.25864838987E+02  0.34694387802E+02  0.47787270602E+02  0.19999997982E+02 0.  0.
         12    1    1    2    0    0 -0.33064892990E+01 -0.25864838987E+02 -0.34694387802E+02  0.43400729398E+02  0.00000000000E+00 0. -1.
         11    1    3    3    0    0  0.59807284993E+00 -0.12547066851E+01 -0.94639863251E+00  0.16815619620E+01  0.51100000000E-03 0. -1.
        -11    1    3    3    0    0  0.54264767579E+00  0.26829802768E+02  0.34268631367E+02  0.43525531347E+02  0.51100000000E-03 0.  1.
        -12    1    3    3    0    0  0.21657687733E+01  0.28974290475E+00  0.13721550676E+01  0.25801772924E+01  0.00000000000E+00 0.  1.
</event>
<event>
 7    1  0.2706925E-010  0.4778727E+02  0.7816164E-02  0.1312668E+00
        -11   -1    0    0    0    0  0.00000000000E+00  0.00000000000E+00  0.45593999997E+02  0.45594000000E+02  0.51100000000E-03 0.  1.
         11   -1    0    0    0    0 -0.00000000000E+00 -0.00000000000E+00 -0.45593999997E+02  0.45594000000E+02  0.51100000000E-03 0. -1.
    9900012    2    1    2    0    0  0.28214677664E+02 -0.22734096633E+02  0.23889660571E+02  0.47787273421E+02  0.20000010834E+02 0.  0.
         12    1    1    2    0    0 -0.28214677664E+02  0.22734096633E+02 -0.23889660571E+02  0.43400726579E+02  0.00000000000E+00 0. -1.
         11    1    3    3    0    0  0.40320638951E+01  0.30489924188E+01 -0.10269860855E+00  0.50561290816E+01  0.51100000000E-03 0. -1.
        -11    1    3    3    0    0  0.12003612196E+02 -0.12929059770E+02  0.11461775072E+02  0.21038526097E+02  0.51100000000E-03 0.  1.
         12    1    3    3    0    0  0.12179001573E+02 -0.12854029282E+02  0.12530584108E+02  0.21692618242E+02  0.00000000000E+00 0. -1.
</event>
<event>
 7    1  0.2706925E-010  0.4778727E+02  0.7816164E-02  0.1312668E+00
        -11   -1    0    0    0    0  0.00000000000E+00  0.00000000000E+00  0.45593999997E+02  0.45594000000E+02  0.51100000000E-03 0. -1.
         11   -1    0    0    0    0 -0.00000000000E+00 -0.00000000000E+00 -0.45593999997E+02  0.45594000000E+02  0.51100000000E-03 0.  1.
    9900012    2    1    2    0    0 -0.15503395839E+02 -0.25467977100E+02 -0.31538077629E+02  0.47787268662E+02  0.19999989139E+02 0.  0.
         12    1    1    2    0    0  0.15503395839E+02  0.25467977100E+02  0.31538077629E+02  0.43400731338E+02  0.00000000000E+00 0. -1.
         11    1    3    3    0    0  0.33777636425E+01 -0.21884203602E+00 -0.16019102748E+01  0.37447691319E+01  0.51100000000E-03 0. -1.
        -11    1    3    3    0    0 -0.96032488779E+01 -0.18429078725E+02 -0.18781612742E+02  0.28010753455E+02  0.51100000000E-03 0.  1.
         12    1    3    3    0    0 -0.92779106034E+01 -0.68200563387E+01 -0.11154554612E+02  0.16031746075E+02  0.00000000000E+00 0. -1.
</event>
<event>
 7    1  0.2706925E-010  0.4778727E+02  0.7816164E-02  0.1312668E+00
        -11   -1    0    0    0    0  0.00000000000E+00  0.00000000000E+00  0.45593999997E+02  0.45594000000E+02  0.51100000000E-03 0.  1.
         11   -1    0    0    0    0 -0.00000000000E+00 -0.00000000000E+00 -0.45593999997E+02  0.45594000000E+02  0.51100000000E-03 0. -1.
    9900012    2    1    2    0    0  0.26372837426E+02  0.68373640828E+01  0.33783829481E+02  0.47787271482E+02  0.20000001994E+02 0.  0.
         12    1    1    2    0    0 -0.26372837426E+02 -0.68373640828E+01 -0.33783829481E+02  0.43400728518E+02  0.00000000000E+00 0. -1.
         11    1    3    3    0    0  0.21488992803E+02  0.42397618472E+01  0.22973897332E+02  0.31741965142E+02  0.51100000000E-03 0. -1.
        -11    1    3    3    0    0  0.79327864300E+01  0.33791781628E+01  0.87443071375E+01  0.12280507041E+02  0.51100000000E-03 0.  1.
         12    1    3    3    0    0 -0.30489418069E+01 -0.78157592727E+00  0.20656250120E+01  0.37647992990E+01  0.00000000000E+00 0. -1.
</event>
<event>
 7    1  0.2706925E-010  0.4778727E+02  0.7816164E-02  0.1312668E+00
        -11   -1    0    0    0    0  0.00000000000E+00  0.00000000000E+00  0.45593999997E+02  0.45594000000E+02  0.51100000000E-03 0.  1.
         11   -1    0    0    0    0 -0.00000000000E+00 -0.00000000000E+00 -0.45593999997E+02  0.45594000000E+02  0.51100000000E-03 0. -1.
    9900012    2    1    2    0    0  0.61538093282E+01 -0.25692764037E+02  0.34433062131E+02  0.47787271195E+02  0.20000000686E+02 0.  0.
         12    1    1    2    0    0 -0.61538093282E+01  0.25692764037E+02 -0.34433062131E+02  0.43400728805E+02  0.00000000000E+00 0. -1.
         11    1    3    3    0    0  0.80635381782E+01 -0.16361942216E+02  0.24993281295E+02  0.30941847249E+02  0.51100000000E-03 0. -1.
        -11    1    3    3    0    0 -0.46699344904E+01 -0.46563018999E+01  0.93178763936E+01  0.11415439382E+02  0.51100000000E-03 0.  1.
         12    1    3    3    0    0  0.27602056404E+01 -0.46745199211E+01  0.12190444183E+00  0.54299845638E+01  0.00000000000E+00 0. -1.
</event>
<event>
 7    1  0.2706925E-010  0.4778727E+02  0.7816164E-02  0.1312668E+00
        -11   -1    0    0    0    0  0.00000000000E+00  0.00000000000E+00  0.45593999997E+02  0.45594000000E+02  0.51100000000E-03 0. -1.
         11   -1    0    0    0    0 -0.00000000000E+00 -0.00000000000E+00 -0.45593999997E+02  0.45594000000E+02  0.51100000000E-03 0.  1.
    9900012    2    1    2    0    0 -0.22881077498E+02  0.26075978258E+02 -0.26079163356E+02  0.47787272921E+02  0.20000008557E+02 0.  0.
         12    1    1    2    0    0  0.22881077498E+02 -0.26075978258E+02  0.26079163356E+02  0.43400727079E+02  0.00000000000E+00 0. -1.
         11    1    3    3    0    0  0.26423163673E+00  0.10613045992E+02 -0.13482550865E+02  0.17160586869E+02  0.51100000000E-03 0. -1.
        -11    1    3    3    0    0 -0.20915631503E+02  0.14250056135E+02 -0.12047264630E+02  0.28029704358E+02  0.51100000000E-03 0.  1.
         12    1    3    3    0    0 -0.22296776316E+01  0.12128761309E+01 -0.54934786070E+00  0.25969816946E+01  0.00000000000E+00 0. -1.
</event>
<event>
 7    1  0.2706925E-010  0.4778728E+02  0.7816164E-02  0.1312668E+00
        -11   -1    0    0    0    0  0.00000000000E+00  0.00000000000E+00  0.45593999997E+02  0.45594000000E+02  0.51100000000E-03 0.  1.
         11   -1    0    0    0    0 -0.00000000000E+00 -0.00000000000E+00 -0.45593999997E+02  0.45594000000E+02  0.51100000000E-03 0. -1.
    9900012    2    1    2    0    0 -0.22445776053E+02  0.57516323925E+01  0.36697802389E+02  0.47787276066E+02  0.20000022894E+02 0.  0.
         12    1    1    2    0    0  0.22445776053E+02 -0.57516323925E+01 -0.36697802389E+02  0.43400723934E+02  0.00000000000E+00 0. -1.
         11    1    3    3    0    0 -0.51444127319E+01  0.30791957321E+01 -0.76876129239E-01  0.59960269273E+01  0.51100000000E-03 0. -1.
        -11    1    3    3    0    0 -0.71156983897E+01  0.10723448981E+01  0.25575511809E+02  0.26568588440E+02  0.51100000000E-03 0.  1.
        -12    1    3    3    0    0 -0.10185664932E+02  0.16000917623E+01  0.11199166710E+02  0.15222660698E+02  0.00000000000E+00 0.  1.
</event>
<event>
 7    1  0.2706925E-010  0.4778726E+02  0.7816164E-02  0.1312668E+00
        -11   -1    0    0    0    0  0.00000000000E+00  0.00000000000E+00  0.45593999997E+02  0.45594000000E+02  0.51100000000E-03 0. -1.
         11   -1    0    0    0    0 -0.00000000000E+00 -0.00000000000E+00 -0.45593999997E+02  0.45594000000E+02  0.51100000000E-03 0.  1.
    9900012    2    1    2    0    0  0.35477607478E+02 -0.20983719433E+02 -0.13588476416E+02  0.47787264926E+02  0.19999972105E+02 0.  0.
         12    1    1    2    0    0 -0.35477607478E+02  0.20983719433E+02  0.13588476416E+02  0.43400735074E+02  0.00000000000E+00 0. -1.
         11    1    3    3    0    0  0.67019109245E+00 -0.17762681924E+01 -0.42118718195E+00  0.19446551610E+01  0.51100000000E-03 0. -1.
        -11    1    3    3    0    0  0.23058924531E+01  0.73954715969E+00 -0.67510346539E+01  0.71722060181E+01  0.51100000000E-03 0.  1.
        -12    1    3    3    0    0  0.32501523933E+02 -0.19946998400E+02 -0.64162545797E+01  0.38670403747E+02  0.00000000000E+00 0.  1.
</event>
<event>
 7    1  0.2706925E-010  0.4778727E+02  0.7816164E-02  0.1312668E+00
        -11   -1    0    0    0    0  0.00000000000E+00  0.00000000000E+00  0.45593999997E+02  0.45594000000E+02  0.51100000000E-03 0.  1.
         11   -1    0    0    0    0 -0.00000000000E+00 -0.00000000000E+00 -0.45593999997E+02  0.45594000000E+02  0.51100000000E-03 0. -1.
    9900012    2    1    2    0    0 -0.57806831015E-01 -0.70381706032E+01  0.42826205358E+02  0.47787273596E+02  0.20000011633E+02 0.  0.
         12    1    1    2    0    0  0.57806831015E-01  0.70381706032E+01 -0.42826205358E+02  0.43400726404E+02  0.00000000000E+00 0. -1.
         11    1    3    3    0    0  0.19764983508E+01 -0.27131287582E+01 -0.15613021188E+00  0.33603556796E+01  0.51100000000E-03 0. -1.
        -11    1    3    3    0    0 -0.57183829768E+01 -0.31191852346E+00  0.24358926088E+02  0.25023078897E+02  0.51100000000E-03 0.  1.
        -12    1    3    3    0    0  0.36840777950E+01 -0.40131233216E+01  0.18623409481E+02  0.19403839020E+02  0.00000000000E+00 0.  1.
</event>
<event>
 7    1  0.2706925E-010  0.4778727E+02  0.7816164E-02  0.1312668E+00
        -11   -1    0    0    0    0  0.00000000000E+00  0.00000000000E+00  0.45593999997E+02  0.45594000000E+02  0.51100000000E-03 0.  1.
         11   -1    0    0    0    0 -0.00000000000E+00 -0.00000000000E+00 -0.45593999997E+02  0.45594000000E+02  0.51100000000E-03 0. -1.
    9900012    2    1    2    0    0 -0.15288064860E+02 -0.37949732221E+02  0.14481597452E+02  0.47787265357E+02  0.19999974068E+02 0.  0.
         12    1    1    2    0    0  0.15288064860E+02  0.37949732221E+02 -0.14481597452E+02  0.43400734643E+02  0.00000000000E+00 0. -1.
         11    1    3    3    0    0 -0.50850796191E+01 -0.25241526178E+02  0.36046192606E+01  0.25999729976E+02  0.51100000000E-03 0. -1.
        -11    1    3    3    0    0 -0.11188268997E+02 -0.11604542060E+02  0.68817252722E+01  0.17527147587E+02  0.51100000000E-03 0.  1.
         12    1    3    3    0    0  0.98528375540E+00 -0.11036639822E+01  0.39952529191E+01  0.42603877936E+01  0.00000000000E+00 0. -1.
</event>
<event>
 7    1  0.2706925E-010  0.4778727E+02  0.7816164E-02  0.1312668E+00
        -11   -1    0    0    0    0  0.00000000000E+00  0.00000000000E+00  0.45593999997E+02  0.45594000000E+02  0.51100000000E-03 0.  1.
         11   -1    0    0    0    0 -0.00000000000E+00 -0.00000000000E+00 -0.45593999997E+02  0.45594000000E+02  0.51100000000E-03 0. -1.
    9900012    2    1    2    0    0 -0.22246978593E+02  0.44888942264E+01  0.36993849822E+02  0.47787272442E+02  0.20000006372E+02 0.  0.
         12    1    1    2    0    0  0.22246978593E+02 -0.44888942264E+01 -0.36993849822E+02  0.43400727558E+02  0.00000000000E+00 0. -1.
         11    1    3    3    0    0 -0.46777633194E+01  0.63762858129E+01  0.19624977564E+02  0.21158408142E+02  0.51100000000E-03 0. -1.
        -11    1    3    3    0    0 -0.81268307659E+01  0.25432509185E+01  0.12483315544E+02  0.15111143926E+02  0.51100000000E-03 0.  1.
         12    1    3    3    0    0 -0.94423845081E+01 -0.44306425050E+01  0.48855567144E+01  0.11517720374E+02  0.00000000000E+00 0. -1.
</event>
<event>
 7    1  0.2706925E-010  0.4778728E+02  0.7816164E-02  0.1312668E+00
        -11   -1    0    0    0    0  0.00000000000E+00  0.00000000000E+00  0.45593999997E+02  0.45594000000E+02  0.51100000000E-03 0.  1.
         11   -1    0    0    0    0 -0.00000000000E+00 -0.00000000000E+00 -0.45593999997E+02  0.45594000000E+02  0.51100000000E-03 0. -1.
    9900012    2    1    2    0    0  0.31570240234E+02 -0.30247855515E+01  0.29627571349E+02  0.47787281341E+02  0.20000046948E+02 0.  0.
         12    1    1    2    0    0 -0.31570240234E+02  0.30247855515E+01 -0.29627571349E+02  0.43400718659E+02  0.00000000000E+00 0. -1.
         11    1    3    3    0    0  0.65441466858E+01 -0.67807265580E+01  0.35066107640E+01  0.10054870850E+02  0.51100000000E-03 0.  1.
        -11    1    3    3    0    0  0.16566515651E+02 -0.20421185067E+01  0.13486565297E+02  0.21459429922E+02  0.51100000000E-03 0. -1.
         12    1    3    3    0    0  0.84595778971E+01  0.57980595132E+01  0.12634395288E+02  0.16272980569E+02  0.00000000000E+00 0. -1.
</event>
<event>
 7    1  0.2706925E-010  0.4778727E+02  0.7816164E-02  0.1312668E+00
        -11   -1    0    0    0    0  0.00000000000E+00  0.00000000000E+00  0.45593999997E+02  0.45594000000E+02  0.51100000000E-03 0.  1.
         11   -1    0    0    0    0 -0.00000000000E+00 -0.00000000000E+00 -0.45593999997E+02  0.45594000000E+02  0.51100000000E-03 0. -1.
    9900012    2    1    2    0    0 -0.18563497839E+02  0.38342474383E+02  0.82990659634E+01  0.47787270862E+02  0.19999999169E+02 0.  0.
         12    1    1    2    0    0  0.18563497839E+02 -0.38342474383E+02 -0.82990659634E+01  0.43400729138E+02  0.00000000000E+00 0. -1.
         11    1    3    3    0    0 -0.92366491629E+01  0.12151165040E+02 -0.53021978601E-01  0.15263332243E+02  0.51100000000E-03 0.  1.
        -11    1    3    3    0    0 -0.12652923895E+02  0.17137438071E+02  0.83447763591E+01  0.22878451860E+02  0.51100000000E-03 0. -1.
        -12    1    3    3    0    0  0.33260752185E+01  0.90538712717E+01  0.73115829170E-02  0.96454867593E+01  0.00000000000E+00 0.  1.
</event>
<event>
 7    1  0.2706925E-010  0.4778728E+02  0.7816164E-02  0.1312668E+00
        -11   -1    0    0    0    0  0.00000000000E+00  0.00000000000E+00  0.45593999997E+02  0.45594000000E+02  0.51100000000E-03 0.  1.
         11   -1    0    0    0    0 -0.00000000000E+00 -0.00000000000E+00 -0.45593999997E+02  0.45594000000E+02  0.51100000000E-03 0. -1.
    9900012    2    1    2    0    0  0.11556601921E+02 -0.15566820788E+02  0.38829646518E+02  0.47787281041E+02  0.20000045579E+02 0.  0.
         12    1    1    2    0    0 -0.11556601921E+02  0.15566820788E+02 -0.38829646518E+02  0.43400718959E+02  0.00000000000E+00 0. -1.
         11    1    3    3    0    0  0.14775313571E+01 -0.45000539368E+01 -0.10988898542E+01  0.48622159062E+01  0.51100000000E-03 0. -1.
        -11    1    3    3    0    0  0.51889795231E+01 -0.74835261100E+01  0.29375385155E+02  0.30754543157E+02  0.51100000000E-03 0.  1.
         12    1    3    3    0    0  0.48900910412E+01 -0.35832407412E+01  0.10553151217E+02  0.12170521978E+02  0.00000000000E+00 0. -1.
</event>
<event>
 7    1  0.2706925E-010  0.4778727E+02  0.7816164E-02  0.1312668E+00
        -11   -1    0    0    0    0  0.00000000000E+00  0.00000000000E+00  0.45593999997E+02  0.45594000000E+02  0.51100000000E-03 0.  1.
         11   -1    0    0    0    0 -0.00000000000E+00 -0.00000000000E+00 -0.45593999997E+02  0.45594000000E+02  0.51100000000E-03 0. -1.
    9900012    2    1    2    0    0  0.24990651284E+02 -0.34645995820E+02  0.76645992699E+01  0.47787265445E+02  0.19999974470E+02 0.  0.
         12    1    1    2    0    0 -0.24990651284E+02  0.34645995820E+02 -0.76645992699E+01  0.43400734555E+02  0.00000000000E+00 0. -1.
         11    1    3    3    0    0  0.59404123805E+01 -0.10489741201E+02 -0.49232133701E+01  0.13021566721E+02  0.51100000000E-03 0. -1.
        -11    1    3    3    0    0  0.40185232381E+01 -0.54829792982E+01  0.77531471675E+01  0.10311298767E+02  0.51100000000E-03 0.  1.
         12    1    3    3    0    0  0.15031715665E+02 -0.18673275320E+02  0.48346654725E+01  0.24454399957E+02  0.00000000000E+00 0. -1.
</event>
<event>
 7    1  0.2706925E-010  0.4778727E+02  0.7816164E-02  0.1312668E+00
        -11   -1    0    0    0    0  0.00000000000E+00  0.00000000000E+00  0.45593999997E+02  0.45594000000E+02  0.51100000000E-03 0.  1.
         11   -1    0    0    0    0 -0.00000000000E+00 -0.00000000000E+00 -0.45593999997E+02  0.45594000000E+02  0.51100000000E-03 0. -1.
    9900012    2    1    2    0    0  0.16896247221E+02 -0.18471613529E+02  0.35453342943E+02  0.47787271868E+02  0.20000003757E+02 0.  0.
         12    1    1    2    0    0 -0.16896247221E+02  0.18471613529E+02 -0.35453342943E+02  0.43400728132E+02  0.00000000000E+00 0. -1.
         11    1    3    3    0    0  0.31516487706E+01 -0.86188617619E+01  0.24235192552E+02  0.25914517676E+02  0.51100000000E-03 0. -1.
        -11    1    3    3    0    0  0.49301611939E+01 -0.82010859740E+01  0.40439378068E+01  0.10388346057E+02  0.51100000000E-03 0.  1.
         12    1    3    3    0    0  0.88144372562E+01 -0.16516657935E+01  0.71742125837E+01  0.11484408136E+02  0.00000000000E+00 0. -1.
</event>
<event>
 7    1  0.2706925E-010  0.4778727E+02  0.7816164E-02  0.1312668E+00
        -11   -1    0    0    0    0  0.00000000000E+00  0.00000000000E+00  0.45593999997E+02  0.45594000000E+02  0.51100000000E-03 0. -1.
         11   -1    0    0    0    0 -0.00000000000E+00 -0.00000000000E+00 -0.45593999997E+02  0.45594000000E+02  0.51100000000E-03 0.  1.
    9900012    2    1    2    0    0 -0.30424056484E+01  0.43238716481E+02 -0.21864528142E+01  0.47787269465E+02  0.19999992800E+02 0.  0.
         12    1    1    2    0    0  0.30424056484E+01 -0.43238716481E+02  0.21864528142E+01  0.43400730535E+02  0.00000000000E+00 0. -1.
         11    1    3    3    0    0 -0.82454740469E-01  0.72121961515E+01  0.56848157836E+01  0.91836650018E+01  0.51100000000E-03 0. -1.
        -11    1    3    3    0    0 -0.51637807484E+01  0.16350860817E+02 -0.77192800672E+01  0.18804323069E+02  0.51100000000E-03 0.  1.
         12    1    3    3    0    0  0.22038298405E+01  0.19675659513E+02 -0.15198853054E+00  0.19799281395E+02  0.00000000000E+00 0. -1.
</event>
<event>
 7    1  0.2706925E-010  0.4778727E+02  0.7816164E-02  0.1312668E+00
        -11   -1    0    0    0    0  0.00000000000E+00  0.00000000000E+00  0.45593999997E+02  0.45594000000E+02  0.51100000000E-03 0.  1.
         11   -1    0    0    0    0 -0.00000000000E+00 -0.00000000000E+00 -0.45593999997E+02  0.45594000000E+02  0.51100000000E-03 0. -1.
    9900012    2    1    2    0    0 -0.11267037973E+02 -0.38584671975E+02  0.16367658559E+02  0.47787270711E+02  0.19999998479E+02 0.  0.
         12    1    1    2    0    0  0.11267037973E+02  0.38584671975E+02 -0.16367658559E+02  0.43400729289E+02  0.00000000000E+00 0. -1.
         11    1    3    3    0    0 -0.10333782351E+01 -0.48313942143E+01  0.87007151838E+01  0.10005632694E+02  0.51100000000E-03 0. -1.
        -11    1    3    3    0    0 -0.58724310824E+01 -0.26775654388E+02  0.10080027453E+02  0.29206644251E+02  0.51100000000E-03 0.  1.
        -12    1    3    3    0    0 -0.43612286551E+01 -0.69776233731E+01 -0.24130840770E+01  0.85749937657E+01  0.00000000000E+00 0.  1.
</event>
<event>
 7    1  0.2706925E-010  0.4778727E+02  0.7816164E-02  0.1312668E+00
        -11   -1    0    0    0    0  0.00000000000E+00  0.00000000000E+00  0.45593999997E+02  0.45594000000E+02  0.51100000000E-03 0. -1.
         11   -1    0    0    0    0 -0.00000000000E+00 -0.00000000000E+00 -0.45593999997E+02  0.45594000000E+02  0.51100000000E-03 0.  1.
    9900012    2    1    2    0    0 -0.23123920097E+02 -0.26894484454E+02 -0.25011880748E+02  0.47787272434E+02  0.20000006334E+02 0.  0.
         12    1    1    2    0    0  0.23123920097E+02  0.26894484454E+02  0.25011880748E+02  0.43400727566E+02  0.00000000000E+00 0. -1.
         11    1    3    3    0    0 -0.21404798826E+02 -0.13668173779E+02 -0.20447871225E+02  0.32605211626E+02  0.51100000000E-03 0. -1.
        -11    1    3    3    0    0  0.84300154431E+00 -0.10903227595E+02 -0.41590185764E+01  0.11699934161E+02  0.51100000000E-03 0.  1.
         12    1    3    3    0    0 -0.25621228152E+01 -0.23230830804E+01 -0.40499094655E+00  0.34821266470E+01  0.00000000000E+00 0. -1.
</event>
<event>
 7    1  0.2706925E-010  0.4778728E+02  0.7816164E-02  0.1312668E+00
        -11   -1    0    0    0    0  0.00000000000E+00  0.00000000000E+00  0.45593999997E+02  0.45594000000E+02  0.51100000000E-03 0. -1.
         11   -1    0    0    0    0 -0.00000000000E+00 -0.00000000000E+00 -0.45593999997E+02  0.45594000000E+02  0.51100000000E-03 0.  1.
    9900012    2    1    2    0    0  0.13388161302E+01  0.12725405744E+02 -0.41471608602E+02  0.47787277656E+02  0.20000030143E+02 0.  0.
         12    1    1    2    0    0 -0.13388161302E+01 -0.12725405744E+02  0.41471608602E+02  0.43400722344E+02  0.00000000000E+00 0. -1.
         11    1    3    3    0    0  0.12600487223E+01 -0.13059919990E+01  0.10899186739E+00  0.18180256798E+01  0.51100000000E-03 0. -1.
        -11    1    3    3    0    0  0.61092057393E+01  0.10756700876E+02 -0.22262770139E+02  0.25468803329E+02  0.51100000000E-03 0.  1.
        -12    1    3    3    0    0 -0.60304383314E+01  0.32746968670E+01 -0.19317830330E+02  0.20500448647E+02  0.00000000000E+00 0.  1.
</event>
<event>
 7    1  0.2706925E-010  0.4778727E+02  0.7816164E-02  0.1312668E+00
        -11   -1    0    0    0    0  0.00000000000E+00  0.00000000000E+00  0.45593999997E+02  0.45594000000E+02  0.51100000000E-03 0. -1.
         11   -1    0    0    0    0 -0.00000000000E+00 -0.00000000000E+00 -0.45593999997E+02  0.45594000000E+02  0.51100000000E-03 0.  1.
    9900012    2    1    2    0    0 -0.32233895048E+02 -0.25750168808E+01 -0.28947689158E+02  0.47787269483E+02  0.19999992879E+02 0.  0.
         12    1    1    2    0    0  0.32233895048E+02  0.25750168808E+01  0.28947689158E+02  0.43400730517E+02  0.00000000000E+00 0. -1.
         11    1    3    3    0    0 -0.14552011249E+01  0.29896201728E+01  0.13305163111E+01  0.35813004631E+01  0.51100000000E-03 0. -1.
        -11    1    3    3    0    0 -0.19987825212E+02  0.17014830192E+00 -0.18816224079E+02  0.27451637401E+02  0.51100000000E-03 0.  1.
         12    1    3    3    0    0 -0.10790868711E+02 -0.57347853555E+01 -0.11461981390E+02  0.16754331619E+02  0.00000000000E+00 0. -1.
</event>
<event>
 7    1  0.2706925E-010  0.4778727E+02  0.7816164E-02  0.1312668E+00
        -11   -1    0    0    0    0  0.00000000000E+00  0.00000000000E+00  0.45593999997E+02  0.45594000000E+02  0.51100000000E-03 0. -1.
         11   -1    0    0    0    0 -0.00000000000E+00 -0.00000000000E+00 -0.45593999997E+02  0.45594000000E+02  0.51100000000E-03 0.  1.
    9900012    2    1    2    0    0  0.52640034282E+00 -0.41437285722E+02 -0.12895640678E+02  0.47787270814E+02  0.19999998951E+02 0.  0.
         12    1    1    2    0    0 -0.52640034282E+00  0.41437285722E+02  0.12895640678E+02  0.43400729186E+02  0.00000000000E+00 0. -1.
         11    1    3    3    0    0  0.31854119275E+01 -0.99996189313E+01 -0.49308332225E+01  0.11595358746E+02  0.51100000000E-03 0. -1.
        -11    1    3    3    0    0  0.26061670522E+01 -0.14650437035E+02 -0.10779567527E+02  0.18374615326E+02  0.51100000000E-03 0.  1.
        -12    1    3    3    0    0 -0.52651786369E+01 -0.16787229756E+02  0.28147600720E+01  0.17817296743E+02  0.00000000000E+00 0.  1.
</event>
<event>
 7    1  0.2706925E-010  0.4778727E+02  0.7816164E-02  0.1312668E+00
        -11   -1    0    0    0    0  0.00000000000E+00  0.00000000000E+00  0.45593999997E+02  0.45594000000E+02  0.51100000000E-03 0. -1.
         11   -1    0    0    0    0 -0.00000000000E+00 -0.00000000000E+00 -0.45593999997E+02  0.45594000000E+02  0.51100000000E-03 0.  1.
    9900012    2    1    2    0    0 -0.41528562677E+02 -0.51212196107E+01 -0.11522786956E+02  0.47787273882E+02  0.20000012938E+02 0.  0.
         12    1    1    2    0    0  0.41528562677E+02  0.51212196107E+01  0.11522786956E+02  0.43400726118E+02  0.00000000000E+00 0. -1.
         11    1    3    3    0    0 -0.17003239683E+02 -0.28976988488E+01  0.18654671291E+01  0.17348970753E+02  0.51100000000E-03 0. -1.
        -11    1    3    3    0    0 -0.21620293473E+02 -0.24242941832E+01 -0.15609127291E+02  0.26776092829E+02  0.51100000000E-03 0.  1.
        -12    1    3    3    0    0 -0.29050295219E+01  0.20077342131E+00  0.22208732055E+01  0.36622103005E+01  0.00000000000E+00 0.  1.
</event>
<event>
 7    1  0.2706925E-010  0.4778727E+02  0.7816164E-02  0.1312668E+00
        -11   -1    0    0    0    0  0.00000000000E+00  0.00000000000E+00  0.45593999997E+02  0.45594000000E+02  0.51100000000E-03 0.  1.
         11   -1    0    0    0    0 -0.00000000000E+00 -0.00000000000E+00 -0.45593999997E+02  0.45594000000E+02  0.51100000000E-03 0. -1.
    9900012    2    1    2    0    0 -0.22438263308E+02  0.26329971304E+02  0.26208401927E+02  0.47787269814E+02  0.19999994388E+02 0.  0.
         12    1    1    2    0    0  0.22438263308E+02 -0.26329971304E+02 -0.26208401927E+02  0.43400730186E+02  0.00000000000E+00 0. -1.
         11    1    3    3    0    0 -0.14427265688E+02  0.98861275898E+01  0.19823060751E+02  0.26435492273E+02  0.51100000000E-03 0. -1.
        -11    1    3    3    0    0 -0.83822991432E+01  0.97431765426E+01  0.69600835735E+01  0.14616264628E+02  0.51100000000E-03 0.  1.
         12    1    3    3    0    0  0.37130152305E+00  0.67006671716E+01 -0.57474239746E+00  0.67355129121E+01  0.00000000000E+00 0. -1.
</event>
<event>
 7    1  0.2706925E-010  0.4778727E+02  0.7816164E-02  0.1312668E+00
        -11   -1    0    0    0    0  0.00000000000E+00  0.00000000000E+00  0.45593999997E+02  0.45594000000E+02  0.51100000000E-03 0.  1.
         11   -1    0    0    0    0 -0.00000000000E+00 -0.00000000000E+00 -0.45593999997E+02  0.45594000000E+02  0.51100000000E-03 0. -1.
    9900012    2    1    2    0    0 -0.27692461803E+02 -0.20464571334E+02  0.26418781871E+02  0.47787272401E+02  0.20000006184E+02 0.  0.
         12    1    1    2    0    0  0.27692461803E+02  0.20464571334E+02 -0.26418781871E+02  0.43400727599E+02  0.00000000000E+00 0. -1.
         11    1    3    3    0    0 -0.28323287091E+01  0.37506060469E+01  0.20189851428E+01  0.51152158218E+01  0.51100000000E-03 0.  1.
        -11    1    3    3    0    0 -0.75280839815E+01 -0.46544505107E+01  0.68451519588E+01  0.11188925935E+02  0.51100000000E-03 0. -1.
         12    1    3    3    0    0 -0.17332049112E+02 -0.19560726870E+02  0.17554644769E+02  0.31483130643E+02  0.00000000000E+00 0. -1.
</event>
<event>
 7    1  0.2706925E-010  0.4778728E+02  0.7816164E-02  0.1312668E+00
        -11   -1    0    0    0    0  0.00000000000E+00  0.00000000000E+00  0.45593999997E+02  0.45594000000E+02  0.51100000000E-03 0.  1.
         11   -1    0    0    0    0 -0.00000000000E+00 -0.00000000000E+00 -0.45593999997E+02  0.45594000000E+02  0.51100000000E-03 0. -1.
    9900012    2    1    2    0    0 -0.19731188124E+02  0.20815407312E+01  0.38600131648E+02  0.47787276966E+02  0.20000026999E+02 0.  0.
         12    1    1    2    0    0  0.19731188124E+02 -0.20815407312E+01 -0.38600131648E+02  0.43400723034E+02  0.00000000000E+00 0. -1.
         11    1    3    3    0    0 -0.16158817149E+02  0.91386944993E+01  0.26096818801E+02  0.32026037229E+02  0.51100000000E-03 0. -1.
        -11    1    3    3    0    0 -0.55139668467E+00 -0.44707278978E+01  0.10236144053E+02  0.11183474039E+02  0.51100000000E-03 0.  1.
        -12    1    3    3    0    0 -0.30209742904E+01 -0.25864258703E+01  0.22671687941E+01  0.45777656982E+01  0.00000000000E+00 0.  1.
</event>
<event>
 7    1  0.2706925E-010  0.4778727E+02  0.7816164E-02  0.1312668E+00
        -11   -1    0    0    0    0  0.00000000000E+00  0.00000000000E+00  0.45593999997E+02  0.45594000000E+02  0.51100000000E-03 0. -1.
         11   -1    0    0    0    0 -0.00000000000E+00 -0.00000000000E+00 -0.45593999997E+02  0.45594000000E+02  0.51100000000E-03 0.  1.
    9900012    2    1    2    0    0 -0.40918932464E+02  0.11165346570E+02 -0.91977912259E+01  0.47787270035E+02  0.19999995398E+02 0.  0.
         12    1    1    2    0    0  0.40918932464E+02 -0.11165346570E+02  0.91977912259E+01  0.43400729965E+02  0.00000000000E+00 0. -1.
         11    1    3    3    0    0 -0.47074084892E+00  0.13779166530E+01 -0.44243645176E+01  0.46578163227E+01  0.51100000000E-03 0. -1.
        -11    1    3    3    0    0 -0.17798660904E+02  0.85942702812E+01 -0.52253212405E+01  0.20444016092E+02  0.51100000000E-03 0.  1.
         12    1    3    3    0    0 -0.22649530712E+02  0.11931596354E+01  0.45189453220E+00  0.22685437621E+02  0.00000000000E+00 0. -1.
</event>
<event>
 7    1  0.2706925E-010  0.4778727E+02  0.7816164E-02  0.1312668E+00
        -11   -1    0    0    0    0  0.00000000000E+00  0.00000000000E+00  0.45593999997E+02  0.45594000000E+02  0.51100000000E-03 0.  1.
         11   -1    0    0    0    0 -0.00000000000E+00 -0.00000000000E+00 -0.45593999997E+02  0.45594000000E+02  0.51100000000E-03 0. -1.
    9900012    2    1    2    0    0  0.28452548937E+02  0.32710623514E+02 -0.20225992739E+01  0.47787270288E+02  0.19999996553E+02 0.  0.
         12    1    1    2    0    0 -0.28452548937E+02 -0.32710623514E+02  0.20225992739E+01  0.43400729712E+02  0.00000000000E+00 0. -1.
         11    1    3    3    0    0 -0.11657788179E+01  0.26375744612E+01  0.21612281649E+01  0.36037129093E+01  0.51100000000E-03 0. -1.
        -11    1    3    3    0    0  0.28493229345E+02  0.26854762447E+02 -0.49038787244E+00  0.39157155989E+02  0.51100000000E-03 0.  1.
        -12    1    3    3    0    0  0.11250984095E+01  0.32182866058E+01 -0.36934395664E+01  0.50264013905E+01  0.00000000000E+00 0.  1.
</event>
<event>
 7    1  0.2706925E-010  0.4778725E+02  0.7816164E-02  0.1312668E+00
        -11   -1    0    0    0    0  0.00000000000E+00  0.00000000000E+00  0.45593999997E+02  0.45594000000E+02  0.51100000000E-03 0.  1.
         11   -1    0    0    0    0 -0.00000000000E+00 -0.00000000000E+00 -0.45593999997E+02  0.45594000000E+02  0.51100000000E-03 0. -1.
    9900012    2    1    2    0    0  0.48647339486E+01 -0.14994369472E+02  0.40436717550E+02  0.47787252558E+02  0.19999915713E+02 0.  0.
         12    1    1    2    0    0 -0.48647339486E+01  0.14994369472E+02 -0.40436717550E+02  0.43400747442E+02  0.00000000000E+00 0. -1.
         11    1    3    3    0    0 -0.17854455573E+01 -0.35884401337E+01  0.23850498949E+02  0.24184933715E+02  0.51100000000E-03 0. -1.
        -11    1    3    3    0    0  0.79826684868E+01 -0.57453712098E+01  0.59913962337E+01  0.11516471491E+02  0.51100000000E-03 0.  1.
         12    1    3    3    0    0 -0.13324889809E+01 -0.56605581288E+01  0.10594822368E+02  0.12085847352E+02  0.00000000000E+00 0. -1.
</event>
<event>
 7    1  0.2706925E-010  0.4778727E+02  0.7816164E-02  0.1312668E+00
        -11   -1    0    0    0    0  0.00000000000E+00  0.00000000000E+00  0.45593999997E+02  0.45594000000E+02  0.51100000000E-03 0.  1.
         11   -1    0    0    0    0 -0.00000000000E+00 -0.00000000000E+00 -0.45593999997E+02  0.45594000000E+02  0.51100000000E-03 0. -1.
    9900012    2    1    2    0    0  0.31599886670E+02 -0.29084245399E+02  0.62591794350E+01  0.47787268495E+02  0.19999988378E+02 0.  0.
         12    1    1    2    0    0 -0.31599886670E+02  0.29084245399E+02 -0.62591794350E+01  0.43400731505E+02  0.00000000000E+00 0. -1.
         11    1    3    3    0    0  0.52339359784E+01 -0.88684786626E+01  0.96822558866E+01  0.14134711845E+02  0.51100000000E-03 0. -1.
        -11    1    3    3    0    0  0.15839633563E+02 -0.14626152684E+02 -0.21916693265E+01  0.21670757911E+02  0.51100000000E-03 0.  1.
         12    1    3    3    0    0  0.10526317128E+02 -0.55896140524E+01 -0.12314071250E+01  0.11981798740E+02  0.00000000000E+00 0. -1.
</event>
<event>
 7    1  0.2706925E-010  0.4778727E+02  0.7816164E-02  0.1312668E+00
        -11   -1    0    0    0    0  0.00000000000E+00  0.00000000000E+00  0.45593999997E+02  0.45594000000E+02  0.51100000000E-03 0.  1.
         11   -1    0    0    0    0 -0.00000000000E+00 -0.00000000000E+00 -0.45593999997E+02  0.45594000000E+02  0.51100000000E-03 0. -1.
    9900012    2    1    2    0    0 -0.27862643084E+01 -0.10003857369E+02  0.42140040697E+02  0.47787268889E+02  0.19999990172E+02 0.  0.
         12    1    1    2    0    0  0.27862643084E+01  0.10003857369E+02 -0.42140040697E+02  0.43400731111E+02  0.00000000000E+00 0. -1.
         11    1    3    3    0    0  0.18558293161E+01 -0.70334762272E+01  0.41127522037E+01  0.83563521490E+01  0.51100000000E-03 0. -1.
        -11    1    3    3    0    0  0.10748225269E+01  0.17878470190E+01  0.16987012109E+02  0.17114620098E+02  0.51100000000E-03 0.  1.
         12    1    3    3    0    0 -0.57169161514E+01 -0.47582281603E+01  0.21040276384E+02  0.22316296642E+02  0.00000000000E+00 0. -1.
</event>
<event>
 7    1  0.2706925E-010  0.4778722E+02  0.7816164E-02  0.1312668E+00
        -11   -1    0    0    0    0  0.00000000000E+00  0.00000000000E+00  0.45593999997E+02  0.45594000000E+02  0.51100000000E-03 0.  1.
         11   -1    0    0    0    0 -0.00000000000E+00 -0.00000000000E+00 -0.45593999997E+02  0.45594000000E+02  0.51100000000E-03 0. -1.
    9900012    2    1    2    0    0 -0.43081469129E+02  0.47747452418E+01 -0.21947222319E+01  0.47787216826E+02  0.19999752796E+02 0.  0.
         12    1    1    2    0    0  0.43081469129E+02 -0.47747452418E+01  0.21947222319E+01  0.43400783174E+02  0.00000000000E+00 0. -1.
         11    1    3    3    0    0 -0.91309222653E+01 -0.62897020217E+01 -0.18111897988E+01  0.11234522762E+02  0.51100000000E-03 0. -1.
        -11    1    3    3    0    0 -0.24400384993E+02  0.51938353496E+01  0.22151217034E+01  0.25045188717E+02  0.51100000000E-03 0.  1.
         12    1    3    3    0    0 -0.95501618705E+01  0.58706119139E+01 -0.25986541365E+01  0.11507505347E+02  0.00000000000E+00 0. -1.
</event>
<event>
 7    1  0.2706925E-010  0.4778727E+02  0.7816164E-02  0.1312668E+00
        -11   -1    0    0    0    0  0.00000000000E+00  0.00000000000E+00  0.45593999997E+02  0.45594000000E+02  0.51100000000E-03 0.  1.
         11   -1    0    0    0    0 -0.00000000000E+00 -0.00000000000E+00 -0.45593999997E+02  0.45594000000E+02  0.51100000000E-03 0. -1.
    9900012    2    1    2    0    0  0.27360114770E+02  0.33689106253E+02 -0.30212405045E+00  0.47787273747E+02  0.20000012321E+02 0.  0.
         12    1    1    2    0    0 -0.27360114770E+02 -0.33689106253E+02  0.30212405045E+00  0.43400726253E+02  0.00000000000E+00 0. -1.
         11    1    3    3    0    0  0.10224310626E+02  0.72945648925E+01 -0.36151507324E+01  0.13069679408E+02  0.51100000000E-03 0. -1.
        -11    1    3    3    0    0  0.11813628718E+02  0.18947539466E+02  0.88514148916E+01  0.24019130316E+02  0.51100000000E-03 0.  1.
        -12    1    3    3    0    0  0.53221754270E+01  0.74470018946E+01 -0.55383882097E+01  0.10698464023E+02  0.00000000000E+00 0.  1.
</event>
<event>
 7    1  0.2706925E-010  0.4778727E+02  0.7816164E-02  0.1312668E+00
        -11   -1    0    0    0    0  0.00000000000E+00  0.00000000000E+00  0.45593999997E+02  0.45594000000E+02  0.51100000000E-03 0.  1.
         11   -1    0    0    0    0 -0.00000000000E+00 -0.00000000000E+00 -0.45593999997E+02  0.45594000000E+02  0.51100000000E-03 0. -1.
    9900012    2    1    2    0    0 -0.20623597616E+02 -0.36103781261E+02 -0.12442159441E+02  0.47787272684E+02  0.20000007477E+02 0.  0.
         12    1    1    2    0    0  0.20623597616E+02  0.36103781261E+02  0.12442159441E+02  0.43400727316E+02  0.00000000000E+00 0. -1.
         11    1    3    3    0    0 -0.52990927660E+01 -0.23457421201E+02 -0.48612934688E+01  0.24534937701E+02  0.51100000000E-03 0.  1.
        -11    1    3    3    0    0 -0.23208164149E+01 -0.39362859542E+00 -0.45601938235E+01  0.51319100023E+01  0.51100000000E-03 0. -1.
         12    1    3    3    0    0 -0.13003688435E+02 -0.12252731465E+02 -0.30206721487E+01  0.18120424981E+02  0.00000000000E+00 0. -1.
</event>
<event>
 7    1  0.2706925E-010  0.4778728E+02  0.7816164E-02  0.1312668E+00
        -11   -1    0    0    0    0  0.00000000000E+00  0.00000000000E+00  0.45593999997E+02  0.45594000000E+02  0.51100000000E-03 0.  1.
         11   -1    0    0    0    0 -0.00000000000E+00 -0.00000000000E+00 -0.45593999997E+02  0.45594000000E+02  0.51100000000E-03 0. -1.
    9900012    2    1    2    0    0  0.14994958002E+02  0.12732895285E+02  0.38686527155E+02  0.47787276836E+02  0.20000026408E+02 0.  0.
         12    1    1    2    0    0 -0.14994958002E+02 -0.12732895285E+02 -0.38686527155E+02  0.43400723164E+02  0.00000000000E+00 0. -1.
         11    1    3    3    0    0  0.20999082464E+01  0.12698301049E+01  0.78863108743E+00  0.25776001225E+01  0.51100000000E-03 0. -1.
        -11    1    3    3    0    0  0.65136389428E+01  0.82536806496E+00  0.14709993426E+01  0.67284889869E+01  0.51100000000E-03 0.  1.
        -12    1    3    3    0    0  0.63814108127E+01  0.10637697115E+02  0.36426896725E+02  0.38481187727E+02  0.00000000000E+00 0.  1.
</event>
<event>
 7    1  0.2706925E-010  0.4778727E+02  0.7816164E-02  0.1312668E+00
        -11   -1    0    0    0    0  0.00000000000E+00  0.00000000000E+00  0.45593999997E+02  0.45594000000E+02  0.51100000000E-03 0.  1.
         11   -1    0    0    0    0 -0.00000000000E+00 -0.00000000000E+00 -0.45593999997E+02  0.45594000000E+02  0.51100000000E-03 0. -1.
    9900012    2    1    2    0    0  0.62034883805E+01  0.45172590536E+01  0.42716910152E+02  0.47787270624E+02  0.19999998084E+02 0.  0.
         12    1    1    2    0    0 -0.62034883805E+01 -0.45172590536E+01 -0.42716910152E+02  0.43400729376E+02  0.00000000000E+00 0. -1.
         11    1    3    3    0    0 -0.68085536365E+01  0.38807828572E+01  0.12238508207E+02  0.14532651568E+02  0.51100000000E-03 0. -1.
        -11    1    3    3    0    0  0.49060610812E+01  0.63284915648E+00  0.85766299923E+01  0.99009350909E+01  0.51100000000E-03 0.  1.
         12    1    3    3    0    0  0.81059809358E+01  0.36270399149E-02  0.21901771953E+02  0.23353683966E+02  0.00000000000E+00 0. -1.
</event>
<event>
 7    1  0.2706925E-010  0.4778727E+02  0.7816164E-02  0.1312668E+00
        -11   -1    0    0    0    0  0.00000000000E+00  0.00000000000E+00  0.45593999997E+02  0.45594000000E+02  0.51100000000E-03 0. -1.
         11   -1    0    0    0    0 -0.00000000000E+00 -0.00000000000E+00 -0.45593999997E+02  0.45594000000E+02  0.51100000000E-03 0.  1.
    9900012    2    1    2    0    0  0.85732264996E+01  0.39579464109E+02 -0.15607339078E+02  0.47787271609E+02  0.20000002572E+02 0.  0.
         12    1    1    2    0    0 -0.85732264996E+01 -0.39579464109E+02  0.15607339078E+02  0.43400728391E+02  0.00000000000E+00 0. -1.
         11    1    3    3    0    0 -0.86659589525E+00  0.23513268514E+01  0.24967084427E+01  0.35374114429E+01  0.51100000000E-03 0. -1.
        -11    1    3    3    0    0  0.87379698799E+01  0.38077255533E+02 -0.18283512730E+02  0.43133703116E+02  0.51100000000E-03 0.  1.
        -12    1    3    3    0    0  0.70185251496E+00 -0.84911827475E+00  0.17946520901E+00  0.11161570492E+01  0.00000000000E+00 0.  1.
</event>
<event>
 7    1  0.2706925E-010  0.4778727E+02  0.7816164E-02  0.1312668E+00
        -11   -1    0    0    0    0  0.00000000000E+00  0.00000000000E+00  0.45593999997E+02  0.45594000000E+02  0.51100000000E-03 0.  1.
         11   -1    0    0    0    0 -0.00000000000E+00 -0.00000000000E+00 -0.45593999997E+02  0.45594000000E+02  0.51100000000E-03 0. -1.
    9900012    2    1    2    0    0  0.11420692215E+02  0.33016039607E+02 -0.25751357632E+02  0.47787268417E+02  0.19999988021E+02 0.  0.
         12    1    1    2    0    0 -0.11420692215E+02 -0.33016039607E+02  0.25751357632E+02  0.43400731583E+02  0.00000000000E+00 0. -1.
         11    1    3    3    0    0 -0.25370207079E+00  0.55560036542E+01 -0.81333345133E+01  0.98531554292E+01  0.51100000000E-03 0. -1.
        -11    1    3    3    0    0  0.64010642386E+01  0.23181942316E+01 -0.79977336229E+01  0.10502922986E+02  0.51100000000E-03 0.  1.
        -12    1    3    3    0    0  0.52733300472E+01  0.25141841722E+02 -0.96202894961E+01  0.27431190002E+02  0.00000000000E+00 0.  1.
</event>
<event>
 7    1  0.2706925E-010  0.4778727E+02  0.7816164E-02  0.1312668E+00
        -11   -1    0    0    0    0  0.00000000000E+00  0.00000000000E+00  0.45593999997E+02  0.45594000000E+02  0.51100000000E-03 0.  1.
         11   -1    0    0    0    0 -0.00000000000E+00 -0.00000000000E+00 -0.45593999997E+02  0.45594000000E+02  0.51100000000E-03 0. -1.
    9900012    2    1    2    0    0 -0.79982184298E+01  0.42645728104E+02  0.99690768579E+00  0.47787269033E+02  0.19999990827E+02 0.  0.
         12    1    1    2    0    0  0.79982184298E+01 -0.42645728104E+02 -0.99690768579E+00  0.43400730967E+02  0.00000000000E+00 0. -1.
         11    1    3    3    0    0 -0.20089822778E+01  0.13448726332E+01 -0.86609802685E+00  0.25680378200E+01  0.51100000000E-03 0. -1.
        -11    1    3    3    0    0 -0.11064196619E+02  0.28128354068E+02  0.53078878295E+01  0.30688669291E+02  0.51100000000E-03 0.  1.
        -12    1    3    3    0    0  0.50749604671E+01  0.13172501403E+02 -0.34448821168E+01  0.14530561921E+02  0.00000000000E+00 0.  1.
</event>
<event>
 7    1  0.2706925E-010  0.4778727E+02  0.7816164E-02  0.1312668E+00
        -11   -1    0    0    0    0  0.00000000000E+00  0.00000000000E+00  0.45593999997E+02  0.45594000000E+02  0.51100000000E-03 0.  1.
         11   -1    0    0    0    0 -0.00000000000E+00 -0.00000000000E+00 -0.45593999997E+02  0.45594000000E+02  0.51100000000E-03 0. -1.
    9900012    2    1    2    0    0  0.18130937050E+02  0.14356384773E+02  0.36725827437E+02  0.47787273474E+02  0.20000011077E+02 0.  0.
         12    1    1    2    0    0 -0.18130937050E+02 -0.14356384773E+02 -0.36725827437E+02  0.43400726526E+02  0.00000000000E+00 0. -1.
         11    1    3    3    0    0  0.71040905429E+01  0.11406385337E+02  0.18499261083E+02  0.22864741192E+02  0.51100000000E-03 0. -1.
        -11    1    3    3    0    0  0.12537551780E+02 -0.11321379679E+01  0.12626016114E+02  0.17829420186E+02  0.51100000000E-03 0.  1.
        -12    1    3    3    0    0 -0.15107052735E+01  0.40821374037E+01  0.56005502399E+01  0.70931120952E+01  0.00000000000E+00 0.  1.
</event>
<event>
 7    1  0.2706925E-010  0.4778727E+02  0.7816164E-02  0.1312668E+00
        -11   -1    0    0    0    0  0.00000000000E+00  0.00000000000E+00  0.45593999997E+02  0.45594000000E+02  0.51100000000E-03 0.  1.
         11   -1    0    0    0    0 -0.00000000000E+00 -0.00000000000E+00 -0.45593999997E+02  0.45594000000E+02  0.51100000000E-03 0. -1.
    9900012    2    1    2    0    0  0.59181370948E+01  0.42857368803E+02  0.34416341575E+01  0.47787271284E+02  0.20000001093E+02 0.  0.
         12    1    1    2    0    0 -0.59181370948E+01 -0.42857368803E+02 -0.34416341575E+01  0.43400728716E+02  0.00000000000E+00 0. -1.
         11    1    3    3    0    0  0.70120216962E+01  0.32922669944E+02 -0.20833073696E+01  0.33725521706E+02  0.51100000000E-03 0. -1.
        -11    1    3    3    0    0 -0.54072133210E+00 -0.14423485605E+01  0.64899997924E+00  0.16715113410E+01  0.51100000000E-03 0.  1.
        -12    1    3    3    0    0 -0.55316326925E+00  0.11377047420E+02  0.48759415479E+01  0.12390238237E+02  0.00000000000E+00 0.  1.
</event>
<event>
 7    1  0.2706925E-010  0.4778727E+02  0.7816164E-02  0.1312668E+00
        -11   -1    0    0    0    0  0.00000000000E+00  0.00000000000E+00  0.45593999997E+02  0.45594000000E+02  0.51100000000E-03 0.  1.
         11   -1    0    0    0    0 -0.00000000000E+00 -0.00000000000E+00 -0.45593999997E+02  0.45594000000E+02  0.51100000000E-03 0. -1.
    9900012    2    1    2    0    0 -0.13911858548E+01 -0.36102229654E+02  0.24048223999E+02  0.47787268882E+02  0.19999990140E+02 0.  0.
         12    1    1    2    0    0  0.13911858548E+01  0.36102229654E+02 -0.24048223999E+02  0.43400731118E+02  0.00000000000E+00 0. -1.
         11    1    3    3    0    0  0.40264054706E+01 -0.89794252903E+01  0.37481948899E+01  0.10530478847E+02  0.51100000000E-03 0. -1.
        -11    1    3    3    0    0 -0.81441686567E+01 -0.27318900607E+02  0.18521282679E+02  0.33995407422E+02  0.51100000000E-03 0.  1.
        -12    1    3    3    0    0  0.27265773313E+01  0.19609624346E+00  0.17787464304E+01  0.32613826123E+01  0.00000000000E+00 0.  1.
</event>
<event>
 7    1  0.2706925E-010  0.4778727E+02  0.7816164E-02  0.1312668E+00
        -11   -1    0    0    0    0  0.00000000000E+00  0.00000000000E+00  0.45593999997E+02  0.45594000000E+02  0.51100000000E-03 0. -1.
         11   -1    0    0    0    0 -0.00000000000E+00 -0.00000000000E+00 -0.45593999997E+02  0.45594000000E+02  0.51100000000E-03 0.  1.
    9900012    2    1    2    0    0 -0.37084859994E+02 -0.15833681529E+01 -0.22490650693E+02  0.47787271157E+02  0.20000000515E+02 0.  0.
         12    1    1    2    0    0  0.37084859994E+02  0.15833681529E+01  0.22490650693E+02  0.43400728843E+02  0.00000000000E+00 0. -1.
         11    1    3    3    0    0 -0.18643598624E+02 -0.90077047028E+01 -0.54763004376E+01  0.21417571767E+02  0.51100000000E-03 0. -1.
        -11    1    3    3    0    0 -0.29583556123E+01  0.68991766611E+00 -0.12997836338E+01  0.33041325746E+01  0.51100000000E-03 0.  1.
         12    1    3    3    0    0 -0.15482905758E+02  0.67344188838E+01 -0.15714566622E+02  0.23065566816E+02  0.00000000000E+00 0. -1.
</event>
<event>
 7    1  0.2706925E-010  0.4778727E+02  0.7816164E-02  0.1312668E+00
        -11   -1    0    0    0    0  0.00000000000E+00  0.00000000000E+00  0.45593999997E+02  0.45594000000E+02  0.51100000000E-03 0. -1.
         11   -1    0    0    0    0 -0.00000000000E+00 -0.00000000000E+00 -0.45593999997E+02  0.45594000000E+02  0.51100000000E-03 0.  1.
    9900012    2    1    2    0    0 -0.15219536248E+02  0.39747558601E+02  0.84923735905E+01  0.47787272961E+02  0.20000008737E+02 0.  0.
         12    1    1    2    0    0  0.15219536248E+02 -0.39747558601E+02 -0.84923735905E+01  0.43400727039E+02  0.00000000000E+00 0. -1.
         11    1    3    3    0    0 -0.68287498216E+01  0.17150577500E+01  0.36945982906E+01  0.79513083201E+01  0.51100000000E-03 0. -1.
        -11    1    3    3    0    0 -0.84652798302E+01  0.38296225575E+02  0.49342031504E+01  0.39529839575E+02  0.51100000000E-03 0.  1.
        -12    1    3    3    0    0  0.74493403776E-01 -0.26372472377E+00 -0.13642785058E+00  0.30612506521E+00  0.00000000000E+00 0.  1.
</event>
<event>
 7    1  0.2706925E-010  0.4778728E+02  0.7816164E-02  0.1312668E+00
        -11   -1    0    0    0    0  0.00000000000E+00  0.00000000000E+00  0.45593999997E+02  0.45594000000E+02  0.51100000000E-03 0.  1.
         11   -1    0    0    0    0 -0.00000000000E+00 -0.00000000000E+00 -0.45593999997E+02  0.45594000000E+02  0.51100000000E-03 0. -1.
    9900012    2    1    2    0    0  0.31230748985E+02  0.57115356673E+01  0.29591239453E+02  0.47787276801E+02  0.20000026245E+02 0.  0.
         12    1    1    2    0    0 -0.31230748985E+02 -0.57115356673E+01 -0.29591239453E+02  0.43400723199E+02  0.00000000000E+00 0. -1.
         11    1    3    3    0    0  0.62078682413E+01  0.29258501084E+01 -0.85649856045E+00  0.69160550174E+01  0.51100000000E-03 0. -1.
        -11    1    3    3    0    0  0.10040567490E+02  0.22294840385E+01  0.52427506711E+01  0.11544263920E+02  0.51100000000E-03 0.  1.
         12    1    3    3    0    0  0.14982313254E+02  0.55620152040E+00  0.25204987343E+02  0.29326957863E+02  0.00000000000E+00 0. -1.
</event>
<event>
 7    1  0.2706925E-010  0.4778727E+02  0.7816164E-02  0.1312668E+00
        -11   -1    0    0    0    0  0.00000000000E+00  0.00000000000E+00  0.45593999997E+02  0.45594000000E+02  0.51100000000E-03 0. -1.
         11   -1    0    0    0    0 -0.00000000000E+00 -0.00000000000E+00 -0.45593999997E+02  0.45594000000E+02  0.51100000000E-03 0.  1.
    9900012    2    1    2    0    0  0.22158100019E+02 -0.26416514131E+02 -0.26359243701E+02  0.47787270239E+02  0.19999996327E+02 0.  0.
         12    1    1    2    0    0 -0.22158100019E+02  0.26416514131E+02  0.26359243701E+02  0.43400729761E+02  0.00000000000E+00 0. -1.
         11    1    3    3    0    0 -0.59518667553E+00 -0.21406211250E+01  0.20874723919E+01  0.30486139847E+01  0.51100000000E-03 0. -1.
        -11    1    3    3    0    0  0.15496656422E+02 -0.21000777321E+02 -0.24720533901E+02  0.35948349127E+02  0.51100000000E-03 0.  1.
        -12    1    3    3    0    0  0.72566302726E+01 -0.32751156854E+01 -0.37261821919E+01  0.87903071274E+01  0.00000000000E+00 0.  1.
</event>
<event>
 7    1  0.2706925E-010  0.4778727E+02  0.7816164E-02  0.1312668E+00
        -11   -1    0    0    0    0  0.00000000000E+00  0.00000000000E+00  0.45593999997E+02  0.45594000000E+02  0.51100000000E-03 0.  1.
         11   -1    0    0    0    0 -0.00000000000E+00 -0.00000000000E+00 -0.45593999997E+02  0.45594000000E+02  0.51100000000E-03 0. -1.
    9900012    2    1    2    0    0  0.18863321566E+01  0.50526975019E+01  0.43064316273E+02  0.47787270316E+02  0.19999996678E+02 0.  0.
         12    1    1    2    0    0 -0.18863321566E+01 -0.50526975019E+01 -0.43064316273E+02  0.43400729684E+02  0.00000000000E+00 0. -1.
         11    1    3    3    0    0 -0.19259254022E+01  0.22357608483E+01  0.33175301570E+02  0.33306282436E+02  0.51100000000E-03 0. -1.
        -11    1    3    3    0    0  0.25657261170E+01 -0.19204533052E+01  0.89322390175E+01  0.94897832184E+01  0.51100000000E-03 0.  1.
         12    1    3    3    0    0  0.12465314418E+01  0.47373899588E+01  0.95677568585E+00  0.49912046612E+01  0.00000000000E+00 0. -1.
</event>
<event>
 7    1  0.2706925E-010  0.4778727E+02  0.7816164E-02  0.1312668E+00
        -11   -1    0    0    0    0  0.00000000000E+00  0.00000000000E+00  0.45593999997E+02  0.45594000000E+02  0.51100000000E-03 0. -1.
         11   -1    0    0    0    0 -0.00000000000E+00 -0.00000000000E+00 -0.45593999997E+02  0.45594000000E+02  0.51100000000E-03 0.  1.
    9900012    2    1    2    0    0 -0.32783292829E+02  0.26605416660E+02 -0.10051411813E+02  0.47787270009E+02  0.19999995277E+02 0.  0.
         12    1    1    2    0    0  0.32783292829E+02 -0.26605416660E+02  0.10051411813E+02  0.43400729991E+02  0.00000000000E+00 0. -1.
         11    1    3    3    0    0 -0.10272538225E+02  0.15916279036E+02 -0.11781837348E+02  0.22308399124E+02  0.51100000000E-03 0. -1.
        -11    1    3    3    0    0 -0.22695485751E+02  0.10377074541E+02  0.19874975317E+01  0.25034354320E+02  0.51100000000E-03 0.  1.
        -12    1    3    3    0    0  0.18473114741E+00  0.31206308292E+00 -0.25707199651E+00  0.44451656429E+00  0.00000000000E+00 0.  1.
</event>
<event>
 7    1  0.2706925E-010  0.4778727E+02  0.7816164E-02  0.1312668E+00
        -11   -1    0    0    0    0  0.00000000000E+00  0.00000000000E+00  0.45593999997E+02  0.45594000000E+02  0.51100000000E-03 0.  1.
         11   -1    0    0    0    0 -0.00000000000E+00 -0.00000000000E+00 -0.45593999997E+02  0.45594000000E+02  0.51100000000E-03 0. -1.
    9900012    2    1    2    0    0 -0.25797079475E+02 -0.78541586383E+01  0.34006561086E+02  0.47787270580E+02  0.19999997881E+02 0.  0.
         12    1    1    2    0    0  0.25797079475E+02  0.78541586383E+01 -0.34006561086E+02  0.43400729420E+02  0.00000000000E+00 0. -1.
         11    1    3    3    0    0  0.13280912975E+00  0.24633768033E+01  0.61061758612E+01  0.65856850402E+01  0.51100000000E-03 0. -1.
        -11    1    3    3    0    0 -0.80606380392E+01 -0.89035772929E+01  0.80659741004E+01  0.14467463933E+02  0.51100000000E-03 0.  1.
        -12    1    3    3    0    0 -0.17869250565E+02 -0.14139581486E+01  0.19834411124E+02  0.26734121606E+02  0.00000000000E+00 0.  1.
</event>
<event>
 7    1  0.3582810E-010  0.4778727E+02  0.7816164E-02  0.1312668E+00
        -11   -1    0    0    0    0  0.00000000000E+00  0.00000000000E+00  0.45593999997E+02  0.45594000000E+02  0.51100000000E-03 0.  1.
         11   -1    0    0    0    0 -0.00000000000E+00 -0.00000000000E+00 -0.45593999997E+02  0.45594000000E+02  0.51100000000E-03 0. -1.
    9900012    2    1    2    0    0 -0.31829797733E+02  0.21766097182E+01  0.29423622965E+02  0.47787271411E+02  0.20000001674E+02 0.  0.
         12    1    1    2    0    0  0.31829797733E+02 -0.21766097182E+01 -0.29423622965E+02  0.43400728589E+02  0.00000000000E+00 0. -1.
         11    1    3    3    0    0 -0.12002537390E+01  0.70092402792E+00 -0.64568725337E+00  0.15325846864E+01  0.51100000000E-03 0. -1.
        -11    1    3    3    0    0  0.15512628137E+01 -0.22654885420E+01  0.25409310984E+01  0.37410140015E+01  0.51100000000E-03 0.  1.
        -12    1    3    3    0    0 -0.32180806808E+02  0.37411742323E+01  0.27528379120E+02  0.42513672724E+02  0.00000000000E+00 0.  1.
</event>
<event>
 7    1  0.2706925E-010  0.4778727E+02  0.7816164E-02  0.1312668E+00
        -11   -1    0    0    0    0  0.00000000000E+00  0.00000000000E+00  0.45593999997E+02  0.45594000000E+02  0.51100000000E-03 0.  1.
         11   -1    0    0    0    0 -0.00000000000E+00 -0.00000000000E+00 -0.45593999997E+02  0.45594000000E+02  0.51100000000E-03 0. -1.
    9900012    2    1    2    0    0 -0.10120940367E+02 -0.42163067142E+02  0.18615452753E+01  0.47787274021E+02  0.20000013571E+02 0.  0.
         12    1    1    2    0    0  0.10120940367E+02  0.42163067142E+02 -0.18615452753E+01  0.43400725979E+02  0.00000000000E+00 0. -1.
         11    1    3    3    0    0 -0.11788563465E+02 -0.36345145342E+02  0.33340530914E+01  0.38354344328E+02  0.51100000000E-03 0.  1.
        -11    1    3    3    0    0 -0.44260150333E+00 -0.69082962648E+01 -0.13613391536E+01  0.70550476912E+01  0.51100000000E-03 0. -1.
         12    1    3    3    0    0  0.21102246016E+01  0.10903744655E+01 -0.11116866248E+00  0.23778820021E+01  0.00000000000E+00 0. -1.
</event>
<event>
 7    1  0.2706925E-010  0.4778727E+02  0.7816164E-02  0.1312668E+00
        -11   -1    0    0    0    0  0.00000000000E+00  0.00000000000E+00  0.45593999997E+02  0.45594000000E+02  0.51100000000E-03 0.  1.
         11   -1    0    0    0    0 -0.00000000000E+00 -0.00000000000E+00 -0.45593999997E+02  0.45594000000E+02  0.51100000000E-03 0. -1.
    9900012    2    1    2    0    0 -0.29955147541E+02  0.12178370107E+02  0.28948219221E+02  0.47787274675E+02  0.20000016555E+02 0.  0.
         12    1    1    2    0    0  0.29955147541E+02 -0.12178370107E+02 -0.28948219221E+02  0.43400725325E+02  0.00000000000E+00 0. -1.
         11    1    3    3    0    0 -0.12866794379E+02  0.82456281012E+01  0.20331135091E+02  0.25434225656E+02  0.51100000000E-03 0. -1.
        -11    1    3    3    0    0 -0.92335783435E+01 -0.33272418464E+01  0.29502039144E+01  0.10248571155E+02  0.51100000000E-03 0.  1.
        -12    1    3    3    0    0 -0.78547748181E+01  0.72599838522E+01  0.56668802149E+01  0.12104477864E+02  0.00000000000E+00 0.  1.
</event>
<event>
 7    1  0.2706925E-010  0.4778727E+02  0.7816164E-02  0.1312668E+00
        -11   -1    0    0    0    0  0.00000000000E+00  0.00000000000E+00  0.45593999997E+02  0.45594000000E+02  0.51100000000E-03 0. -1.
         11   -1    0    0    0    0 -0.00000000000E+00 -0.00000000000E+00 -0.45593999997E+02  0.45594000000E+02  0.51100000000E-03 0.  1.
    9900012    2    1    2    0    0  0.35179969244E+02  0.39778281140E+00 -0.25413277759E+02  0.47787272430E+02  0.20000006315E+02 0.  0.
         12    1    1    2    0    0 -0.35179969244E+02 -0.39778281140E+00  0.25413277759E+02  0.43400727570E+02  0.00000000000E+00 0. -1.
         11    1    3    3    0    0  0.37805405180E+01 -0.37230176524E+01  0.13019640989E+01  0.54633742160E+01  0.51100000000E-03 0. -1.
        -11    1    3    3    0    0  0.11687227142E+02 -0.24862207639E+01 -0.82766830787E+01  0.14535338145E+02  0.51100000000E-03 0.  1.
         12    1    3    3    0    0  0.19712201584E+02  0.66070212277E+01 -0.18438558780E+02  0.27788560068E+02  0.00000000000E+00 0. -1.
</event>
<event>
 7    1  0.2706925E-010  0.4778727E+02  0.7816164E-02  0.1312668E+00
        -11   -1    0    0    0    0  0.00000000000E+00  0.00000000000E+00  0.45593999997E+02  0.45594000000E+02  0.51100000000E-03 0.  1.
         11   -1    0    0    0    0 -0.00000000000E+00 -0.00000000000E+00 -0.45593999997E+02  0.45594000000E+02  0.51100000000E-03 0. -1.
    9900012    2    1    2    0    0  0.19330131216E+02  0.28770962613E+02 -0.26118979203E+02  0.47787270316E+02  0.19999996677E+02 0.  0.
         12    1    1    2    0    0 -0.19330131216E+02 -0.28770962613E+02  0.26118979203E+02  0.43400729684E+02  0.00000000000E+00 0. -1.
         11    1    3    3    0    0  0.33737483049E+01 -0.46899709156E+00 -0.10184171495E+02  0.10738691037E+02  0.51100000000E-03 0. -1.
        -11    1    3    3    0    0  0.57366651370E+01  0.13252072924E+02 -0.60970952164E+01  0.15674863126E+02  0.51100000000E-03 0.  1.
         12    1    3    3    0    0  0.10219717774E+02  0.15987886781E+02 -0.98377124922E+01  0.21373716153E+02  0.00000000000E+00 0. -1.
</event>
<event>
 7    1  0.2706925E-010  0.4778727E+02  0.7816164E-02  0.1312668E+00
        -11   -1    0    0    0    0  0.00000000000E+00  0.00000000000E+00  0.45593999997E+02  0.45594000000E+02  0.51100000000E-03 0.  1.
         11   -1    0    0    0    0 -0.00000000000E+00 -0.00000000000E+00 -0.45593999997E+02  0.45594000000E+02  0.51100000000E-03 0. -1.
    9900012    2    1    2    0    0 -0.40547203927E+02  0.84413150822E+01 -0.12972726777E+02  0.47787272049E+02  0.20000004581E+02 0.  0.
         12    1    1    2    0    0  0.40547203927E+02 -0.84413150822E+01  0.12972726777E+02  0.43400727951E+02  0.00000000000E+00 0. -1.
         11    1    3    3    0    0  0.43866478946E+00 -0.99698177911E+00  0.66989106168E+00  0.12787313092E+01  0.51100000000E-03 0. -1.
        -11    1    3    3    0    0 -0.10315213686E+01  0.15923711469E+01  0.21214011674E+01  0.28460543525E+01  0.51100000000E-03 0.  1.
        -12    1    3    3    0    0 -0.39954347348E+02  0.78459257144E+01 -0.15764019006E+02  0.43662486388E+02  0.00000000000E+00 0.  1.
</event>
<event>
 7    1  0.2706925E-010  0.4778728E+02  0.7816164E-02  0.1312668E+00
        -11   -1    0    0    0    0  0.00000000000E+00  0.00000000000E+00  0.45593999997E+02  0.45594000000E+02  0.51100000000E-03 0. -1.
         11   -1    0    0    0    0 -0.00000000000E+00 -0.00000000000E+00 -0.45593999997E+02  0.45594000000E+02  0.51100000000E-03 0.  1.
    9900012    2    1    2    0    0 -0.16095223281E+02 -0.38062659087E+02 -0.13258977440E+02  0.47787277518E+02  0.20000029515E+02 0.  0.
         12    1    1    2    0    0  0.16095223281E+02  0.38062659087E+02  0.13258977440E+02  0.43400722482E+02  0.00000000000E+00 0. -1.
         11    1    3    3    0    0 -0.35762843416E+01 -0.12253758811E+02  0.21442634599E+01  0.12943812450E+02  0.51100000000E-03 0. -1.
        -11    1    3    3    0    0 -0.66223402294E+01 -0.19696035982E+02 -0.16149761463E+02  0.26317371052E+02  0.51100000000E-03 0.  1.
        -12    1    3    3    0    0 -0.58965987101E+01 -0.61128642935E+01  0.74652056263E+00  0.85260940159E+01  0.00000000000E+00 0.  1.
</event>
<event>
 7    1  0.2706925E-010  0.4778727E+02  0.7816164E-02  0.1312668E+00
        -11   -1    0    0    0    0  0.00000000000E+00  0.00000000000E+00  0.45593999997E+02  0.45594000000E+02  0.51100000000E-03 0.  1.
         11   -1    0    0    0    0 -0.00000000000E+00 -0.00000000000E+00 -0.45593999997E+02  0.45594000000E+02  0.51100000000E-03 0. -1.
    9900012    2    1    2    0    0 -0.22643412670E+02  0.22086097708E+02  0.29717054462E+02  0.47787272182E+02  0.20000005186E+02 0.  0.
         12    1    1    2    0    0  0.22643412670E+02 -0.22086097708E+02 -0.29717054462E+02  0.43400727818E+02  0.00000000000E+00 0. -1.
         11    1    3    3    0    0 -0.68812003350E+01  0.12835720987E+02  0.18005714515E+02  0.23158419781E+02  0.51100000000E-03 0. -1.
        -11    1    3    3    0    0 -0.16640872868E+02  0.97009968164E+01  0.81189877599E+01  0.20903252176E+02  0.51100000000E-03 0.  1.
         12    1    3    3    0    0  0.87866053291E+00 -0.45062009557E+00  0.35923521865E+01  0.37256002247E+01  0.00000000000E+00 0. -1.
</event>
<event>
 7    1  0.2706925E-010  0.4778727E+02  0.7816164E-02  0.1312668E+00
        -11   -1    0    0    0    0  0.00000000000E+00  0.00000000000E+00  0.45593999997E+02  0.45594000000E+02  0.51100000000E-03 0.  1.
         11   -1    0    0    0    0 -0.00000000000E+00 -0.00000000000E+00 -0.45593999997E+02  0.45594000000E+02  0.51100000000E-03 0. -1.
    9900012    2    1    2    0    0 -0.40356922807E+02 -0.81467787038E+01 -0.13732156704E+02  0.47787270174E+02  0.19999996030E+02 0.  0.
         12    1    1    2    0    0  0.40356922807E+02  0.81467787038E+01  0.13732156704E+02  0.43400729826E+02  0.00000000000E+00 0. -1.
         11    1    3    3    0    0 -0.22513058786E+02 -0.44498011893E+01 -0.16815832990E+02  0.28450145623E+02  0.51100000000E-03 0. -1.
        -11    1    3    3    0    0 -0.10131778746E+02 -0.48084813114E+01  0.27030067014E+01  0.11536059924E+02  0.51100000000E-03 0.  1.
        -12    1    3    3    0    0 -0.77120852750E+01  0.11115037969E+01  0.38066958550E+00  0.78010646268E+01  0.00000000000E+00 0.  1.
</event>
<event>
 7    1  0.2706925E-010  0.4778727E+02  0.7816164E-02  0.1312668E+00
        -11   -1    0    0    0    0  0.00000000000E+00  0.00000000000E+00  0.45593999997E+02  0.45594000000E+02  0.51100000000E-03 0.  1.
         11   -1    0    0    0    0 -0.00000000000E+00 -0.00000000000E+00 -0.45593999997E+02  0.45594000000E+02  0.51100000000E-03 0. -1.
    9900012    2    1    2    0    0 -0.18554244435E+02  0.30867869760E+02  0.24218547869E+02  0.47787269235E+02  0.19999991748E+02 0.  0.
         12    1    1    2    0    0  0.18554244435E+02 -0.30867869760E+02 -0.24218547869E+02  0.43400730765E+02  0.00000000000E+00 0. -1.
         11    1    3    3    0    0 -0.25546066920E+01  0.58724668915E+01 -0.77631727613E+00  0.64509341585E+01  0.51100000000E-03 0. -1.
        -11    1    3    3    0    0 -0.13037072197E+02  0.21877609925E+02  0.26524540476E+02  0.36771542193E+02  0.51100000000E-03 0.  1.
        -12    1    3    3    0    0 -0.29625655458E+01  0.31177929429E+01 -0.15296753307E+01  0.45647928831E+01  0.00000000000E+00 0.  1.
</event>
<event>
 7    1  0.2706925E-010  0.4778727E+02  0.7816164E-02  0.1312668E+00
        -11   -1    0    0    0    0  0.00000000000E+00  0.00000000000E+00  0.45593999997E+02  0.45594000000E+02  0.51100000000E-03 0. -1.
         11   -1    0    0    0    0 -0.00000000000E+00 -0.00000000000E+00 -0.45593999997E+02  0.45594000000E+02  0.51100000000E-03 0.  1.
    9900012    2    1    2    0    0 -0.22037002046E+02 -0.34707309019E+02  0.13906702446E+02  0.47787272686E+02  0.20000007482E+02 0.  0.
         12    1    1    2    0    0  0.22037002046E+02  0.34707309019E+02 -0.13906702446E+02  0.43400727314E+02  0.00000000000E+00 0. -1.
         11    1    3    3    0    0 -0.73131948786E+01 -0.32825429455E+01 -0.18285830047E+01  0.82220206511E+01  0.51100000000E-03 0. -1.
        -11    1    3    3    0    0 -0.13804371471E+02 -0.27037020886E+02  0.93521844434E+01  0.31765146375E+02  0.51100000000E-03 0.  1.
        -12    1    3    3    0    0 -0.91943569642E+00 -0.43877451870E+01  0.63831010073E+01  0.78001056592E+01  0.00000000000E+00 0.  1.
</event>
<event>
 7    1  0.2706925E-010  0.4778727E+02  0.7816164E-02  0.1312668E+00
        -11   -1    0    0    0    0  0.00000000000E+00  0.00000000000E+00  0.45593999997E+02  0.45594000000E+02  0.51100000000E-03 0. -1.
         11   -1    0    0    0    0 -0.00000000000E+00 -0.00000000000E+00 -0.45593999997E+02  0.45594000000E+02  0.51100000000E-03 0.  1.
    9900012    2    1    2    0    0  0.32597024342E+01  0.34037020998E+02 -0.26729732199E+02  0.47787273718E+02  0.20000012188E+02 0.  0.
         12    1    1    2    0    0 -0.32597024342E+01 -0.34037020998E+02  0.26729732199E+02  0.43400726282E+02  0.00000000000E+00 0. -1.
         11    1    3    3    0    0 -0.77962676512E+00  0.59627410885E+00 -0.97447976616E+01  0.97941024312E+01  0.51100000000E-03 0. -1.
        -11    1    3    3    0    0  0.28324848079E+01  0.23334887766E+02 -0.94715992019E+01  0.25342674463E+02  0.51100000000E-03 0.  1.
         12    1    3    3    0    0  0.12068443914E+01  0.10105859123E+02 -0.75133353358E+01  0.12650496823E+02  0.00000000000E+00 0. -1.
</event>
<event>
 7    1  0.2706925E-010  0.4778727E+02  0.7816164E-02  0.1312668E+00
        -11   -1    0    0    0    0  0.00000000000E+00  0.00000000000E+00  0.45593999997E+02  0.45594000000E+02  0.51100000000E-03 0. -1.
         11   -1    0    0    0    0 -0.00000000000E+00 -0.00000000000E+00 -0.45593999997E+02  0.45594000000E+02  0.51100000000E-03 0.  1.
    9900012    2    1    2    0    0  0.54295876553E+01 -0.56365157895E+01 -0.42689253380E+02  0.47787273203E+02  0.20000009844E+02 0.  0.
         12    1    1    2    0    0 -0.54295876553E+01  0.56365157895E+01  0.42689253380E+02  0.43400726797E+02  0.00000000000E+00 0. -1.
         11    1    3    3    0    0  0.47487541680E+01  0.11243936475E+01 -0.52680354140E+01  0.71810253172E+01  0.51100000000E-03 0. -1.
        -11    1    3    3    0    0 -0.30366598643E+01 -0.83868220529E+01 -0.12495530980E+02  0.15352471528E+02  0.51100000000E-03 0.  1.
        -12    1    3    3    0    0  0.37174933516E+01  0.16259126159E+01 -0.24925686986E+02  0.25253776358E+02  0.00000000000E+00 0.  1.
</event>
<event>
 7    1  0.2706925E-010  0.4778727E+02  0.7816164E-02  0.1312668E+00
        -11   -1    0    0    0    0  0.00000000000E+00  0.00000000000E+00  0.45593999997E+02  0.45594000000E+02  0.51100000000E-03 0.  1.
         11   -1    0    0    0    0 -0.00000000000E+00 -0.00000000000E+00 -0.45593999997E+02  0.45594000000E+02  0.51100000000E-03 0. -1.
    9900012    2    1    2    0    0  0.69044876727E+01 -0.10475526379E+02  0.41547739052E+02  0.47787271627E+02  0.20000002657E+02 0.  0.
         12    1    1    2    0    0 -0.69044876727E+01  0.10475526379E+02 -0.41547739052E+02  0.43400728373E+02  0.00000000000E+00 0. -1.
         11    1    3    3    0    0  0.73860902833E+01 -0.68054025359E+01  0.21957139886E+02  0.24145057995E+02  0.51100000000E-03 0.  1.
        -11    1    3    3    0    0  0.20775495175E+01  0.21831511529E+01 -0.23727599851E-01  0.30137890128E+01  0.51100000000E-03 0. -1.
        -12    1    3    3    0    0 -0.25591521280E+01 -0.58532749958E+01  0.19614326767E+02  0.20628424620E+02  0.00000000000E+00 0.  1.
</event>
<event>
 7    1  0.2706925E-010  0.4778728E+02  0.7816164E-02  0.1312668E+00
        -11   -1    0    0    0    0  0.00000000000E+00  0.00000000000E+00  0.45593999997E+02  0.45594000000E+02  0.51100000000E-03 0. -1.
         11   -1    0    0    0    0 -0.00000000000E+00 -0.00000000000E+00 -0.45593999997E+02  0.45594000000E+02  0.51100000000E-03 0.  1.
    9900012    2    1    2    0    0 -0.39603050881E+02 -0.99310669157E+01 -0.14717165886E+02  0.47787277646E+02  0.20000030099E+02 0.  0.
         12    1    1    2    0    0  0.39603050881E+02  0.99310669157E+01  0.14717165886E+02  0.43400722354E+02  0.00000000000E+00 0. -1.
         11    1    3    3    0    0 -0.67015913393E+01  0.31851529429E+01  0.10120892314E+01  0.74887148846E+01  0.51100000000E-03 0. -1.
        -11    1    3    3    0    0 -0.26883821234E+02 -0.13304266458E+02 -0.91050569440E+01  0.31347175508E+02  0.51100000000E-03 0.  1.
        -12    1    3    3    0    0 -0.60176383069E+01  0.18804659923E+00 -0.66241981731E+01  0.89513872530E+01  0.00000000000E+00 0.  1.
</event>
<event>
 7    1  0.2706925E-010  0.4778727E+02  0.7816164E-02  0.1312668E+00
        -11   -1    0    0    0    0  0.00000000000E+00  0.00000000000E+00  0.45593999997E+02  0.45594000000E+02  0.51100000000E-03 0. -1.
         11   -1    0    0    0    0 -0.00000000000E+00 -0.00000000000E+00 -0.45593999997E+02  0.45594000000E+02  0.51100000000E-03 0.  1.
    9900012    2    1    2    0    0 -0.39433738932E+02  0.17186288742E+02 -0.57649758071E+01  0.47787271516E+02  0.20000002152E+02 0.  0.
         12    1    1    2    0    0  0.39433738932E+02 -0.17186288742E+02  0.57649758071E+01  0.43400728484E+02  0.00000000000E+00 0. -1.
         11    1    3    3    0    0 -0.12613050924E+02  0.11271881866E+02  0.43975708722E+01  0.17478072097E+02  0.51100000000E-03 0. -1.
        -11    1    3    3    0    0 -0.58281083687E+01 -0.18875022877E+01 -0.15903875791E+01  0.63292057129E+01  0.51100000000E-03 0.  1.
         12    1    3    3    0    0 -0.20992579639E+02  0.78019091638E+01 -0.85721591003E+01  0.23979993706E+02  0.00000000000E+00 0. -1.
</event>
<event>
 7    1  0.2706925E-010  0.4778727E+02  0.7816164E-02  0.1312668E+00
        -11   -1    0    0    0    0  0.00000000000E+00  0.00000000000E+00  0.45593999997E+02  0.45594000000E+02  0.51100000000E-03 0. -1.
         11   -1    0    0    0    0 -0.00000000000E+00 -0.00000000000E+00 -0.45593999997E+02  0.45594000000E+02  0.51100000000E-03 0.  1.
    9900012    2    1    2    0    0 -0.13350233200E+02 -0.29488913025E+02 -0.28910183344E+02  0.47787269374E+02  0.19999992383E+02 0.  0.
         12    1    1    2    0    0  0.13350233200E+02  0.29488913025E+02  0.28910183344E+02  0.43400730626E+02  0.00000000000E+00 0. -1.
         11    1    3    3    0    0  0.52907949176E+00 -0.17697200578E+02 -0.10635859166E+02  0.20654111790E+02  0.51100000000E-03 0.  1.
        -11    1    3    3    0    0 -0.12507214930E+02 -0.11311044409E+02 -0.19085636788E+02  0.25468248522E+02  0.51100000000E-03 0. -1.
        -12    1    3    3    0    0 -0.13720977617E+01 -0.48066803878E+00  0.81131260975E+00  0.16649090612E+01  0.00000000000E+00 0.  1.
</event>
<event>
 7    1  0.2706925E-010  0.4778727E+02  0.7816164E-02  0.1312668E+00
        -11   -1    0    0    0    0  0.00000000000E+00  0.00000000000E+00  0.45593999997E+02  0.45594000000E+02  0.51100000000E-03 0.  1.
         11   -1    0    0    0    0 -0.00000000000E+00 -0.00000000000E+00 -0.45593999997E+02  0.45594000000E+02  0.51100000000E-03 0. -1.
    9900012    2    1    2    0    0  0.27734746986E+02 -0.80196750236E+01  0.32405127647E+02  0.47787266415E+02  0.19999978893E+02 0.  0.
         12    1    1    2    0    0 -0.27734746986E+02  0.80196750236E+01 -0.32405127647E+02  0.43400733585E+02  0.00000000000E+00 0. -1.
         11    1    3    3    0    0 -0.91848732586E+00  0.21997170071E+01  0.48784615374E+01  0.54297109603E+01  0.51100000000E-03 0. -1.
        -11    1    3    3    0    0  0.20605586328E+02 -0.36506066418E+01  0.22790610657E+02  0.30940734496E+02  0.51100000000E-03 0.  1.
         12    1    3    3    0    0  0.80476479834E+01 -0.65687853888E+01  0.47360554533E+01  0.11416820959E+02  0.00000000000E+00 0. -1.
</event>
<event>
 7    1  0.2706925E-010  0.4778727E+02  0.7816164E-02  0.1312668E+00
        -11   -1    0    0    0    0  0.00000000000E+00  0.00000000000E+00  0.45593999997E+02  0.45594000000E+02  0.51100000000E-03 0.  1.
         11   -1    0    0    0    0 -0.00000000000E+00 -0.00000000000E+00 -0.45593999997E+02  0.45594000000E+02  0.51100000000E-03 0. -1.
    9900012    2    1    2    0    0 -0.16632628310E+02  0.29582721822E+02  0.27052572430E+02  0.47787269246E+02  0.19999991800E+02 0.  0.
         12    1    1    2    0    0  0.16632628310E+02 -0.29582721822E+02 -0.27052572430E+02  0.43400730754E+02  0.00000000000E+00 0. -1.
         11    1    3    3    0    0 -0.80418077583E+01  0.94405158726E+00  0.79376907778E+01  0.11338820069E+02  0.51100000000E-03 0. -1.
        -11    1    3    3    0    0 -0.10038897192E+02  0.22297009063E+02  0.14028554851E+02  0.28191069889E+02  0.51100000000E-03 0.  1.
         12    1    3    3    0    0  0.14480766404E+01  0.63416611716E+01  0.50863268017E+01  0.82573792880E+01  0.00000000000E+00 0. -1.
</event>
<event>
 7    1  0.2706925E-010  0.4778727E+02  0.7816164E-02  0.1312668E+00
        -11   -1    0    0    0    0  0.00000000000E+00  0.00000000000E+00  0.45593999997E+02  0.45594000000E+02  0.51100000000E-03 0. -1.
         11   -1    0    0    0    0 -0.00000000000E+00 -0.00000000000E+00 -0.45593999997E+02  0.45594000000E+02  0.51100000000E-03 0.  1.
    9900012    2    1    2    0    0  0.18576853622E+02 -0.21881726858E+02 -0.32553240666E+02  0.47787274907E+02  0.20000017609E+02 0.  0.
         12    1    1    2    0    0 -0.18576853622E+02  0.21881726858E+02  0.32553240666E+02  0.43400725093E+02  0.00000000000E+00 0. -1.
         11    1    3    3    0    0  0.60849196054E+01 -0.40437923600E+01  0.50370139093E+00  0.73234021197E+01  0.51100000000E-03 0. -1.
        -11    1    3    3    0    0  0.97490481312E+01 -0.11139348432E+02 -0.15303204376E+02  0.21291244383E+02  0.51100000000E-03 0.  1.
         12    1    3    3    0    0  0.27428858851E+01 -0.66985860663E+01 -0.17753737681E+02  0.19172628404E+02  0.00000000000E+00 0. -1.
</event>
<event>
 7    1  0.2706925E-010  0.4778727E+02  0.7816164E-02  0.1312668E+00
        -11   -1    0    0    0    0  0.00000000000E+00  0.00000000000E+00  0.45593999997E+02  0.45594000000E+02  0.51100000000E-03 0.  1.
         11   -1    0    0    0    0 -0.00000000000E+00 -0.00000000000E+00 -0.45593999997E+02  0.45594000000E+02  0.51100000000E-03 0. -1.
    9900012    2    1    2    0    0 -0.20150984051E+02  0.36940415007E+01  0.38261141096E+02  0.47787273983E+02  0.20000013397E+02 0.  0.
         12    1    1    2    0    0  0.20150984051E+02 -0.36940415007E+01 -0.38261141096E+02  0.43400726017E+02  0.00000000000E+00 0. -1.
         11    1    3    3    0    0 -0.14385843083E+02  0.69755248024E+01  0.27037292143E+02  0.31410596845E+02  0.51100000000E-03 0. -1.
        -11    1    3    3    0    0 -0.61053665945E-01 -0.56392235829E+01  0.64916625623E+01  0.85992007333E+01  0.51100000000E-03 0.  1.
         12    1    3    3    0    0 -0.57040873018E+01  0.23577402812E+01  0.47321863908E+01  0.77774764042E+01  0.00000000000E+00 0. -1.
</event>
<event>
 7    1  0.2706925E-010  0.4778727E+02  0.7816164E-02  0.1312668E+00
        -11   -1    0    0    0    0  0.00000000000E+00  0.00000000000E+00  0.45593999997E+02  0.45594000000E+02  0.51100000000E-03 0.  1.
         11   -1    0    0    0    0 -0.00000000000E+00 -0.00000000000E+00 -0.45593999997E+02  0.45594000000E+02  0.51100000000E-03 0. -1.
    9900012    2    1    2    0    0 -0.51702545331E+01 -0.10917353741E+02  0.41685768292E+02  0.47787269329E+02  0.19999992180E+02 0.  0.
         12    1    1    2    0    0  0.51702545331E+01  0.10917353741E+02 -0.41685768292E+02  0.43400730671E+02  0.00000000000E+00 0. -1.
         11    1    3    3    0    0 -0.13209189443E+00  0.76711041608E+00 -0.48227857355E-01  0.77989284289E+00  0.51100000000E-03 0. -1.
        -11    1    3    3    0    0 -0.60289767847E+01 -0.62893025895E+01  0.53749867536E+01  0.10236912181E+02  0.51100000000E-03 0.  1.
        -12    1    3    3    0    0  0.99081414606E+00 -0.53951615673E+01  0.36359009396E+02  0.36770464306E+02  0.00000000000E+00 0.  1.
</event>
<event>
 7    1  0.2706925E-010  0.4778727E+02  0.7816164E-02  0.1312668E+00
        -11   -1    0    0    0    0  0.00000000000E+00  0.00000000000E+00  0.45593999997E+02  0.45594000000E+02  0.51100000000E-03 0.  1.
         11   -1    0    0    0    0 -0.00000000000E+00 -0.00000000000E+00 -0.45593999997E+02  0.45594000000E+02  0.51100000000E-03 0. -1.
    9900012    2    1    2    0    0 -0.15677914586E+01 -0.17920078262E+02  0.39497291530E+02  0.47787271744E+02  0.20000003189E+02 0.  0.
         12    1    1    2    0    0  0.15677914586E+01  0.17920078262E+02 -0.39497291530E+02  0.43400728256E+02  0.00000000000E+00 0. -1.
         11    1    3    3    0    0  0.62972972000E+01 -0.56739027741E+00  0.72701335409E+01  0.96349740900E+01  0.51100000000E-03 0. -1.
        -11    1    3    3    0    0 -0.41836603067E+01 -0.10593278391E+02  0.25507672005E+02  0.27934958242E+02  0.51100000000E-03 0.  1.
         12    1    3    3    0    0 -0.36814283520E+01 -0.67594095930E+01  0.67194859842E+01  0.10217339411E+02  0.00000000000E+00 0. -1.
</event>
<event>
 7    1  0.2706925E-010  0.4778727E+02  0.7816164E-02  0.1312668E+00
        -11   -1    0    0    0    0  0.00000000000E+00  0.00000000000E+00  0.45593999997E+02  0.45594000000E+02  0.51100000000E-03 0.  1.
         11   -1    0    0    0    0 -0.00000000000E+00 -0.00000000000E+00 -0.45593999997E+02  0.45594000000E+02  0.51100000000E-03 0. -1.
    9900012    2    1    2    0    0  0.15267379576E+02 -0.86418511460E+01  0.39696958233E+02  0.47787274623E+02  0.20000016314E+02 0.  0.
         12    1    1    2    0    0 -0.15267379576E+02  0.86418511460E+01 -0.39696958233E+02  0.43400725377E+02  0.00000000000E+00 0. -1.
         11    1    3    3    0    0  0.50759310282E+01 -0.69469801717E+01  0.73436918587E+01  0.11311738137E+02  0.51100000000E-03 0. -1.
        -11    1    3    3    0    0  0.81022581088E+00  0.13125310060E+01  0.22463295642E+02  0.22516190950E+02  0.51100000000E-03 0.  1.
        -12    1    3    3    0    0  0.93812227368E+01 -0.30074019803E+01  0.98899707318E+01  0.13959345536E+02  0.00000000000E+00 0.  1.
</event>
<event>
 7    1  0.2706925E-010  0.4778728E+02  0.7816164E-02  0.1312668E+00
        -11   -1    0    0    0    0  0.00000000000E+00  0.00000000000E+00  0.45593999997E+02  0.45594000000E+02  0.51100000000E-03 0. -1.
         11   -1    0    0    0    0 -0.00000000000E+00 -0.00000000000E+00 -0.45593999997E+02  0.45594000000E+02  0.51100000000E-03 0.  1.
    9900012    2    1    2    0    0 -0.39537781792E+02  0.16389120463E+02 -0.71960666694E+01  0.47787276111E+02  0.20000023101E+02 0.  0.
         12    1    1    2    0    0  0.39537781792E+02 -0.16389120463E+02  0.71960666694E+01  0.43400723889E+02  0.00000000000E+00 0. -1.
         11    1    3    3    0    0 -0.23235956780E+02  0.11161060322E+02  0.30391191835E+01  0.25956024362E+02  0.51100000000E-03 0. -1.
        -11    1    3    3    0    0 -0.16588540171E+02  0.65660133419E+01 -0.89750478995E+01  0.19971071110E+02  0.51100000000E-03 0.  1.
         12    1    3    3    0    0  0.28671515909E+00 -0.13379532010E+01 -0.12601379533E+01  0.18601806396E+01  0.00000000000E+00 0. -1.
</event>
<event>
 7    1  0.2706925E-010  0.4778727E+02  0.7816164E-02  0.1312668E+00
        -11   -1    0    0    0    0  0.00000000000E+00  0.00000000000E+00  0.45593999997E+02  0.45594000000E+02  0.51100000000E-03 0.  1.
         11   -1    0    0    0    0 -0.00000000000E+00 -0.00000000000E+00 -0.45593999997E+02  0.45594000000E+02  0.51100000000E-03 0. -1.
    9900012    2    1    2    0    0  0.15270045054E+02  0.18570866200E+02  0.36132698500E+02  0.47787271340E+02  0.20000001346E+02 0.  0.
         12    1    1    2    0    0 -0.15270045054E+02 -0.18570866200E+02 -0.36132698500E+02  0.43400728660E+02  0.00000000000E+00 0. -1.
         11    1    3    3    0    0 -0.29609298994E+01  0.11310914814E+01  0.14698136218E+01  0.34938268636E+01  0.51100000000E-03 0. -1.
        -11    1    3    3    0    0  0.19174934286E+02  0.17108927406E+02  0.29896660362E+02  0.39423391570E+02  0.51100000000E-03 0.  1.
        -12    1    3    3    0    0 -0.94395933255E+00  0.33084731314E+00  0.47662245163E+01  0.48700529058E+01  0.00000000000E+00 0.  1.
</event>
<event>
 7    1  0.2706925E-010  0.4778727E+02  0.7816164E-02  0.1312668E+00
        -11   -1    0    0    0    0  0.00000000000E+00  0.00000000000E+00  0.45593999997E+02  0.45594000000E+02  0.51100000000E-03 0.  1.
         11   -1    0    0    0    0 -0.00000000000E+00 -0.00000000000E+00 -0.45593999997E+02  0.45594000000E+02  0.51100000000E-03 0. -1.
    9900012    2    1    2    0    0  0.23232976261E+02  0.16926653483E+01  0.36619486646E+02  0.47787272999E+02  0.20000008914E+02 0.  0.
         12    1    1    2    0    0 -0.23232976261E+02 -0.16926653483E+01 -0.36619486646E+02  0.43400727001E+02  0.00000000000E+00 0. -1.
         11    1    3    3    0    0  0.19213152111E+02  0.41832668906E+01  0.22240194030E+02  0.29686211727E+02  0.51100000000E-03 0. -1.
        -11    1    3    3    0    0 -0.19676524929E+01 -0.23504180942E+01  0.10564468976E+02  0.11000187569E+02  0.51100000000E-03 0.  1.
        -12    1    3    3    0    0  0.59874766431E+01 -0.14018344812E+00  0.38148236403E+01  0.71008737038E+01  0.00000000000E+00 0.  1.
</event>
<event>
 7    1  0.2706925E-010  0.4778727E+02  0.7816164E-02  0.1312668E+00
        -11   -1    0    0    0    0  0.00000000000E+00  0.00000000000E+00  0.45593999997E+02  0.45594000000E+02  0.51100000000E-03 0.  1.
         11   -1    0    0    0    0 -0.00000000000E+00 -0.00000000000E+00 -0.45593999997E+02  0.45594000000E+02  0.51100000000E-03 0. -1.
    9900012    2    1    2    0    0  0.29363026244E+02 -0.31325211112E+02  0.63377298068E+01  0.47787274424E+02  0.20000015407E+02 0.  0.
         12    1    1    2    0    0 -0.29363026244E+02  0.31325211112E+02 -0.63377298068E+01  0.43400725576E+02  0.00000000000E+00 0. -1.
         11    1    3    3    0    0  0.15830420730E+02 -0.18152443920E+02 -0.62486667706E+01  0.24882911354E+02  0.51100000000E-03 0. -1.
        -11    1    3    3    0    0  0.53117664054E+01 -0.48138096857E+01  0.65830324675E+01  0.97326226047E+01  0.51100000000E-03 0.  1.
         12    1    3    3    0    0  0.82208391089E+01 -0.83589575066E+01  0.60033641098E+01  0.13171740465E+02  0.00000000000E+00 0. -1.
</event>
<event>
 7    1  0.2706925E-010  0.4778727E+02  0.7816164E-02  0.1312668E+00
        -11   -1    0    0    0    0  0.00000000000E+00  0.00000000000E+00  0.45593999997E+02  0.45594000000E+02  0.51100000000E-03 0.  1.
         11   -1    0    0    0    0 -0.00000000000E+00 -0.00000000000E+00 -0.45593999997E+02  0.45594000000E+02  0.51100000000E-03 0. -1.
    9900012    2    1    2    0    0 -0.37413722947E+02  0.12557647075E+02 -0.18059405798E+02  0.47787270714E+02  0.19999998493E+02 0.  0.
         12    1    1    2    0    0  0.37413722947E+02 -0.12557647075E+02  0.18059405798E+02  0.43400729286E+02  0.00000000000E+00 0. -1.
         11    1    3    3    0    0 -0.10121194757E+02  0.93326023353E+01 -0.78556316804E+01  0.15850772821E+02  0.51100000000E-03 0. -1.
        -11    1    3    3    0    0 -0.17993288077E+02  0.38903448610E+01 -0.40832531941E+00  0.18413580010E+02  0.51100000000E-03 0.  1.
        -12    1    3    3    0    0 -0.92992401128E+01 -0.66530012142E+00 -0.97954487979E+01  0.13522917883E+02  0.00000000000E+00 0.  1.
</event>
<event>
 7    1  0.2706925E-010  0.4778727E+02  0.7816164E-02  0.1312668E+00
        -11   -1    0    0    0    0  0.00000000000E+00  0.00000000000E+00  0.45593999997E+02  0.45594000000E+02  0.51100000000E-03 0. -1.
         11   -1    0    0    0    0 -0.00000000000E+00 -0.00000000000E+00 -0.45593999997E+02  0.45594000000E+02  0.51100000000E-03 0.  1.
    9900012    2    1    2    0    0  0.35908810854E+02 -0.16569411731E+02 -0.17878347647E+02  0.47787269399E+02  0.19999992499E+02 0.  0.
         12    1    1    2    0    0 -0.35908810854E+02  0.16569411731E+02  0.17878347647E+02  0.43400730601E+02  0.00000000000E+00 0. -1.
         11    1    3    3    0    0  0.11205359330E+02 -0.75838148998E+00  0.21775973048E+01  0.11440155178E+02  0.51100000000E-03 0. -1.
        -11    1    3    3    0    0  0.98252644465E+01 -0.29345130917E+01 -0.42156999569E+01  0.11086898345E+02  0.51100000000E-03 0.  1.
         12    1    3    3    0    0  0.14878187077E+02 -0.12876517150E+02 -0.15840244995E+02  0.25260215877E+02  0.00000000000E+00 0. -1.
</event>
<event>
 7    1  0.2706925E-010  0.4778729E+02  0.7816164E-02  0.1312668E+00
        -11   -1    0    0    0    0  0.00000000000E+00  0.00000000000E+00  0.45593999997E+02  0.45594000000E+02  0.51100000000E-03 0. -1.
         11   -1    0    0    0    0 -0.00000000000E+00 -0.00000000000E+00 -0.45593999997E+02  0.45594000000E+02  0.51100000000E-03 0.  1.
    9900012    2    1    2    0    0 -0.42776398717E+02  0.28602377010E+01 -0.67542871817E+01  0.47787289842E+02  0.20000085705E+02 0.  0.
         12    1    1    2    0    0  0.42776398717E+02 -0.28602377010E+01  0.67542871817E+01  0.43400710158E+02  0.00000000000E+00 0. -1.
         11    1    3    3    0    0 -0.15556787990E+02  0.62698706146E+01 -0.82719273202E+01  0.18701596508E+02  0.51100000000E-03 0. -1.
        -11    1    3    3    0    0 -0.10701606076E+02 -0.12512737770E+01  0.52936118733E+01  0.12004681820E+02  0.51100000000E-03 0.  1.
        -12    1    3    3    0    0 -0.16518004651E+02 -0.21583591367E+01 -0.37759717348E+01  0.17081011514E+02  0.00000000000E+00 0.  1.
</event>
<event>
 7    1  0.2706925E-010  0.4778727E+02  0.7816164E-02  0.1312668E+00
        -11   -1    0    0    0    0  0.00000000000E+00  0.00000000000E+00  0.45593999997E+02  0.45594000000E+02  0.51100000000E-03 0.  1.
         11   -1    0    0    0    0 -0.00000000000E+00 -0.00000000000E+00 -0.45593999997E+02  0.45594000000E+02  0.51100000000E-03 0. -1.
    9900012    2    1    2    0    0  0.31730240307E+02 -0.29253221782E+02 -0.45895772137E+01  0.47787270127E+02  0.19999995816E+02 0.  0.
         12    1    1    2    0    0 -0.31730240307E+02  0.29253221782E+02  0.45895772137E+01  0.43400729873E+02  0.00000000000E+00 0. -1.
         11    1    3    3    0    0  0.17069276273E+02 -0.24613537362E+02 -0.57697614211E+01  0.30503713890E+02  0.51100000000E-03 0. -1.
        -11    1    3    3    0    0  0.89000092272E+01 -0.55515538894E+01  0.34239484906E+01  0.11034189520E+02  0.51100000000E-03 0.  1.
         12    1    3    3    0    0  0.57609548065E+01  0.91186946945E+00 -0.22437642832E+01  0.62493667175E+01  0.00000000000E+00 0. -1.
</event>
<event>
 7    1  0.2706925E-010  0.4778728E+02  0.7816164E-02  0.1312668E+00
        -11   -1    0    0    0    0  0.00000000000E+00  0.00000000000E+00  0.45593999997E+02  0.45594000000E+02  0.51100000000E-03 0.  1.
         11   -1    0    0    0    0 -0.00000000000E+00 -0.00000000000E+00 -0.45593999997E+02  0.45594000000E+02  0.51100000000E-03 0. -1.
    9900012    2    1    2    0    0 -0.22244403378E+01  0.10911037272E+02  0.41947870839E+02  0.47787277229E+02  0.20000028197E+02 0.  0.
         12    1    1    2    0    0  0.22244403378E+01 -0.10911037272E+02 -0.41947870839E+02  0.43400722771E+02  0.00000000000E+00 0. -1.
         11    1    3    3    0    0 -0.48656054676E+01  0.11474649845E+02  0.30152153460E+02  0.32626585237E+02  0.51100000000E-03 0. -1.
        -11    1    3    3    0    0  0.17269351486E+01  0.40121517328E+01  0.33241840042E+01  0.54890678707E+01  0.51100000000E-03 0.  1.
         12    1    3    3    0    0  0.91422998114E+00 -0.45757643058E+01  0.84715333740E+01  0.96716241215E+01  0.00000000000E+00 0. -1.
</event>
<event>
 7    1  0.2706925E-010  0.4778727E+02  0.7816164E-02  0.1312668E+00
        -11   -1    0    0    0    0  0.00000000000E+00  0.00000000000E+00  0.45593999997E+02  0.45594000000E+02  0.51100000000E-03 0.  1.
         11   -1    0    0    0    0 -0.00000000000E+00 -0.00000000000E+00 -0.45593999997E+02  0.45594000000E+02  0.51100000000E-03 0. -1.
    9900012    2    1    2    0    0  0.41391708527E+02 -0.29112773124E+01  0.12722979871E+02  0.47787270891E+02  0.19999999302E+02 0.  0.
         12    1    1    2    0    0 -0.41391708527E+02  0.29112773124E+01 -0.12722979871E+02  0.43400729109E+02  0.00000000000E+00 0. -1.
         11    1    3    3    0    0  0.34889826435E+01 -0.34131229066E+01 -0.36368418844E-01  0.48809559295E+01  0.51100000000E-03 0. -1.
        -11    1    3    3    0    0  0.11640510443E+02  0.13453588847E+01 -0.32210494730E+01  0.12152638967E+02  0.51100000000E-03 0.  1.
        -12    1    3    3    0    0  0.26262215441E+02 -0.84351329038E+00  0.15980397763E+02  0.30753675995E+02  0.00000000000E+00 0.  1.
</event>
<event>
 7    1  0.2706925E-010  0.4778727E+02  0.7816164E-02  0.1312668E+00
        -11   -1    0    0    0    0  0.00000000000E+00  0.00000000000E+00  0.45593999997E+02  0.45594000000E+02  0.51100000000E-03 0. -1.
         11   -1    0    0    0    0 -0.00000000000E+00 -0.00000000000E+00 -0.45593999997E+02  0.45594000000E+02  0.51100000000E-03 0.  1.
    9900012    2    1    2    0    0 -0.16068159152E+02  0.27212216202E+02 -0.29747821567E+02  0.47787270315E+02  0.19999996675E+02 0.  0.
         12    1    1    2    0    0  0.16068159152E+02 -0.27212216202E+02  0.29747821567E+02  0.43400729685E+02  0.00000000000E+00 0. -1.
         11    1    3    3    0    0 -0.13863712233E+02  0.19551896232E+02 -0.23825907729E+02  0.33795754800E+02  0.51100000000E-03 0.  1.
        -11    1    3    3    0    0  0.26547390947E+01  0.34286467074E+01 -0.61721870763E+01  0.75431526215E+01  0.51100000000E-03 0. -1.
         12    1    3    3    0    0 -0.48591860132E+01  0.42316732629E+01  0.25027323766E+00  0.64483628937E+01  0.00000000000E+00 0. -1.
</event>
<event>
 7    1  0.2706925E-010  0.4778725E+02  0.7816164E-02  0.1312668E+00
        -11   -1    0    0    0    0  0.00000000000E+00  0.00000000000E+00  0.45593999997E+02  0.45594000000E+02  0.51100000000E-03 0.  1.
         11   -1    0    0    0    0 -0.00000000000E+00 -0.00000000000E+00 -0.45593999997E+02  0.45594000000E+02  0.51100000000E-03 0. -1.
    9900012    2    1    2    0    0 -0.24073870868E+02  0.32806632879E+02  0.15093004091E+02  0.47787248948E+02  0.19999899251E+02 0.  0.
         12    1    1    2    0    0  0.24073870868E+02 -0.32806632879E+02 -0.15093004091E+02  0.43400751052E+02  0.00000000000E+00 0. -1.
         11    1    3    3    0    0 -0.53516228512E+00 -0.10773138261E+01 -0.31465937919E+00  0.12433883292E+01  0.51100000000E-03 0. -1.
        -11    1    3    3    0    0 -0.21447104741E+02  0.19885148128E+02  0.69725015853E+01  0.30066812210E+02  0.51100000000E-03 0.  1.
        -12    1    3    3    0    0 -0.20916038418E+01  0.13998798577E+02  0.84351618848E+01  0.16477048409E+02  0.00000000000E+00 0.  1.
</event>
<event>
 7    1  0.2747578E-010  0.4778727E+02  0.7816164E-02  0.1312668E+00
        -11   -1    0    0    0    0  0.00000000000E+00  0.00000000000E+00  0.45593999997E+02  0.45594000000E+02  0.51100000000E-03 0. -1.
         11   -1    0    0    0    0 -0.00000000000E+00 -0.00000000000E+00 -0.45593999997E+02  0.45594000000E+02  0.51100000000E-03 0.  1.
    9900012    2    1    2    0    0  0.15667434267E+02  0.16058397586E+01 -0.40442255692E+02  0.47787271166E+02  0.20000000555E+02 0.  0.
         12    1    1    2    0    0 -0.15667434267E+02 -0.16058397586E+01  0.40442255692E+02  0.43400728834E+02  0.00000000000E+00 0. -1.
         11    1    3    3    0    0  0.34904826234E+01 -0.66166350712E+01 -0.11014416798E+02  0.13314680104E+02  0.51100000000E-03 0. -1.
        -11    1    3    3    0    0  0.11318099923E+02  0.63032795274E+01 -0.14693634304E+02  0.19589119633E+02  0.51100000000E-03 0.  1.
        -12    1    3    3    0    0  0.85885172021E+00  0.19191953024E+01 -0.14734204590E+02  0.14883471430E+02  0.00000000000E+00 0.  1.
</event>
<event>
 7    1  0.2706925E-010  0.4778727E+02  0.7816164E-02  0.1312668E+00
        -11   -1    0    0    0    0  0.00000000000E+00  0.00000000000E+00  0.45593999997E+02  0.45594000000E+02  0.51100000000E-03 0.  1.
         11   -1    0    0    0    0 -0.00000000000E+00 -0.00000000000E+00 -0.45593999997E+02  0.45594000000E+02  0.51100000000E-03 0. -1.
    9900012    2    1    2    0    0 -0.25214955965E+02  0.35302260730E+02  0.12567874064E+01  0.47787272684E+02  0.20000007475E+02 0.  0.
         12    1    1    2    0    0  0.25214955965E+02 -0.35302260730E+02 -0.12567874064E+01  0.43400727316E+02  0.00000000000E+00 0. -1.
         11    1    3    3    0    0 -0.11346242619E+02  0.17994346320E+02 -0.56344748174E+01  0.22006386069E+02  0.51100000000E-03 0. -1.
        -11    1    3    3    0    0 -0.11470800046E+02  0.10895459521E+02  0.95009472529E+01  0.18454221491E+02  0.51100000000E-03 0.  1.
        -12    1    3    3    0    0 -0.23979132997E+01  0.64124548886E+01 -0.26096850291E+01  0.73266651242E+01  0.00000000000E+00 0.  1.
</event>
<event>
 7    1  0.2706925E-010  0.4778728E+02  0.7816164E-02  0.1312668E+00
        -11   -1    0    0    0    0  0.00000000000E+00  0.00000000000E+00  0.45593999997E+02  0.45594000000E+02  0.51100000000E-03 0.  1.
         11   -1    0    0    0    0 -0.00000000000E+00 -0.00000000000E+00 -0.45593999997E+02  0.45594000000E+02  0.51100000000E-03 0. -1.
    9900012    2    1    2    0    0 -0.13246420230E+02  0.52249827829E+01  0.40998223253E+02  0.47787281067E+02  0.20000045698E+02 0.  0.
         12    1    1    2    0    0  0.13246420230E+02 -0.52249827829E+01 -0.40998223253E+02  0.43400718933E+02  0.00000000000E+00 0. -1.
         11    1    3    3    0    0 -0.37421992269E+01  0.39370017493E+01  0.37377802765E+00  0.54446072496E+01  0.51100000000E-03 0. -1.
        -11    1    3    3    0    0 -0.86984812072E+01  0.11672654932E+01  0.40589166373E+02  0.41527177982E+02  0.51100000000E-03 0.  1.
        -12    1    3    3    0    0 -0.80573979547E+00  0.12071554047E+00  0.35278852009E-01  0.81549583513E+00  0.00000000000E+00 0.  1.
</event>
<event>
 7    1  0.2706925E-010  0.4778727E+02  0.7816164E-02  0.1312668E+00
        -11   -1    0    0    0    0  0.00000000000E+00  0.00000000000E+00  0.45593999997E+02  0.45594000000E+02  0.51100000000E-03 0. -1.
         11   -1    0    0    0    0 -0.00000000000E+00 -0.00000000000E+00 -0.45593999997E+02  0.45594000000E+02  0.51100000000E-03 0.  1.
    9900012    2    1    2    0    0  0.55770639026E+01 -0.27141661665E+01 -0.42955241417E+02  0.47787272991E+02  0.20000008873E+02 0.  0.
         12    1    1    2    0    0 -0.55770639026E+01  0.27141661665E+01  0.42955241417E+02  0.43400727009E+02  0.00000000000E+00 0. -1.
         11    1    3    3    0    0 -0.37638598154E+01  0.23373618664E+01 -0.17662798077E+02  0.18210006517E+02  0.51100000000E-03 0. -1.
        -11    1    3    3    0    0  0.85935835606E+01  0.21926034230E+00 -0.21155379444E+02  0.22835232278E+02  0.51100000000E-03 0.  1.
         12    1    3    3    0    0  0.74734015744E+00 -0.52707883751E+01 -0.41370638963E+01  0.67420341951E+01  0.00000000000E+00 0. -1.
</event>
<event>
 7    1  0.2706925E-010  0.4778727E+02  0.7816164E-02  0.1312668E+00
        -11   -1    0    0    0    0  0.00000000000E+00  0.00000000000E+00  0.45593999997E+02  0.45594000000E+02  0.51100000000E-03 0.  1.
         11   -1    0    0    0    0 -0.00000000000E+00 -0.00000000000E+00 -0.45593999997E+02  0.45594000000E+02  0.51100000000E-03 0. -1.
    9900012    2    1    2    0    0  0.13970429435E+02 -0.69654183600E+01  0.40496090534E+02  0.47787270742E+02  0.19999998623E+02 0.  0.
         12    1    1    2    0    0 -0.13970429435E+02  0.69654183600E+01 -0.40496090534E+02  0.43400729258E+02  0.00000000000E+00 0. -1.
         11    1    3    3    0    0  0.10193495516E+02 -0.11741340261E+02  0.30828271086E+02  0.34527506721E+02  0.51100000000E-03 0. -1.
        -11    1    3    3    0    0  0.37348423372E+01  0.41756997194E+01  0.26171111119E+01  0.61834283584E+01  0.51100000000E-03 0.  1.
        -12    1    3    3    0    0  0.42091581647E-01  0.60022218200E+00  0.70507083363E+01  0.70763356628E+01  0.00000000000E+00 0.  1.
</event>
<event>
 7    1  0.2706925E-010  0.4778727E+02  0.7816164E-02  0.1312668E+00
        -11   -1    0    0    0    0  0.00000000000E+00  0.00000000000E+00  0.45593999997E+02  0.45594000000E+02  0.51100000000E-03 0.  1.
         11   -1    0    0    0    0 -0.00000000000E+00 -0.00000000000E+00 -0.45593999997E+02  0.45594000000E+02  0.51100000000E-03 0. -1.
    9900012    2    1    2    0    0  0.24443213865E+02 -0.34032068533E+02 -0.11312433084E+02  0.47787268036E+02  0.19999986285E+02 0.  0.
         12    1    1    2    0    0 -0.24443213865E+02  0.34032068533E+02  0.11312433084E+02  0.43400731964E+02  0.00000000000E+00 0. -1.
         11    1    3    3    0    0 -0.19936879884E+00 -0.39162967962E+01 -0.59376676803E+00  0.39660670380E+01  0.51100000000E-03 0. -1.
        -11    1    3    3    0    0  0.16091745477E+02 -0.22671626384E+02  0.58994462620E+00  0.27808181355E+02  0.51100000000E-03 0.  1.
        -12    1    3    3    0    0  0.85508371867E+01 -0.74441453535E+01 -0.11308610942E+02  0.16013019643E+02  0.00000000000E+00 0.  1.
</event>
<event>
 7    1  0.2706925E-010  0.4778731E+02  0.7816164E-02  0.1312668E+00
        -11   -1    0    0    0    0  0.00000000000E+00  0.00000000000E+00  0.45593999997E+02  0.45594000000E+02  0.51100000000E-03 0. -1.
         11   -1    0    0    0    0 -0.00000000000E+00 -0.00000000000E+00 -0.45593999997E+02  0.45594000000E+02  0.51100000000E-03 0.  1.
    9900012    2    1    2    0    0 -0.67403674462E+01 -0.23778286435E+02 -0.35676053920E+02  0.47787305508E+02  0.20000157131E+02 0.  0.
         12    1    1    2    0    0  0.67403674462E+01  0.23778286435E+02  0.35676053920E+02  0.43400694492E+02  0.00000000000E+00 0. -1.
         11    1    3    3    0    0 -0.16853435006E+01  0.81750592549E+00  0.14223016640E+01  0.23519440763E+01  0.51100000000E-03 0. -1.
        -11    1    3    3    0    0 -0.53886519786E+00 -0.17376535262E+02 -0.21356308183E+02  0.27537724177E+02  0.51100000000E-03 0.  1.
         12    1    3    3    0    0 -0.45161587477E+01 -0.72192570983E+01 -0.15742047402E+02  0.17897637254E+02  0.00000000000E+00 0. -1.
</event>
<event>
 7    1  0.2706925E-010  0.4778727E+02  0.7816164E-02  0.1312668E+00
        -11   -1    0    0    0    0  0.00000000000E+00  0.00000000000E+00  0.45593999997E+02  0.45594000000E+02  0.51100000000E-03 0.  1.
         11   -1    0    0    0    0 -0.00000000000E+00 -0.00000000000E+00 -0.45593999997E+02  0.45594000000E+02  0.51100000000E-03 0. -1.
    9900012    2    1    2    0    0 -0.22452967484E+02 -0.30955033839E+02  0.20524954481E+02  0.47787266997E+02  0.19999981544E+02 0.  0.
         12    1    1    2    0    0  0.22452967484E+02  0.30955033839E+02 -0.20524954481E+02  0.43400733003E+02  0.00000000000E+00 0. -1.
         11    1    3    3    0    0 -0.75469373202E+01 -0.65528902155E+01 -0.22802132068E+01  0.10251634290E+02  0.51100000000E-03 0. -1.
        -11    1    3    3    0    0 -0.93702416226E+01 -0.11929602878E+02  0.71566211959E+01  0.16773016428E+02  0.51100000000E-03 0.  1.
         12    1    3    3    0    0 -0.55357885407E+01 -0.12472540745E+02  0.15648546492E+02  0.20762616278E+02  0.00000000000E+00 0. -1.
</event>
<event>
 7    1  0.2706925E-010  0.4778727E+02  0.7816164E-02  0.1312668E+00
        -11   -1    0    0    0    0  0.00000000000E+00  0.00000000000E+00  0.45593999997E+02  0.45594000000E+02  0.51100000000E-03 0. -1.
         11   -1    0    0    0    0 -0.00000000000E+00 -0.00000000000E+00 -0.45593999997E+02  0.45594000000E+02  0.51100000000E-03 0.  1.
    9900012    2    1    2    0    0 -0.38717660274E+02 -0.22460108028E+01  0.19481312409E+02  0.47787270573E+02  0.19999997853E+02 0.  0.
         12    1    1    2    0    0  0.38717660274E+02  0.22460108028E+01 -0.19481312409E+02  0.43400729427E+02  0.00000000000E+00 0. -1.
         11    1    3    3    0    0 -0.18796990641E+02 -0.66171404765E+01  0.28586297828E+01  0.20131695650E+02  0.51100000000E-03 0.  1.
        -11    1    3    3    0    0 -0.11595865247E+02  0.66351209558E+01  0.87040138791E+01  0.15945180425E+02  0.51100000000E-03 0. -1.
         12    1    3    3    0    0 -0.83248043854E+01 -0.22639912821E+01  0.79186687468E+01  0.11710394498E+02  0.00000000000E+00 0. -1.
</event>
<event>
 7    1  0.2706925E-010  0.4778727E+02  0.7816164E-02  0.1312668E+00
        -11   -1    0    0    0    0  0.00000000000E+00  0.00000000000E+00  0.45593999997E+02  0.45594000000E+02  0.51100000000E-03 0.  1.
         11   -1    0    0    0    0 -0.00000000000E+00 -0.00000000000E+00 -0.45593999997E+02  0.45594000000E+02  0.51100000000E-03 0. -1.
    9900012    2    1    2    0    0 -0.28156182210E+01 -0.43305734922E+02  0.55561590969E+00  0.47787273138E+02  0.20000009546E+02 0.  0.
         12    1    1    2    0    0  0.28156182210E+01  0.43305734922E+02 -0.55561590969E+00  0.43400726862E+02  0.00000000000E+00 0. -1.
         11    1    3    3    0    0 -0.20931349651E+01 -0.26178351486E+01  0.41932913597E+01  0.53682369113E+01  0.51100000000E-03 0. -1.
        -11    1    3    3    0    0 -0.18321555675E+01 -0.41049235350E+02 -0.34229652414E+01  0.41232429084E+02  0.51100000000E-03 0.  1.
        -12    1    3    3    0    0  0.11096723116E+01  0.36133557681E+00 -0.21471020863E+00  0.11866071431E+01  0.00000000000E+00 0.  1.
</event>
<event>
 7    1  0.2706925E-010  0.4778728E+02  0.7816164E-02  0.1312668E+00
        -11   -1    0    0    0    0  0.00000000000E+00  0.00000000000E+00  0.45593999997E+02  0.45594000000E+02  0.51100000000E-03 0. -1.
         11   -1    0    0    0    0 -0.00000000000E+00 -0.00000000000E+00 -0.45593999997E+02  0.45594000000E+02  0.51100000000E-03 0.  1.
    9900012    2    1    2    0    0 -0.13210755595E+02 -0.30207397189E+02 -0.28224305850E+02  0.47787281699E+02  0.20000048577E+02 0.  0.
         12    1    1    2    0    0  0.13210755595E+02  0.30207397189E+02  0.28224305850E+02  0.43400718301E+02  0.00000000000E+00 0. -1.
         11    1    3    3    0    0 -0.14772067044E+02 -0.11009860096E+02 -0.12027518152E+02  0.22002094838E+02  0.51100000000E-03 0. -1.
        -11    1    3    3    0    0  0.24213447110E+01 -0.98760204231E+01 -0.11367328126E+02  0.15251715923E+02  0.51100000000E-03 0.  1.
         12    1    3    3    0    0 -0.86003326206E+00 -0.93215166700E+01 -0.48294595726E+01  0.10533470938E+02  0.00000000000E+00 0. -1.
</event>
<event>
 7    1  0.2706925E-010  0.4778727E+02  0.7816164E-02  0.1312668E+00
        -11   -1    0    0    0    0  0.00000000000E+00  0.00000000000E+00  0.45593999997E+02  0.45594000000E+02  0.51100000000E-03 0. -1.
         11   -1    0    0    0    0 -0.00000000000E+00 -0.00000000000E+00 -0.45593999997E+02  0.45594000000E+02  0.51100000000E-03 0.  1.
    9900012    2    1    2    0    0 -0.23697146461E+02 -0.35696811507E+02 -0.69141876437E+01  0.47787273129E+02  0.20000009505E+02 0.  0.
         12    1    1    2    0    0  0.23697146461E+02  0.35696811507E+02  0.69141876437E+01  0.43400726871E+02  0.00000000000E+00 0. -1.
         11    1    3    3    0    0 -0.21570270283E+01 -0.11774408956E+02 -0.91883618362E+01  0.15090244045E+02  0.51100000000E-03 0. -1.
        -11    1    3    3    0    0 -0.13515621378E+02 -0.18583088440E+02  0.17199132904E+01  0.23042597492E+02  0.51100000000E-03 0.  1.
         12    1    3    3    0    0 -0.80244980550E+01 -0.53393141112E+01  0.55426090214E+00  0.96544315918E+01  0.00000000000E+00 0. -1.
</event>
<event>
 7    1  0.2706925E-010  0.4778727E+02  0.7816164E-02  0.1312668E+00
        -11   -1    0    0    0    0  0.00000000000E+00  0.00000000000E+00  0.45593999997E+02  0.45594000000E+02  0.51100000000E-03 0. -1.
         11   -1    0    0    0    0 -0.00000000000E+00 -0.00000000000E+00 -0.45593999997E+02  0.45594000000E+02  0.51100000000E-03 0.  1.
    9900012    2    1    2    0    0 -0.14502247341E+02 -0.15886349397E+02 -0.37695255056E+02  0.47787268107E+02  0.19999986606E+02 0.  0.
         12    1    1    2    0    0  0.14502247341E+02  0.15886349397E+02  0.37695255056E+02  0.43400731893E+02  0.00000000000E+00 0. -1.
         11    1    3    3    0    0 -0.10842209040E+02 -0.19620628987E+02 -0.32575705763E+02  0.39543636465E+02  0.51100000000E-03 0. -1.
        -11    1    3    3    0    0 -0.38745833028E+01  0.19262899465E+01 -0.46736619466E+01  0.63691526108E+01  0.51100000000E-03 0.  1.
         12    1    3    3    0    0  0.21454500144E+00  0.18079896439E+01 -0.44588734699E+00  0.18744790306E+01  0.00000000000E+00 0. -1.
</event>
<event>
 7    1  0.2706925E-010  0.4778727E+02  0.7816164E-02  0.1312668E+00
        -11   -1    0    0    0    0  0.00000000000E+00  0.00000000000E+00  0.45593999997E+02  0.45594000000E+02  0.51100000000E-03 0.  1.
         11   -1    0    0    0    0 -0.00000000000E+00 -0.00000000000E+00 -0.45593999997E+02  0.45594000000E+02  0.51100000000E-03 0. -1.
    9900012    2    1    2    0    0  0.15105519567E+02 -0.23803291611E+02  0.32997726877E+02  0.47787269684E+02  0.19999993798E+02 0.  0.
         12    1    1    2    0    0 -0.15105519567E+02  0.23803291611E+02 -0.32997726877E+02  0.43400730316E+02  0.00000000000E+00 0. -1.
         11    1    3    3    0    0  0.12578164168E+02 -0.10861864955E+02  0.27141193594E+02  0.31825064243E+02  0.51100000000E-03 0.  1.
        -11    1    3    3    0    0  0.13836195357E+01 -0.93985672253E+01  0.59727943912E+00  0.95186244751E+01  0.51100000000E-03 0. -1.
         12    1    3    3    0    0  0.11437358635E+01 -0.35428594299E+01  0.52592538442E+01  0.64435809659E+01  0.00000000000E+00 0. -1.
</event>
<event>
 7    1  0.2706925E-010  0.4778726E+02  0.7816164E-02  0.1312668E+00
        -11   -1    0    0    0    0  0.00000000000E+00  0.00000000000E+00  0.45593999997E+02  0.45594000000E+02  0.51100000000E-03 0.  1.
         11   -1    0    0    0    0 -0.00000000000E+00 -0.00000000000E+00 -0.45593999997E+02  0.45594000000E+02  0.51100000000E-03 0. -1.
    9900012    2    1    2    0    0 -0.34661526399E+02 -0.15923188125E+02  0.20703976736E+02  0.47787262852E+02  0.19999962646E+02 0.  0.
         12    1    1    2    0    0  0.34661526399E+02  0.15923188125E+02 -0.20703976736E+02  0.43400737148E+02  0.00000000000E+00 0. -1.
         11    1    3    3    0    0  0.65096665417E+00 -0.33106799461E+01 -0.95147115828E+00  0.35056606961E+01  0.51100000000E-03 0. -1.
        -11    1    3    3    0    0 -0.26669707130E+02 -0.13145691188E+02  0.14667522604E+02  0.33154467193E+02  0.51100000000E-03 0.  1.
        -12    1    3    3    0    0 -0.86427859230E+01  0.53318300962E+00  0.69879252896E+01  0.11127134963E+02  0.00000000000E+00 0.  1.
</event>
<event>
 7    1  0.2706925E-010  0.4778727E+02  0.7816164E-02  0.1312668E+00
        -11   -1    0    0    0    0  0.00000000000E+00  0.00000000000E+00  0.45593999997E+02  0.45594000000E+02  0.51100000000E-03 0. -1.
         11   -1    0    0    0    0 -0.00000000000E+00 -0.00000000000E+00 -0.45593999997E+02  0.45594000000E+02  0.51100000000E-03 0.  1.
    9900012    2    1    2    0    0  0.25027281324E+02  0.34712645439E+02  0.72312342027E+01  0.47787270606E+02  0.19999998001E+02 0.  0.
         12    1    1    2    0    0 -0.25027281324E+02 -0.34712645439E+02 -0.72312342027E+01  0.43400729394E+02  0.00000000000E+00 0. -1.
         11    1    3    3    0    0 -0.29517061445E+01  0.42150556211E+01  0.82715275915E+00  0.52118561953E+01  0.51100000000E-03 0. -1.
        -11    1    3    3    0    0  0.21232136972E+02  0.17829764789E+02  0.47210488535E+01  0.28124588092E+02  0.51100000000E-03 0.  1.
         12    1    3    3    0    0  0.67468504964E+01  0.12667825030E+02  0.16830325901E+01  0.14450826319E+02  0.00000000000E+00 0. -1.
</event>
<event>
 7    1  0.2706925E-010  0.4778727E+02  0.7816164E-02  0.1312668E+00
        -11   -1    0    0    0    0  0.00000000000E+00  0.00000000000E+00  0.45593999997E+02  0.45594000000E+02  0.51100000000E-03 0. -1.
         11   -1    0    0    0    0 -0.00000000000E+00 -0.00000000000E+00 -0.45593999997E+02  0.45594000000E+02  0.51100000000E-03 0.  1.
    9900012    2    1    2    0    0 -0.38646622841E+02  0.18985444191E+02  0.54419577806E+01  0.47787268985E+02  0.19999990611E+02 0.  0.
         12    1    1    2    0    0  0.38646622841E+02 -0.18985444191E+02 -0.54419577806E+01  0.43400731015E+02  0.00000000000E+00 0. -1.
         11    1    3    3    0    0 -0.16553108944E+01  0.47160916651E+01  0.51470960636E+01  0.71745503622E+01  0.51100000000E-03 0. -1.
        -11    1    3    3    0    0 -0.33707403280E+02  0.15367615065E+02 -0.54636712753E+00  0.37049306957E+02  0.51100000000E-03 0.  1.
         12    1    3    3    0    0 -0.32839086661E+01 -0.10982625393E+01  0.84122884449E+00  0.35634116660E+01  0.00000000000E+00 0. -1.
</event>
<event>
 7    1  0.2706925E-010  0.4778727E+02  0.7816164E-02  0.1312668E+00
        -11   -1    0    0    0    0  0.00000000000E+00  0.00000000000E+00  0.45593999997E+02  0.45594000000E+02  0.51100000000E-03 0.  1.
         11   -1    0    0    0    0 -0.00000000000E+00 -0.00000000000E+00 -0.45593999997E+02  0.45594000000E+02  0.51100000000E-03 0. -1.
    9900012    2    1    2    0    0  0.23854864867E+02 -0.25754430499E+02  0.25520148351E+02  0.47787271435E+02  0.20000001779E+02 0.  0.
         12    1    1    2    0    0 -0.23854864867E+02  0.25754430499E+02 -0.25520148351E+02  0.43400728565E+02  0.00000000000E+00 0. -1.
         11    1    3    3    0    0  0.17376098174E+02 -0.10342206546E+02  0.18186965811E+02  0.27196612835E+02  0.51100000000E-03 0.  1.
        -11    1    3    3    0    0  0.43814298456E+01 -0.16156432714E+02  0.75318257551E+01  0.18356351625E+02  0.51100000000E-03 0. -1.
         12    1    3    3    0    0  0.20973368473E+01  0.74420876041E+00 -0.19864321548E+00  0.22343069747E+01  0.00000000000E+00 0. -1.
</event>
<event>
 7    1  0.2706925E-010  0.4778727E+02  0.7816164E-02  0.1312668E+00
        -11   -1    0    0    0    0  0.00000000000E+00  0.00000000000E+00  0.45593999997E+02  0.45594000000E+02  0.51100000000E-03 0. -1.
         11   -1    0    0    0    0 -0.00000000000E+00 -0.00000000000E+00 -0.45593999997E+02  0.45594000000E+02  0.51100000000E-03 0.  1.
    9900012    2    1    2    0    0  0.18824810358E+02  0.38724010057E+02 -0.54498728817E+01  0.47787267814E+02  0.19999985270E+02 0.  0.
         12    1    1    2    0    0 -0.18824810358E+02 -0.38724010057E+02  0.54498728817E+01  0.43400732186E+02  0.00000000000E+00 0. -1.
         11    1    3    3    0    0  0.13057377989E+02  0.95910327414E+01 -0.73091507862E+01  0.17773764781E+02  0.51100000000E-03 0. -1.
        -11    1    3    3    0    0  0.48305097228E+01  0.23629688119E+02  0.30349400176E+01  0.24308575564E+02  0.51100000000E-03 0.  1.
        -12    1    3    3    0    0  0.93692264588E+00  0.55032891960E+01 -0.11756621132E+01  0.57049274687E+01  0.00000000000E+00 0.  1.
</event>
<event>
 7    1  0.2706925E-010  0.4778727E+02  0.7816164E-02  0.1312668E+00
        -11   -1    0    0    0    0  0.00000000000E+00  0.00000000000E+00  0.45593999997E+02  0.45594000000E+02  0.51100000000E-03 0. -1.
         11   -1    0    0    0    0 -0.00000000000E+00 -0.00000000000E+00 -0.45593999997E+02  0.45594000000E+02  0.51100000000E-03 0.  1.
    9900012    2    1    2    0    0  0.18539205197E+02  0.39241770004E+02 -0.67124440723E-01  0.47787272493E+02  0.20000006606E+02 0.  0.
         12    1    1    2    0    0 -0.18539205197E+02 -0.39241770004E+02  0.67124440723E-01  0.43400727507E+02  0.00000000000E+00 0. -1.
         11    1    3    3    0    0  0.84112652252E+01  0.26205283620E+01 -0.19982676284E+01  0.90338045895E+01  0.51100000000E-03 0. -1.
        -11    1    3    3    0    0  0.50338402493E+01  0.28238692557E+02  0.32038388293E+01  0.28862222514E+02  0.51100000000E-03 0.  1.
         12    1    3    3    0    0  0.50940997226E+01  0.83825490856E+01 -0.12726956416E+01  0.98912453894E+01  0.00000000000E+00 0. -1.
</event>
<event>
 7    1  0.2706925E-010  0.4778727E+02  0.7816164E-02  0.1312668E+00
        -11   -1    0    0    0    0  0.00000000000E+00  0.00000000000E+00  0.45593999997E+02  0.45594000000E+02  0.51100000000E-03 0.  1.
         11   -1    0    0    0    0 -0.00000000000E+00 -0.00000000000E+00 -0.45593999997E+02  0.45594000000E+02  0.51100000000E-03 0. -1.
    9900012    2    1    2    0    0  0.38115442264E+02 -0.12761354846E+01  0.20717341310E+02  0.47787266231E+02  0.19999978055E+02 0.  0.
         12    1    1    2    0    0 -0.38115442264E+02  0.12761354846E+01 -0.20717341310E+02  0.43400733769E+02  0.00000000000E+00 0. -1.
         11    1    3    3    0    0  0.37134840871E+01 -0.44589193738E+01  0.96910287561E+01  0.11295484260E+02  0.51100000000E-03 0. -1.
        -11    1    3    3    0    0  0.34140865548E+02  0.33997485399E+01  0.11223973413E+02  0.36098955247E+02  0.51100000000E-03 0.  1.
         12    1    3    3    0    0  0.26109262883E+00 -0.21696465063E+00 -0.19766085930E+00  0.39282672484E+00  0.00000000000E+00 0. -1.
</event>
<event>
 7    1  0.2706925E-010  0.4778727E+02  0.7816164E-02  0.1312668E+00
        -11   -1    0    0    0    0  0.00000000000E+00  0.00000000000E+00  0.45593999997E+02  0.45594000000E+02  0.51100000000E-03 0. -1.
         11   -1    0    0    0    0 -0.00000000000E+00 -0.00000000000E+00 -0.45593999997E+02  0.45594000000E+02  0.51100000000E-03 0.  1.
    9900012    2    1    2    0    0  0.26412674591E+01 -0.29688472653E+02 -0.31547449993E+02  0.47787270705E+02  0.19999998454E+02 0.  0.
         12    1    1    2    0    0 -0.26412674591E+01  0.29688472653E+02  0.31547449993E+02  0.43400729295E+02  0.00000000000E+00 0. -1.
         11    1    3    3    0    0 -0.19820799501E+01 -0.85608877691E+01 -0.22287447500E+02  0.23957206779E+02  0.51100000000E-03 0. -1.
        -11    1    3    3    0    0  0.50298619510E+01 -0.19095642375E+02 -0.75417462534E+01  0.21138141020E+02  0.51100000000E-03 0.  1.
        -12    1    3    3    0    0 -0.40651454186E+00 -0.20319425083E+01 -0.17182562402E+01  0.26919229070E+01  0.00000000000E+00 0.  1.
</event>
<event>
 7    1  0.2706925E-010  0.4778727E+02  0.7816164E-02  0.1312668E+00
        -11   -1    0    0    0    0  0.00000000000E+00  0.00000000000E+00  0.45593999997E+02  0.45594000000E+02  0.51100000000E-03 0.  1.
         11   -1    0    0    0    0 -0.00000000000E+00 -0.00000000000E+00 -0.45593999997E+02  0.45594000000E+02  0.51100000000E-03 0. -1.
    9900012    2    1    2    0    0  0.40130727111E+02  0.16298191288E+02 -0.27417064497E+01  0.47787271297E+02  0.20000001151E+02 0.  0.
         12    1    1    2    0    0 -0.40130727111E+02 -0.16298191288E+02  0.27417064497E+01  0.43400728703E+02  0.00000000000E+00 0. -1.
         11    1    3    3    0    0  0.92667616869E+01  0.10826141893E+02 -0.50013417363E+01  0.15102703065E+02  0.51100000000E-03 0. -1.
        -11    1    3    3    0    0  0.24252727841E+02  0.76374736574E+01  0.19423849630E+00  0.25427613739E+02  0.51100000000E-03 0.  1.
         12    1    3    3    0    0  0.66112375830E+01 -0.21654242622E+01  0.20653967903E+01  0.72569544932E+01  0.00000000000E+00 0. -1.
</event>
<event>
 7    1  0.2706925E-010  0.4778727E+02  0.7816164E-02  0.1312668E+00
        -11   -1    0    0    0    0  0.00000000000E+00  0.00000000000E+00  0.45593999997E+02  0.45594000000E+02  0.51100000000E-03 0.  1.
         11   -1    0    0    0    0 -0.00000000000E+00 -0.00000000000E+00 -0.45593999997E+02  0.45594000000E+02  0.51100000000E-03 0. -1.
    9900012    2    1    2    0    0 -0.28361945685E+02 -0.28977405506E+02  0.15476870404E+02  0.47787268320E+02  0.19999987578E+02 0.  0.
         12    1    1    2    0    0  0.28361945685E+02  0.28977405506E+02 -0.15476870404E+02  0.43400731680E+02  0.00000000000E+00 0. -1.
         11    1    3    3    0    0 -0.23346313070E+01 -0.50316843791E+01  0.48476068021E+00  0.55680646736E+01  0.51100000000E-03 0. -1.
        -11    1    3    3    0    0  0.85896115915E+00 -0.97653592356E+00 -0.24620243246E+01  0.27844210743E+01  0.51100000000E-03 0.  1.
        -12    1    3    3    0    0 -0.26886275537E+02 -0.22969185203E+02  0.17454134048E+02  0.39434782572E+02  0.00000000000E+00 0.  1.
</event>
<event>
 7    1  0.2706925E-010  0.4778727E+02  0.7816164E-02  0.1312668E+00
        -11   -1    0    0    0    0  0.00000000000E+00  0.00000000000E+00  0.45593999997E+02  0.45594000000E+02  0.51100000000E-03 0. -1.
         11   -1    0    0    0    0 -0.00000000000E+00 -0.00000000000E+00 -0.45593999997E+02  0.45594000000E+02  0.51100000000E-03 0.  1.
    9900012    2    1    2    0    0  0.22621325008E+02 -0.15904729284E+02 -0.33450544205E+02  0.47787266523E+02  0.19999979386E+02 0.  0.
         12    1    1    2    0    0 -0.22621325008E+02  0.15904729284E+02  0.33450544205E+02  0.43400733477E+02  0.00000000000E+00 0. -1.
         11    1    3    3    0    0  0.66007064030E+01  0.39280170256E+01 -0.11236245515E+02  0.13610725782E+02  0.51100000000E-03 0. -1.
        -11    1    3    3    0    0  0.12604907202E+02 -0.12570784216E+02 -0.16936698877E+02  0.24571529673E+02  0.51100000000E-03 0.  1.
         12    1    3    3    0    0  0.34157114036E+01 -0.72619620935E+01 -0.52775998126E+01  0.96050110683E+01  0.00000000000E+00 0. -1.
</event>
<event>
 7    1  0.2706925E-010  0.4778727E+02  0.7816164E-02  0.1312668E+00
        -11   -1    0    0    0    0  0.00000000000E+00  0.00000000000E+00  0.45593999997E+02  0.45594000000E+02  0.51100000000E-03 0.  1.
         11   -1    0    0    0    0 -0.00000000000E+00 -0.00000000000E+00 -0.45593999997E+02  0.45594000000E+02  0.51100000000E-03 0. -1.
    9900012    2    1    2    0    0  0.38147231050E+02  0.19575353150E+02  0.67243907231E+01  0.47787272836E+02  0.20000008169E+02 0.  0.
         12    1    1    2    0    0 -0.38147231050E+02 -0.19575353150E+02 -0.67243907231E+01  0.43400727164E+02  0.00000000000E+00 0. -1.
         11    1    3    3    0    0  0.85397426522E+01  0.10547243631E+02 -0.19837958907E+01  0.13715210504E+02  0.51100000000E-03 0. -1.
        -11    1    3    3    0    0  0.13505001270E+02  0.76923826700E+00  0.84963705524E+01  0.15973888056E+02  0.51100000000E-03 0.  1.
         12    1    3    3    0    0  0.16102487128E+02  0.82588712528E+01  0.21181606137E+00  0.18098174276E+02  0.00000000000E+00 0. -1.
</event>
<event>
 7    1  0.2706925E-010  0.4778727E+02  0.7816164E-02  0.1312668E+00
        -11   -1    0    0    0    0  0.00000000000E+00  0.00000000000E+00  0.45593999997E+02  0.45594000000E+02  0.51100000000E-03 0.  1.
         11   -1    0    0    0    0 -0.00000000000E+00 -0.00000000000E+00 -0.45593999997E+02  0.45594000000E+02  0.51100000000E-03 0. -1.
    9900012    2    1    2    0    0  0.13682072808E+02 -0.78759946132E+01  0.40427624761E+02  0.47787271305E+02  0.20000001187E+02 0.  0.
         12    1    1    2    0    0 -0.13682072808E+02  0.78759946132E+01 -0.40427624761E+02  0.43400728695E+02  0.00000000000E+00 0. -1.
         11    1    3    3    0    0  0.12608083792E+02 -0.83173019820E+01  0.18165222193E+02  0.23624491248E+02  0.51100000000E-03 0. -1.
        -11    1    3    3    0    0 -0.30315635510E+01 -0.21384184859E+01  0.49607266750E+01  0.61945153636E+01  0.51100000000E-03 0.  1.
         12    1    3    3    0    0  0.41055525670E+01  0.25797258546E+01  0.17301675893E+02  0.17968264693E+02  0.00000000000E+00 0. -1.
</event>
<event>
 7    1  0.2706925E-010  0.4778727E+02  0.7816164E-02  0.1312668E+00
        -11   -1    0    0    0    0  0.00000000000E+00  0.00000000000E+00  0.45593999997E+02  0.45594000000E+02  0.51100000000E-03 0. -1.
         11   -1    0    0    0    0 -0.00000000000E+00 -0.00000000000E+00 -0.45593999997E+02  0.45594000000E+02  0.51100000000E-03 0.  1.
    9900012    2    1    2    0    0  0.12261889608E+02 -0.41352065856E+02  0.48245224909E+01  0.47787270691E+02  0.19999998388E+02 0.  0.
         12    1    1    2    0    0 -0.12261889608E+02  0.41352065856E+02 -0.48245224909E+01  0.43400729309E+02  0.00000000000E+00 0. -1.
         11    1    3    3    0    0  0.34338719389E+01  0.12851848043E+01  0.17436568285E+01  0.40599896392E+01  0.51100000000E-03 0. -1.
        -11    1    3    3    0    0  0.61932779680E+01 -0.28084729115E+02  0.32060060429E+01  0.28937642897E+02  0.51100000000E-03 0.  1.
         12    1    3    3    0    0  0.26347397008E+01 -0.14552521546E+02 -0.12514038044E+00  0.14789638155E+02  0.00000000000E+00 0. -1.
</event>
<event>
 7    1  0.2706925E-010  0.4778727E+02  0.7816164E-02  0.1312668E+00
        -11   -1    0    0    0    0  0.00000000000E+00  0.00000000000E+00  0.45593999997E+02  0.45594000000E+02  0.51100000000E-03 0.  1.
         11   -1    0    0    0    0 -0.00000000000E+00 -0.00000000000E+00 -0.45593999997E+02  0.45594000000E+02  0.51100000000E-03 0. -1.
    9900012    2    1    2    0    0 -0.17225546041E+02  0.28993789026E+02  0.27317831056E+02  0.47787272678E+02  0.20000007446E+02 0.  0.
         12    1    1    2    0    0  0.17225546041E+02 -0.28993789026E+02 -0.27317831056E+02  0.43400727322E+02  0.00000000000E+00 0. -1.
         11    1    3    3    0    0 -0.24037593484E+01 -0.66924479152E+00 -0.15057594116E+01  0.29143196913E+01  0.51100000000E-03 0. -1.
        -11    1    3    3    0    0 -0.22027791583E+01  0.12086485843E+02  0.14098748065E+02  0.18700536711E+02  0.51100000000E-03 0.  1.
        -12    1    3    3    0    0 -0.12619007535E+02  0.17576547975E+02  0.14724842403E+02  0.26172416275E+02  0.00000000000E+00 0.  1.
</event>
<event>
 7    1  0.2706925E-010  0.4778728E+02  0.7816164E-02  0.1312668E+00
        -11   -1    0    0    0    0  0.00000000000E+00  0.00000000000E+00  0.45593999997E+02  0.45594000000E+02  0.51100000000E-03 0. -1.
         11   -1    0    0    0    0 -0.00000000000E+00 -0.00000000000E+00 -0.45593999997E+02  0.45594000000E+02  0.51100000000E-03 0.  1.
    9900012    2    1    2    0    0  0.21127875738E+02  0.35940549727E+02 -0.12062862164E+02  0.47787275450E+02  0.20000020089E+02 0.  0.
         12    1    1    2    0    0 -0.21127875738E+02 -0.35940549727E+02  0.12062862164E+02  0.43400724550E+02  0.00000000000E+00 0. -1.
         11    1    3    3    0    0  0.15989687404E+01  0.18287566770E+02 -0.58137201469E+00  0.18366540041E+02  0.51100000000E-03 0. -1.
        -11    1    3    3    0    0  0.17725109205E+02  0.17944662257E+02 -0.10300124062E+02  0.27244870266E+02  0.51100000000E-03 0.  1.
         12    1    3    3    0    0  0.18037977921E+01 -0.29167930062E+00 -0.11813660876E+01  0.21758651434E+01  0.00000000000E+00 0. -1.
</event>
<event>
 7    1  0.2706925E-010  0.4778721E+02  0.7816164E-02  0.1312668E+00
        -11   -1    0    0    0    0  0.00000000000E+00  0.00000000000E+00  0.45593999997E+02  0.45594000000E+02  0.51100000000E-03 0.  1.
         11   -1    0    0    0    0 -0.00000000000E+00 -0.00000000000E+00 -0.45593999997E+02  0.45594000000E+02  0.51100000000E-03 0. -1.
    9900012    2    1    2    0    0 -0.86721529329E+01  0.39861133834E+02  0.14815946552E+02  0.47787210845E+02  0.19999725527E+02 0.  0.
         12    1    1    2    0    0  0.86721529329E+01 -0.39861133834E+02 -0.14815946552E+02  0.43400789155E+02  0.00000000000E+00 0. -1.
         11    1    3    3    0    0 -0.12049755211E+01  0.39055123361E+01  0.75420028222E+01  0.85782748525E+01  0.51100000000E-03 0. -1.
        -11    1    3    3    0    0 -0.65846587325E+01  0.34489108763E+02  0.95250157643E+01  0.36381070345E+02  0.51100000000E-03 0.  1.
         12    1    3    3    0    0 -0.88251867935E+00  0.14665127344E+01 -0.22510720340E+01  0.28278656478E+01  0.00000000000E+00 0. -1.
</event>
<event>
 7    1  0.2706925E-010  0.4778727E+02  0.7816164E-02  0.1312668E+00
        -11   -1    0    0    0    0  0.00000000000E+00  0.00000000000E+00  0.45593999997E+02  0.45594000000E+02  0.51100000000E-03 0.  1.
         11   -1    0    0    0    0 -0.00000000000E+00 -0.00000000000E+00 -0.45593999997E+02  0.45594000000E+02  0.51100000000E-03 0. -1.
    9900012    2    1    2    0    0  0.28343122966E+02 -0.26827325894E+02  0.18989087186E+02  0.47787268829E+02  0.19999989898E+02 0.  0.
         12    1    1    2    0    0 -0.28343122966E+02  0.26827325894E+02 -0.18989087186E+02  0.43400731171E+02  0.00000000000E+00 0. -1.
         11    1    3    3    0    0  0.83864205565E+01 -0.56030127749E+01 -0.17986774718E+01  0.10245049674E+02  0.51100000000E-03 0. -1.
        -11    1    3    3    0    0  0.13491781054E+02 -0.20528782316E+02  0.18066252020E+02  0.30493417678E+02  0.51100000000E-03 0.  1.
         12    1    3    3    0    0  0.64649213550E+01 -0.69553080259E+00  0.27215126379E+01  0.70488014770E+01  0.00000000000E+00 0. -1.
</event>
<event>
 7    1  0.2706925E-010  0.4778727E+02  0.7816164E-02  0.1312668E+00
        -11   -1    0    0    0    0  0.00000000000E+00  0.00000000000E+00  0.45593999997E+02  0.45594000000E+02  0.51100000000E-03 0. -1.
         11   -1    0    0    0    0 -0.00000000000E+00 -0.00000000000E+00 -0.45593999997E+02  0.45594000000E+02  0.51100000000E-03 0.  1.
    9900012    2    1    2    0    0  0.55221728593E+01  0.36194364625E+02 -0.23304437902E+02  0.47787271323E+02  0.20000001272E+02 0.  0.
         12    1    1    2    0    0 -0.55221728593E+01 -0.36194364625E+02  0.23304437902E+02  0.43400728677E+02  0.00000000000E+00 0. -1.
         11    1    3    3    0    0  0.28270982118E+01 -0.33895107911E+00  0.12303176040E+01  0.31017823588E+01  0.51100000000E-03 0. -1.
        -11    1    3    3    0    0  0.36244244933E+01  0.35596357933E+02 -0.22521668536E+02  0.42278395250E+02  0.51100000000E-03 0.  1.
        -12    1    3    3    0    0 -0.92934984592E+00  0.93695777174E+00 -0.20130869700E+01  0.24070937146E+01  0.00000000000E+00 0.  1.
</event>
<event>
 7    1  0.2706925E-010  0.4778727E+02  0.7816164E-02  0.1312668E+00
        -11   -1    0    0    0    0  0.00000000000E+00  0.00000000000E+00  0.45593999997E+02  0.45594000000E+02  0.51100000000E-03 0.  1.
         11   -1    0    0    0    0 -0.00000000000E+00 -0.00000000000E+00 -0.45593999997E+02  0.45594000000E+02  0.51100000000E-03 0. -1.
    9900012    2    1    2    0    0 -0.12616295473E+02  0.27962558633E+01  0.41432274212E+02  0.47787270690E+02  0.19999998382E+02 0.  0.
         12    1    1    2    0    0  0.12616295473E+02 -0.27962558633E+01 -0.41432274212E+02  0.43400729310E+02  0.00000000000E+00 0. -1.
         11    1    3    3    0    0 -0.49981515220E+01  0.92042838848E+01  0.21217965538E+02  0.23662257338E+02  0.51100000000E-03 0. -1.
        -11    1    3    3    0    0 -0.92598023393E+01 -0.42583818178E+01  0.17739147801E+02  0.20458619700E+02  0.51100000000E-03 0.  1.
         12    1    3    3    0    0  0.16416583883E+01 -0.21496462037E+01  0.24751608719E+01  0.36663936514E+01  0.00000000000E+00 0. -1.
</event>
<event>
 7    1  0.2706925E-010  0.4778727E+02  0.7816164E-02  0.1312668E+00
        -11   -1    0    0    0    0  0.00000000000E+00  0.00000000000E+00  0.45593999997E+02  0.45594000000E+02  0.51100000000E-03 0. -1.
         11   -1    0    0    0    0 -0.00000000000E+00 -0.00000000000E+00 -0.45593999997E+02  0.45594000000E+02  0.51100000000E-03 0.  1.
    9900012    2    1    2    0    0 -0.34858806292E+02  0.25797273443E+02  0.17284468126E+01  0.47787271647E+02  0.20000002748E+02 0.  0.
         12    1    1    2    0    0  0.34858806292E+02 -0.25797273443E+02 -0.17284468126E+01  0.43400728353E+02  0.00000000000E+00 0. -1.
         11    1    3    3    0    0 -0.95619849682E+01  0.17298893231E+02 -0.11013991539E+01  0.19796371988E+02  0.51100000000E-03 0. -1.
        -11    1    3    3    0    0 -0.11110392291E+02  0.66825412800E+01 -0.14900380431E+01  0.13050570426E+02  0.51100000000E-03 0.  1.
         12    1    3    3    0    0 -0.14186429033E+02  0.18158389322E+01  0.43198840097E+01  0.14940329233E+02  0.00000000000E+00 0. -1.
</event>
<event>
 7    1  0.2706925E-010  0.4778727E+02  0.7816164E-02  0.1312668E+00
        -11   -1    0    0    0    0  0.00000000000E+00  0.00000000000E+00  0.45593999997E+02  0.45594000000E+02  0.51100000000E-03 0.  1.
         11   -1    0    0    0    0 -0.00000000000E+00 -0.00000000000E+00 -0.45593999997E+02  0.45594000000E+02  0.51100000000E-03 0. -1.
    9900012    2    1    2    0    0  0.17664296294E+02  0.33641802872E+02  0.20972004791E+02  0.47787271331E+02  0.20000001307E+02 0.  0.
         12    1    1    2    0    0 -0.17664296294E+02 -0.33641802872E+02 -0.20972004791E+02  0.43400728669E+02  0.00000000000E+00 0. -1.
         11    1    3    3    0    0  0.15565822251E+00  0.57679794564E+00  0.17602296509E+01  0.18588528821E+01  0.51100000000E-03 0. -1.
        -11    1    3    3    0    0 -0.19359914771E+01  0.39238899403E+00  0.49344934747E+01  0.53151912699E+01  0.51100000000E-03 0.  1.
        -12    1    3    3    0    0  0.19444629548E+02  0.32672615932E+02  0.14277281665E+02  0.40613227179E+02  0.00000000000E+00 0.  1.
</event>
<event>
 7    1  0.2706925E-010  0.4778725E+02  0.7816164E-02  0.1312668E+00
        -11   -1    0    0    0    0  0.00000000000E+00  0.00000000000E+00  0.45593999997E+02  0.45594000000E+02  0.51100000000E-03 0. -1.
         11   -1    0    0    0    0 -0.00000000000E+00 -0.00000000000E+00 -0.45593999997E+02  0.45594000000E+02  0.51100000000E-03 0.  1.
    9900012    2    1    2    0    0  0.27484444116E+00  0.42589303349E+02  0.83486846768E+01  0.47787253058E+02  0.19999917995E+02 0.  0.
         12    1    1    2    0    0 -0.27484444116E+00 -0.42589303349E+02 -0.83486846768E+01  0.43400746942E+02  0.00000000000E+00 0. -1.
         11    1    3    3    0    0  0.24064751514E+01  0.64050211836E+01 -0.39490072074E+01  0.79000048862E+01  0.51100000000E-03 0. -1.
        -11    1    3    3    0    0  0.36035148226E+00  0.14670612085E+02  0.10717816163E+02  0.18172184671E+02  0.51100000000E-03 0.  1.
        -12    1    3    3    0    0 -0.24919821925E+01  0.21513670081E+02  0.15798757214E+01  0.21715063502E+02  0.00000000000E+00 0.  1.
</event>
<event>
 7    1  0.2706925E-010  0.4778727E+02  0.7816164E-02  0.1312668E+00
        -11   -1    0    0    0    0  0.00000000000E+00  0.00000000000E+00  0.45593999997E+02  0.45594000000E+02  0.51100000000E-03 0. -1.
         11   -1    0    0    0    0 -0.00000000000E+00 -0.00000000000E+00 -0.45593999997E+02  0.45594000000E+02  0.51100000000E-03 0.  1.
    9900012    2    1    2    0    0 -0.23651442465E+02 -0.25343804302E+01 -0.36301644416E+02  0.47787271870E+02  0.20000003766E+02 0.  0.
         12    1    1    2    0    0  0.23651442465E+02  0.25343804302E+01  0.36301644416E+02  0.43400728130E+02  0.00000000000E+00 0. -1.
         11    1    3    3    0    0 -0.51801836871E+01 -0.25805114928E+01 -0.54455168994E+01  0.79465084886E+01  0.51100000000E-03 0. -1.
        -11    1    3    3    0    0 -0.16385134390E+02 -0.80203459468E+00 -0.10759661082E+02  0.19618516645E+02  0.51100000000E-03 0.  1.
        -12    1    3    3    0    0 -0.20861243882E+01  0.84816565722E+00 -0.20096466435E+02  0.20222246737E+02  0.00000000000E+00 0.  1.
</event>
<event>
 7    1  0.2706925E-010  0.4778727E+02  0.7816164E-02  0.1312668E+00
        -11   -1    0    0    0    0  0.00000000000E+00  0.00000000000E+00  0.45593999997E+02  0.45594000000E+02  0.51100000000E-03 0.  1.
         11   -1    0    0    0    0 -0.00000000000E+00 -0.00000000000E+00 -0.45593999997E+02  0.45594000000E+02  0.51100000000E-03 0. -1.
    9900012    2    1    2    0    0  0.51326427531E+01  0.42356973927E+02  0.79477344677E+01  0.47787265616E+02  0.19999975250E+02 0.  0.
         12    1    1    2    0    0 -0.51326427531E+01 -0.42356973927E+02 -0.79477344677E+01  0.43400734384E+02  0.00000000000E+00 0. -1.
         11    1    3    3    0    0  0.83742545707E+01  0.16238819275E+02  0.14716540117E+00  0.18271536579E+02  0.51100000000E-03 0. -1.
        -11    1    3    3    0    0 -0.33743060461E+01  0.22767437321E+02  0.10415726733E+02  0.25263204608E+02  0.51100000000E-03 0.  1.
        -12    1    3    3    0    0  0.13269422856E+00  0.33507173316E+01 -0.26151576663E+01  0.42525244284E+01  0.00000000000E+00 0.  1.
</event>
<event>
 7    1  0.2706925E-010  0.4778727E+02  0.7816164E-02  0.1312668E+00
        -11   -1    0    0    0    0  0.00000000000E+00  0.00000000000E+00  0.45593999997E+02  0.45594000000E+02  0.51100000000E-03 0.  1.
         11   -1    0    0    0    0 -0.00000000000E+00 -0.00000000000E+00 -0.45593999997E+02  0.45594000000E+02  0.51100000000E-03 0. -1.
    9900012    2    1    2    0    0  0.19728151577E+02  0.11288526423E+02  0.36972859830E+02  0.47787272385E+02  0.20000006113E+02 0.  0.
         12    1    1    2    0    0 -0.19728151577E+02 -0.11288526423E+02 -0.36972859830E+02  0.43400727615E+02  0.00000000000E+00 0. -1.
         11    1    3    3    0    0  0.33221088760E+01 -0.40106878252E+01  0.13141255655E+02  0.14135580096E+02  0.51100000000E-03 0. -1.
        -11    1    3    3    0    0  0.14555772216E+02  0.10123018848E+02  0.20949529322E+02  0.27445014019E+02  0.51100000000E-03 0.  1.
         12    1    3    3    0    0  0.18502704853E+01  0.51761954002E+01  0.28820748534E+01  0.62066782702E+01  0.00000000000E+00 0. -1.
</event>
<event>
 7    1  0.2706925E-010  0.4778731E+02  0.7816164E-02  0.1312668E+00
        -11   -1    0    0    0    0  0.00000000000E+00  0.00000000000E+00  0.45593999997E+02  0.45594000000E+02  0.51100000000E-03 0. -1.
         11   -1    0    0    0    0 -0.00000000000E+00 -0.00000000000E+00 -0.45593999997E+02  0.45594000000E+02  0.51100000000E-03 0.  1.
    9900012    2    1    2    0    0 -0.13981155826E+02 -0.70157792313E+01 -0.40483654117E+02  0.47787307297E+02  0.20000165288E+02 0.  0.
         12    1    1    2    0    0  0.13981155826E+02  0.70157792313E+01  0.40483654117E+02  0.43400692703E+02  0.00000000000E+00 0. -1.
         11    1    3    3    0    0 -0.82576613011E+00 -0.71312909018E+00 -0.11817774598E+01  0.16084281229E+01  0.51100000000E-03 0. -1.
        -11    1    3    3    0    0 -0.94807752576E+00 -0.97308084371E+01 -0.88293556855E+01  0.13173648163E+02  0.51100000000E-03 0.  1.
        -12    1    3    3    0    0 -0.12207312170E+02  0.34281582960E+01 -0.30472520972E+02  0.33005231011E+02  0.00000000000E+00 0.  1.
</event>
<event>
 7    1  0.2706925E-010  0.4778727E+02  0.7816164E-02  0.1312668E+00
        -11   -1    0    0    0    0  0.00000000000E+00  0.00000000000E+00  0.45593999997E+02  0.45594000000E+02  0.51100000000E-03 0.  1.
         11   -1    0    0    0    0 -0.00000000000E+00 -0.00000000000E+00 -0.45593999997E+02  0.45594000000E+02  0.51100000000E-03 0. -1.
    9900012    2    1    2    0    0 -0.23162578083E+02  0.57739230133E+01  0.36246110352E+02  0.47787265835E+02  0.19999976248E+02 0.  0.
         12    1    1    2    0    0  0.23162578083E+02 -0.57739230133E+01 -0.36246110352E+02  0.43400734165E+02  0.00000000000E+00 0. -1.
         11    1    3    3    0    0 -0.61180111378E+00  0.75500284637E+01  0.12569981489E+02  0.14675887207E+02  0.51100000000E-03 0. -1.
        -11    1    3    3    0    0 -0.17640094632E+02  0.68692504550E+00  0.17993910433E+02  0.25207649981E+02  0.51100000000E-03 0.  1.
         12    1    3    3    0    0 -0.49106823373E+01 -0.24630304959E+01  0.56822184304E+01  0.79037286474E+01  0.00000000000E+00 0. -1.
</event>
<event>
 7    1  0.2706925E-010  0.4778727E+02  0.7816164E-02  0.1312668E+00
        -11   -1    0    0    0    0  0.00000000000E+00  0.00000000000E+00  0.45593999997E+02  0.45594000000E+02  0.51100000000E-03 0.  1.
         11   -1    0    0    0    0 -0.00000000000E+00 -0.00000000000E+00 -0.45593999997E+02  0.45594000000E+02  0.51100000000E-03 0. -1.
    9900012    2    1    2    0    0 -0.42098801092E+02 -0.65495554646E+01  0.82714837785E+01  0.47787272195E+02  0.20000005245E+02 0.  0.
         12    1    1    2    0    0  0.42098801092E+02  0.65495554646E+01 -0.82714837785E+01  0.43400727805E+02  0.00000000000E+00 0. -1.
         11    1    3    3    0    0 -0.57316502135E+01 -0.77731743212E+01  0.18899814438E+01  0.98410407639E+01  0.51100000000E-03 0. -1.
        -11    1    3    3    0    0 -0.29053952029E+02  0.20885793508E+01  0.16141349874E+01  0.29173613493E+02  0.51100000000E-03 0.  1.
        -12    1    3    3    0    0 -0.73131988489E+01 -0.86496049410E+00  0.47673673473E+01  0.87726179379E+01  0.00000000000E+00 0.  1.
</event>
<event>
 7    1  0.2706925E-010  0.4778727E+02  0.7816164E-02  0.1312668E+00
        -11   -1    0    0    0    0  0.00000000000E+00  0.00000000000E+00  0.45593999997E+02  0.45594000000E+02  0.51100000000E-03 0. -1.
         11   -1    0    0    0    0 -0.00000000000E+00 -0.00000000000E+00 -0.45593999997E+02  0.45594000000E+02  0.51100000000E-03 0.  1.
    9900012    2    1    2    0    0  0.16112668637E+01  0.10283186186E+02 -0.42134109015E+02  0.47787271417E+02  0.20000001697E+02 0.  0.
         12    1    1    2    0    0 -0.16112668637E+01 -0.10283186186E+02  0.42134109015E+02  0.43400728583E+02  0.00000000000E+00 0. -1.
         11    1    3    3    0    0  0.43637294675E+01  0.32270628730E+01 -0.25717109710E+01  0.60058111218E+01  0.51100000000E-03 0. -1.
        -11    1    3    3    0    0 -0.67270128387E+01  0.25964823520E+01 -0.25569408149E+02  0.26566690718E+02  0.51100000000E-03 0.  1.
        -12    1    3    3    0    0  0.39745502349E+01  0.44596409612E+01 -0.13992989895E+02  0.15214769577E+02  0.00000000000E+00 0.  1.
</event>
<event>
 7    1  0.2706925E-010  0.4778727E+02  0.7816164E-02  0.1312668E+00
        -11   -1    0    0    0    0  0.00000000000E+00  0.00000000000E+00  0.45593999997E+02  0.45594000000E+02  0.51100000000E-03 0.  1.
         11   -1    0    0    0    0 -0.00000000000E+00 -0.00000000000E+00 -0.45593999997E+02  0.45594000000E+02  0.51100000000E-03 0. -1.
    9900012    2    1    2    0    0  0.49753169225E+01 -0.41796056827E+02  0.10581082030E+02  0.47787269112E+02  0.19999991187E+02 0.  0.
         12    1    1    2    0    0 -0.49753169225E+01  0.41796056827E+02 -0.10581082030E+02  0.43400730888E+02  0.00000000000E+00 0. -1.
         11    1    3    3    0    0 -0.12510739945E+01 -0.27288863231E+02  0.50115027695E+01  0.27773411797E+02  0.51100000000E-03 0. -1.
        -11    1    3    3    0    0  0.54579277399E+01 -0.96420007581E+01  0.87780935587E+01  0.14135490109E+02  0.51100000000E-03 0.  1.
         12    1    3    3    0    0  0.76846317717E+00 -0.48651928371E+01 -0.32085142982E+01  0.58783672051E+01  0.00000000000E+00 0. -1.
</event>
<event>
 7    1  0.2706925E-010  0.4778727E+02  0.7816164E-02  0.1312668E+00
        -11   -1    0    0    0    0  0.00000000000E+00  0.00000000000E+00  0.45593999997E+02  0.45594000000E+02  0.51100000000E-03 0.  1.
         11   -1    0    0    0    0 -0.00000000000E+00 -0.00000000000E+00 -0.45593999997E+02  0.45594000000E+02  0.51100000000E-03 0. -1.
    9900012    2    1    2    0    0 -0.13102229224E+02 -0.26868640622E+02  0.31464754128E+02  0.47787274063E+02  0.20000013762E+02 0.  0.
         12    1    1    2    0    0  0.13102229224E+02  0.26868640622E+02 -0.31464754128E+02  0.43400725937E+02  0.00000000000E+00 0. -1.
         11    1    3    3    0    0  0.28626827433E+01 -0.38304957374E+00  0.12430449460E+01  0.31443346615E+01  0.51100000000E-03 0. -1.
        -11    1    3    3    0    0 -0.13135732924E+02 -0.12576847579E+02  0.20687421775E+02  0.27544400418E+02  0.51100000000E-03 0.  1.
        -12    1    3    3    0    0 -0.28291790428E+01 -0.13908743470E+02  0.95342874078E+01  0.17098538983E+02  0.00000000000E+00 0.  1.
</event>
<event>
 7    1  0.2706925E-010  0.4778727E+02  0.7816164E-02  0.1312668E+00
        -11   -1    0    0    0    0  0.00000000000E+00  0.00000000000E+00  0.45593999997E+02  0.45594000000E+02  0.51100000000E-03 0.  1.
         11   -1    0    0    0    0 -0.00000000000E+00 -0.00000000000E+00 -0.45593999997E+02  0.45594000000E+02  0.51100000000E-03 0. -1.
    9900012    2    1    2    0    0 -0.40479560653E+02 -0.12540701575E+02 -0.93679834890E+01  0.47787272572E+02  0.20000006963E+02 0.  0.
         12    1    1    2    0    0  0.40479560653E+02  0.12540701575E+02  0.93679834890E+01  0.43400727428E+02  0.00000000000E+00 0. -1.
         11    1    3    3    0    0 -0.21987608189E+02  0.19237010015E+01 -0.47316364305E+01  0.22573079608E+02  0.51100000000E-03 0. -1.
        -11    1    3    3    0    0 -0.68055183650E+01 -0.60139262070E+01 -0.57507376792E+01  0.10749575469E+02  0.51100000000E-03 0.  1.
         12    1    3    3    0    0 -0.11686434099E+02 -0.84504763694E+01  0.11143906207E+01  0.14464617495E+02  0.00000000000E+00 0. -1.
</event>
<event>
 7    1  0.2706925E-010  0.4778727E+02  0.7816164E-02  0.1312668E+00
        -11   -1    0    0    0    0  0.00000000000E+00  0.00000000000E+00  0.45593999997E+02  0.45594000000E+02  0.51100000000E-03 0.  1.
         11   -1    0    0    0    0 -0.00000000000E+00 -0.00000000000E+00 -0.45593999997E+02  0.45594000000E+02  0.51100000000E-03 0. -1.
    9900012    2    1    2    0    0 -0.41231953272E+02  0.64810086346E+01  0.11897298193E+02  0.47787272497E+02  0.20000006621E+02 0.  0.
         12    1    1    2    0    0  0.41231953272E+02 -0.64810086346E+01 -0.11897298193E+02  0.43400727503E+02  0.00000000000E+00 0. -1.
         11    1    3    3    0    0 -0.16124288023E+02  0.97119974233E+01  0.10952321290E+02  0.21777715677E+02  0.51100000000E-03 0. -1.
        -11    1    3    3    0    0 -0.18399111098E+02  0.26425616442E+00  0.12068263485E+01  0.18440540952E+02  0.51100000000E-03 0.  1.
         12    1    3    3    0    0 -0.67085541506E+01 -0.34952449531E+01 -0.26184944532E+00  0.75690158677E+01  0.00000000000E+00 0. -1.
</event>
<event>
 7    1  0.2706925E-010  0.4778727E+02  0.7816164E-02  0.1312668E+00
        -11   -1    0    0    0    0  0.00000000000E+00  0.00000000000E+00  0.45593999997E+02  0.45594000000E+02  0.51100000000E-03 0.  1.
         11   -1    0    0    0    0 -0.00000000000E+00 -0.00000000000E+00 -0.45593999997E+02  0.45594000000E+02  0.51100000000E-03 0. -1.
    9900012    2    1    2    0    0 -0.37255440584E+02  0.22099506462E+02  0.26957883946E+01  0.47787270582E+02  0.19999997892E+02 0.  0.
         12    1    1    2    0    0  0.37255440584E+02 -0.22099506462E+02 -0.26957883946E+01  0.43400729418E+02  0.00000000000E+00 0. -1.
         11    1    3    3    0    0 -0.43020890693E+01  0.36617883544E+01 -0.63436046032E+01  0.84945855659E+01  0.51100000000E-03 0. -1.
        -11    1    3    3    0    0 -0.32158071763E+02  0.17058192549E+02  0.76903613093E+01  0.37205714210E+02  0.51100000000E-03 0.  1.
         12    1    3    3    0    0 -0.79527975163E+00  0.13795255590E+01  0.13490316885E+01  0.20869708067E+01  0.00000000000E+00 0. -1.
</event>
<event>
 7    1  0.2706925E-010  0.4778727E+02  0.7816164E-02  0.1312668E+00
        -11   -1    0    0    0    0  0.00000000000E+00  0.00000000000E+00  0.45593999997E+02  0.45594000000E+02  0.51100000000E-03 0.  1.
         11   -1    0    0    0    0 -0.00000000000E+00 -0.00000000000E+00 -0.45593999997E+02  0.45594000000E+02  0.51100000000E-03 0. -1.
    9900012    2    1    2    0    0  0.81891211192E+01  0.35090332158E+02  0.24191526313E+02  0.47787273496E+02  0.20000011178E+02 0.  0.
         12    1    1    2    0    0 -0.81891211192E+01 -0.35090332158E+02 -0.24191526313E+02  0.43400726504E+02  0.00000000000E+00 0. -1.
         11    1    3    3    0    0  0.66436534319E+01  0.36034712188E+01  0.82954214161E+01  0.11222172360E+02  0.51100000000E-03 0. -1.
        -11    1    3    3    0    0  0.31419574350E+01  0.26331822815E+02  0.94357374152E+01  0.28147289925E+02  0.51100000000E-03 0.  1.
         12    1    3    3    0    0 -0.15964897477E+01  0.51550381243E+01  0.64603674821E+01  0.84178112109E+01  0.00000000000E+00 0. -1.
</event>
<event>
 7    1  0.2706925E-010  0.4778727E+02  0.7816164E-02  0.1312668E+00
        -11   -1    0    0    0    0  0.00000000000E+00  0.00000000000E+00  0.45593999997E+02  0.45594000000E+02  0.51100000000E-03 0.  1.
         11   -1    0    0    0    0 -0.00000000000E+00 -0.00000000000E+00 -0.45593999997E+02  0.45594000000E+02  0.51100000000E-03 0. -1.
    9900012    2    1    2    0    0  0.11882425312E+02 -0.13563894760E+02  0.39477235523E+02  0.47787269628E+02  0.19999993541E+02 0.  0.
         12    1    1    2    0    0 -0.11882425312E+02  0.13563894760E+02 -0.39477235523E+02  0.43400730372E+02  0.00000000000E+00 0. -1.
         11    1    3    3    0    0 -0.10292683295E+01 -0.10576061898E+02  0.10182301038E+02  0.14717055862E+02  0.51100000000E-03 0. -1.
        -11    1    3    3    0    0  0.99614770119E+01 -0.45899840378E+01  0.26575188601E+02  0.28749602209E+02  0.51100000000E-03 0.  1.
         12    1    3    3    0    0  0.29502166292E+01  0.16021511764E+01  0.27197458843E+01  0.43206115570E+01  0.00000000000E+00 0. -1.
</event>
<event>
 7    1  0.2706925E-010  0.4778726E+02  0.7816164E-02  0.1312668E+00
        -11   -1    0    0    0    0  0.00000000000E+00  0.00000000000E+00  0.45593999997E+02  0.45594000000E+02  0.51100000000E-03 0.  1.
         11   -1    0    0    0    0 -0.00000000000E+00 -0.00000000000E+00 -0.45593999997E+02  0.45594000000E+02  0.51100000000E-03 0. -1.
    9900012    2    1    2    0    0 -0.10893113090E+02 -0.18667229167E+02  0.37636398883E+02  0.47787264079E+02  0.19999968242E+02 0.  0.
         12    1    1    2    0    0  0.10893113090E+02  0.18667229167E+02 -0.37636398883E+02  0.43400735921E+02  0.00000000000E+00 0. -1.
         11    1    3    3    0    0 -0.73228952355E+01 -0.12226565120E+02  0.16382016142E+02  0.21713685601E+02  0.51100000000E-03 0. -1.
        -11    1    3    3    0    0 -0.52117740814E+01  0.24502408033E+01  0.10896798918E+02  0.12325035334E+02  0.51100000000E-03 0.  1.
        -12    1    3    3    0    0  0.16415562271E+01 -0.88909048510E+01  0.10357583824E+02  0.13748543144E+02  0.00000000000E+00 0.  1.
</event>
<event>
 7    1  0.2706925E-010  0.4778727E+02  0.7816164E-02  0.1312668E+00
        -11   -1    0    0    0    0  0.00000000000E+00  0.00000000000E+00  0.45593999997E+02  0.45594000000E+02  0.51100000000E-03 0.  1.
         11   -1    0    0    0    0 -0.00000000000E+00 -0.00000000000E+00 -0.45593999997E+02  0.45594000000E+02  0.51100000000E-03 0. -1.
    9900012    2    1    2    0    0 -0.20185073767E+02 -0.31681697206E+02  0.21736053600E+02  0.47787272277E+02  0.20000005618E+02 0.  0.
         12    1    1    2    0    0  0.20185073767E+02  0.31681697206E+02 -0.21736053600E+02  0.43400727723E+02  0.00000000000E+00 0. -1.
         11    1    3    3    0    0 -0.12996625501E+01 -0.14909606193E+02  0.76411286050E+01  0.16803937818E+02  0.51100000000E-03 0. -1.
        -11    1    3    3    0    0 -0.18020434222E+02 -0.18385590765E+02  0.12882949745E+02  0.28787781988E+02  0.51100000000E-03 0.  1.
        -12    1    3    3    0    0 -0.86497699425E+00  0.16134997517E+01  0.12119752491E+01  0.21955524712E+01  0.00000000000E+00 0.  1.
</event>
<event>
 7    1  0.2706925E-010  0.4778727E+02  0.7816164E-02  0.1312668E+00
        -11   -1    0    0    0    0  0.00000000000E+00  0.00000000000E+00  0.45593999997E+02  0.45594000000E+02  0.51100000000E-03 0. -1.
         11   -1    0    0    0    0 -0.00000000000E+00 -0.00000000000E+00 -0.45593999997E+02  0.45594000000E+02  0.51100000000E-03 0.  1.
    9900012    2    1    2    0    0 -0.38782595535E+02  0.71517556384E+01 -0.18121429231E+02  0.47787268180E+02  0.19999986940E+02 0.  0.
         12    1    1    2    0    0  0.38782595535E+02 -0.71517556384E+01  0.18121429231E+02  0.43400731820E+02  0.00000000000E+00 0. -1.
         11    1    3    3    0    0 -0.18600493268E+02 -0.14628535633E+00 -0.13692724959E+01  0.18651398249E+02  0.51100000000E-03 0. -1.
        -11    1    3    3    0    0 -0.14167069464E+02  0.66580385282E+01 -0.16964573811E+02  0.23083156177E+02  0.51100000000E-03 0.  1.
        -12    1    3    3    0    0 -0.60150328032E+01  0.64000246649E+00  0.21241707526E+00  0.60527137546E+01  0.00000000000E+00 0.  1.
</event>
<event>
 7    1  0.2706925E-010  0.4778727E+02  0.7816164E-02  0.1312668E+00
        -11   -1    0    0    0    0  0.00000000000E+00  0.00000000000E+00  0.45593999997E+02  0.45594000000E+02  0.51100000000E-03 0. -1.
         11   -1    0    0    0    0 -0.00000000000E+00 -0.00000000000E+00 -0.45593999997E+02  0.45594000000E+02  0.51100000000E-03 0.  1.
    9900012    2    1    2    0    0  0.22996409375E+02 -0.35243173120E+02  0.10616360593E+02  0.47787271804E+02  0.20000003462E+02 0.  0.
         12    1    1    2    0    0 -0.22996409375E+02  0.35243173120E+02 -0.10616360593E+02  0.43400728196E+02  0.00000000000E+00 0. -1.
         11    1    3    3    0    0  0.69650654622E+01 -0.22150398947E+02  0.10655031977E+02  0.25547642104E+02  0.51100000000E-03 0. -1.
        -11    1    3    3    0    0  0.78216651953E+01 -0.10285836140E+02  0.25795595946E+01  0.13176911607E+02  0.51100000000E-03 0.  1.
         12    1    3    3    0    0  0.82096787176E+01 -0.28069380332E+01 -0.26182309790E+01  0.90627180927E+01  0.00000000000E+00 0. -1.
</event>
<event>
 7    1  0.2706925E-010  0.4778727E+02  0.7816164E-02  0.1312668E+00
        -11   -1    0    0    0    0  0.00000000000E+00  0.00000000000E+00  0.45593999997E+02  0.45594000000E+02  0.51100000000E-03 0.  1.
         11   -1    0    0    0    0 -0.00000000000E+00 -0.00000000000E+00 -0.45593999997E+02  0.45594000000E+02  0.51100000000E-03 0. -1.
    9900012    2    1    2    0    0  0.36509987478E+02 -0.57670994048E+01  0.22746092510E+02  0.47787270217E+02  0.19999996229E+02 0.  0.
         12    1    1    2    0    0 -0.36509987478E+02  0.57670994048E+01 -0.22746092510E+02  0.43400729783E+02  0.00000000000E+00 0. -1.
         11    1    3    3    0    0 -0.48244046917E+00  0.13337233947E+01 -0.13267060122E-01  0.14183593253E+01  0.51100000000E-03 0. -1.
        -11    1    3    3    0    0  0.25552080176E+02 -0.38456386041E+01  0.72768532583E+01  0.26844931201E+02  0.51100000000E-03 0.  1.
        -12    1    3    3    0    0  0.11440347771E+02 -0.32551841953E+01  0.15482506312E+02  0.19523979691E+02  0.00000000000E+00 0.  1.
</event>
<event>
 7    1  0.2706925E-010  0.4778727E+02  0.7816164E-02  0.1312668E+00
        -11   -1    0    0    0    0  0.00000000000E+00  0.00000000000E+00  0.45593999997E+02  0.45594000000E+02  0.51100000000E-03 0.  1.
         11   -1    0    0    0    0 -0.00000000000E+00 -0.00000000000E+00 -0.45593999997E+02  0.45594000000E+02  0.51100000000E-03 0. -1.
    9900012    2    1    2    0    0  0.23592695196E+02  0.15120743563E+02  0.33141683827E+02  0.47787270059E+02  0.19999995507E+02 0.  0.
         12    1    1    2    0    0 -0.23592695196E+02 -0.15120743563E+02 -0.33141683827E+02  0.43400729941E+02  0.00000000000E+00 0. -1.
         11    1    3    3    0    0  0.41636132742E+01 -0.15934693037E+01  0.16406528196E+01  0.47504275444E+01  0.51100000000E-03 0. -1.
        -11    1    3    3    0    0  0.86557441233E+01  0.16384140726E+02  0.19251464127E+02  0.26720420000E+02  0.51100000000E-03 0.  1.
        -12    1    3    3    0    0  0.10773337799E+02  0.33007214140E+00  0.12249566880E+02  0.16316422515E+02  0.00000000000E+00 0.  1.
</event>
<event>
 7    1  0.2706925E-010  0.4778728E+02  0.7816164E-02  0.1312668E+00
        -11   -1    0    0    0    0  0.00000000000E+00  0.00000000000E+00  0.45593999997E+02  0.45594000000E+02  0.51100000000E-03 0.  1.
         11   -1    0    0    0    0 -0.00000000000E+00 -0.00000000000E+00 -0.45593999997E+02  0.45594000000E+02  0.51100000000E-03 0. -1.
    9900012    2    1    2    0    0  0.10971387521E+00  0.10501757629E+02  0.42110848447E+02  0.47787279875E+02  0.20000040263E+02 0.  0.
         12    1    1    2    0    0 -0.10971387521E+00 -0.10501757629E+02 -0.42110848447E+02  0.43400720125E+02  0.00000000000E+00 0. -1.
         11    1    3    3    0    0 -0.26499445008E+01  0.12111895766E+00  0.42720039387E+00  0.26868896696E+01  0.51100000000E-03 0. -1.
        -11    1    3    3    0    0  0.48110768025E+01  0.11693332109E+02  0.40430157541E+02  0.42361280846E+02  0.51100000000E-03 0.  1.
        -12    1    3    3    0    0 -0.20514184265E+01 -0.13126934381E+01  0.12534905117E+01  0.27391093600E+01  0.00000000000E+00 0.  1.
</event>
<event>
 7    1  0.2706925E-010  0.4778727E+02  0.7816164E-02  0.1312668E+00
        -11   -1    0    0    0    0  0.00000000000E+00  0.00000000000E+00  0.45593999997E+02  0.45594000000E+02  0.51100000000E-03 0. -1.
         11   -1    0    0    0    0 -0.00000000000E+00 -0.00000000000E+00 -0.45593999997E+02  0.45594000000E+02  0.51100000000E-03 0.  1.
    9900012    2    1    2    0    0  0.14553595099E+02 -0.40761344493E+02 -0.32138567668E+01  0.47787271775E+02  0.20000003330E+02 0.  0.
         12    1    1    2    0    0 -0.14553595099E+02  0.40761344493E+02  0.32138567668E+01  0.43400728225E+02  0.00000000000E+00 0. -1.
         11    1    3    3    0    0 -0.11317510955E+01 -0.17389169921E+02 -0.19933853617E+01  0.17539603090E+02  0.51100000000E-03 0. -1.
        -11    1    3    3    0    0  0.11696510211E+02 -0.21723710032E+02  0.21579617073E+01  0.24766605090E+02  0.51100000000E-03 0.  1.
         12    1    3    3    0    0  0.39888359831E+01 -0.16484645391E+01 -0.33784331124E+01  0.54810635949E+01  0.00000000000E+00 0. -1.
</event>
<event>
 7    1  0.2706925E-010  0.4778727E+02  0.7816164E-02  0.1312668E+00
        -11   -1    0    0    0    0  0.00000000000E+00  0.00000000000E+00  0.45593999997E+02  0.45594000000E+02  0.51100000000E-03 0.  1.
         11   -1    0    0    0    0 -0.00000000000E+00 -0.00000000000E+00 -0.45593999997E+02  0.45594000000E+02  0.51100000000E-03 0. -1.
    9900012    2    1    2    0    0 -0.39174481048E+02  0.17591329957E+02 -0.62871863439E+01  0.47787267666E+02  0.19999984595E+02 0.  0.
         12    1    1    2    0    0  0.39174481048E+02 -0.17591329957E+02  0.62871863439E+01  0.43400732334E+02  0.00000000000E+00 0. -1.
         11    1    3    3    0    0  0.12156896537E+01  0.32862487332E+01 -0.23087001154E+01  0.41961206554E+01  0.51100000000E-03 0. -1.
        -11    1    3    3    0    0 -0.23430822259E+02  0.10769524724E+02 -0.48746780019E+01  0.26244019898E+02  0.51100000000E-03 0.  1.
         12    1    3    3    0    0 -0.16959348443E+02  0.35355564994E+01  0.89619177338E+00  0.17347127113E+02  0.00000000000E+00 0. -1.
</event>
<event>
 7    1  0.2706925E-010  0.4778727E+02  0.7816164E-02  0.1312668E+00
        -11   -1    0    0    0    0  0.00000000000E+00  0.00000000000E+00  0.45593999997E+02  0.45594000000E+02  0.51100000000E-03 0.  1.
         11   -1    0    0    0    0 -0.00000000000E+00 -0.00000000000E+00 -0.45593999997E+02  0.45594000000E+02  0.51100000000E-03 0. -1.
    9900012    2    1    2    0    0 -0.91065740191E+00  0.25631145552E+02  0.35011970754E+02  0.47787274023E+02  0.20000013582E+02 0.  0.
         12    1    1    2    0    0  0.91065740191E+00 -0.25631145552E+02 -0.35011970754E+02  0.43400725977E+02  0.00000000000E+00 0. -1.
         11    1    3    3    0    0  0.53919616045E+01  0.51565678987E+01  0.66429315723E+01  0.99895937141E+01  0.51100000000E-03 0. -1.
        -11    1    3    3    0    0 -0.58559503189E+01  0.20672947014E+02  0.29540632576E+02  0.36528233815E+02  0.51100000000E-03 0.  1.
        -12    1    3    3    0    0 -0.44666868750E+00 -0.19836936154E+00 -0.11715933941E+01  0.12694464940E+01  0.00000000000E+00 0.  1.
</event>
<event>
 7    1  0.2706925E-010  0.4778727E+02  0.7816164E-02  0.1312668E+00
        -11   -1    0    0    0    0  0.00000000000E+00  0.00000000000E+00  0.45593999997E+02  0.45594000000E+02  0.51100000000E-03 0. -1.
         11   -1    0    0    0    0 -0.00000000000E+00 -0.00000000000E+00 -0.45593999997E+02  0.45594000000E+02  0.51100000000E-03 0.  1.
    9900012    2    1    2    0    0 -0.36768318628E+02 -0.22026165024E+01  0.22953485386E+02  0.47787271140E+02  0.20000000436E+02 0.  0.
         12    1    1    2    0    0  0.36768318628E+02  0.22026165024E+01 -0.22953485386E+02  0.43400728860E+02  0.00000000000E+00 0. -1.
         11    1    3    3    0    0 -0.56918338974E+01 -0.78764392706E+01  0.28554018635E+01  0.10128602508E+02  0.51100000000E-03 0. -1.
        -11    1    3    3    0    0 -0.25582194135E+02  0.54861041297E+01  0.14986572454E+02  0.30152004071E+02  0.51100000000E-03 0.  1.
         12    1    3    3    0    0 -0.54942905956E+01  0.18771863856E+00  0.51115110683E+01  0.75066645614E+01  0.00000000000E+00 0. -1.
</event>
<event>
 7    1  0.2706925E-010  0.4778727E+02  0.7816164E-02  0.1312668E+00
        -11   -1    0    0    0    0  0.00000000000E+00  0.00000000000E+00  0.45593999997E+02  0.45594000000E+02  0.51100000000E-03 0.  1.
         11   -1    0    0    0    0 -0.00000000000E+00 -0.00000000000E+00 -0.45593999997E+02  0.45594000000E+02  0.51100000000E-03 0. -1.
    9900012    2    1    2    0    0  0.28225018514E+02  0.14887389091E+02  0.29416619986E+02  0.47787267800E+02  0.19999985209E+02 0.  0.
         12    1    1    2    0    0 -0.28225018514E+02 -0.14887389091E+02 -0.29416619986E+02  0.43400732200E+02  0.00000000000E+00 0. -1.
         11    1    3    3    0    0  0.41116733426E+01  0.15404001252E+01  0.12792293167E+02  0.13524845838E+02  0.51100000000E-03 0. -1.
        -11    1    3    3    0    0  0.17736508666E+02  0.64733944007E+01  0.54014095267E+01  0.19638324772E+02  0.51100000000E-03 0.  1.
        -12    1    3    3    0    0  0.63768365051E+01  0.68735945656E+01  0.11222917293E+02  0.14624097190E+02  0.00000000000E+00 0.  1.
</event>
<event>
 7    1  0.2706925E-010  0.4778727E+02  0.7816164E-02  0.1312668E+00
        -11   -1    0    0    0    0  0.00000000000E+00  0.00000000000E+00  0.45593999997E+02  0.45594000000E+02  0.51100000000E-03 0.  1.
         11   -1    0    0    0    0 -0.00000000000E+00 -0.00000000000E+00 -0.45593999997E+02  0.45594000000E+02  0.51100000000E-03 0. -1.
    9900012    2    1    2    0    0 -0.35881081623E+02  0.21236461909E+02  0.12049219465E+02  0.47787273939E+02  0.20000013199E+02 0.  0.
         12    1    1    2    0    0  0.35881081623E+02 -0.21236461909E+02 -0.12049219465E+02  0.43400726061E+02  0.00000000000E+00 0. -1.
         11    1    3    3    0    0 -0.74626327132E-01 -0.24596933199E+01 -0.11892626361E+00  0.24636972286E+01  0.51100000000E-03 0. -1.
        -11    1    3    3    0    0 -0.85365688705E+01  0.52654205901E+01 -0.53270471122E+00  0.10043975141E+02  0.51100000000E-03 0.  1.
         12    1    3    3    0    0 -0.27269886426E+02  0.18430734639E+02  0.12700850439E+02  0.35279601569E+02  0.00000000000E+00 0. -1.
</event>
<event>
 7    1  0.2706925E-010  0.4778727E+02  0.7816164E-02  0.1312668E+00
        -11   -1    0    0    0    0  0.00000000000E+00  0.00000000000E+00  0.45593999997E+02  0.45594000000E+02  0.51100000000E-03 0. -1.
         11   -1    0    0    0    0 -0.00000000000E+00 -0.00000000000E+00 -0.45593999997E+02  0.45594000000E+02  0.51100000000E-03 0.  1.
    9900012    2    1    2    0    0 -0.37573364482E+02  0.17439666057E+02 -0.12950815174E+02  0.47787270924E+02  0.19999999451E+02 0.  0.
         12    1    1    2    0    0  0.37573364482E+02 -0.17439666057E+02  0.12950815174E+02  0.43400729076E+02  0.00000000000E+00 0. -1.
         11    1    3    3    0    0 -0.69563249846E+01 -0.25740142405E+01 -0.64526274261E+01  0.98311956324E+01  0.51100000000E-03 0. -1.
        -11    1    3    3    0    0 -0.22216021066E+02  0.17378249572E+02 -0.72406525599E+01  0.29120133927E+02  0.51100000000E-03 0.  1.
        -12    1    3    3    0    0 -0.84010184318E+01  0.26354307250E+01  0.74246481226E+00  0.88359413644E+01  0.00000000000E+00 0.  1.
</event>
<event>
 7    1  0.2706925E-010  0.4778728E+02  0.7816164E-02  0.1312668E+00
        -11   -1    0    0    0    0  0.00000000000E+00  0.00000000000E+00  0.45593999997E+02  0.45594000000E+02  0.51100000000E-03 0.  1.
         11   -1    0    0    0    0 -0.00000000000E+00 -0.00000000000E+00 -0.45593999997E+02  0.45594000000E+02  0.51100000000E-03 0. -1.
    9900012    2    1    2    0    0 -0.16845147046E+02 -0.39814033612E+02  0.38348932703E+01  0.47787278141E+02  0.20000032356E+02 0.  0.
         12    1    1    2    0    0  0.16845147046E+02  0.39814033612E+02 -0.38348932703E+01  0.43400721859E+02  0.00000000000E+00 0. -1.
         11    1    3    3    0    0 -0.89122900056E+01 -0.74250473129E+01 -0.28048610293E+01  0.11934298739E+02  0.51100000000E-03 0. -1.
        -11    1    3    3    0    0 -0.90433105134E+01 -0.14213155558E+02  0.13995082305E+01  0.16904256254E+02  0.51100000000E-03 0.  1.
         12    1    3    3    0    0  0.11104534733E+01 -0.18175830742E+02  0.52402460692E+01  0.18948723148E+02  0.00000000000E+00 0. -1.
</event>
<event>
 7    1  0.2706925E-010  0.4778728E+02  0.7816164E-02  0.1312668E+00
        -11   -1    0    0    0    0  0.00000000000E+00  0.00000000000E+00  0.45593999997E+02  0.45594000000E+02  0.51100000000E-03 0.  1.
         11   -1    0    0    0    0 -0.00000000000E+00 -0.00000000000E+00 -0.45593999997E+02  0.45594000000E+02  0.51100000000E-03 0. -1.
    9900012    2    1    2    0    0  0.12717350476E+02  0.25177470077E+02  0.32984639625E+02  0.47787280492E+02  0.20000043076E+02 0.  0.
         12    1    1    2    0    0 -0.12717350476E+02 -0.25177470077E+02 -0.32984639625E+02  0.43400719508E+02  0.00000000000E+00 0. -1.
         11    1    3    3    0    0 -0.23035858863E+01  0.89085298624E+00  0.17182312490E+01  0.30087282803E+01  0.51100000000E-03 0. -1.
        -11    1    3    3    0    0  0.13917755034E+02  0.25994234486E+02  0.30903669255E+02  0.42713474518E+02  0.51100000000E-03 0.  1.
        -12    1    3    3    0    0  0.11031813287E+01 -0.17076173952E+01  0.36273912067E+00  0.20650776939E+01  0.00000000000E+00 0.  1.
</event>
<event>
 7    1  0.2706925E-010  0.4778727E+02  0.7816164E-02  0.1312668E+00
        -11   -1    0    0    0    0  0.00000000000E+00  0.00000000000E+00  0.45593999997E+02  0.45594000000E+02  0.51100000000E-03 0. -1.
         11   -1    0    0    0    0 -0.00000000000E+00 -0.00000000000E+00 -0.45593999997E+02  0.45594000000E+02  0.51100000000E-03 0.  1.
    9900012    2    1    2    0    0  0.37418204568E+02  0.20675106023E+02 -0.74860851506E+01  0.47787268289E+02  0.19999987438E+02 0.  0.
         12    1    1    2    0    0 -0.37418204568E+02 -0.20675106023E+02  0.74860851506E+01  0.43400731711E+02  0.00000000000E+00 0. -1.
         11    1    3    3    0    0  0.11357673416E+02  0.86848959399E+01  0.30029584246E-01  0.14297729363E+02  0.51100000000E-03 0. -1.
        -11    1    3    3    0    0  0.24752749502E+02  0.14304120039E+02 -0.95513441822E+01  0.30141908266E+02  0.51100000000E-03 0.  1.
        -12    1    3    3    0    0  0.13077816508E+01 -0.23139099563E+01  0.20352294473E+01  0.33476306599E+01  0.00000000000E+00 0.  1.
</event>
<event>
 7    1  0.2706925E-010  0.4778727E+02  0.7816164E-02  0.1312668E+00
        -11   -1    0    0    0    0  0.00000000000E+00  0.00000000000E+00  0.45593999997E+02  0.45594000000E+02  0.51100000000E-03 0. -1.
         11   -1    0    0    0    0 -0.00000000000E+00 -0.00000000000E+00 -0.45593999997E+02  0.45594000000E+02  0.51100000000E-03 0.  1.
    9900012    2    1    2    0    0  0.39190097270E+02 -0.13609541893E+02 -0.12749114833E+02  0.47787270933E+02  0.19999999491E+02 0.  0.
         12    1    1    2    0    0 -0.39190097270E+02  0.13609541893E+02  0.12749114833E+02  0.43400729067E+02  0.00000000000E+00 0. -1.
         11    1    3    3    0    0  0.19908999044E+02 -0.12288281577E+02  0.95488773640E+00  0.23415420515E+02  0.51100000000E-03 0. -1.
        -11    1    3    3    0    0  0.11413770068E+02  0.18597300932E+01 -0.91133910214E+01  0.14723676149E+02  0.51100000000E-03 0.  1.
        -12    1    3    3    0    0  0.78673281586E+01 -0.31809904090E+01 -0.45906115476E+01  0.96481742687E+01  0.00000000000E+00 0.  1.
</event>
<event>
 7    1  0.2706925E-010  0.4778727E+02  0.7816164E-02  0.1312668E+00
        -11   -1    0    0    0    0  0.00000000000E+00  0.00000000000E+00  0.45593999997E+02  0.45594000000E+02  0.51100000000E-03 0.  1.
         11   -1    0    0    0    0 -0.00000000000E+00 -0.00000000000E+00 -0.45593999997E+02  0.45594000000E+02  0.51100000000E-03 0. -1.
    9900012    2    1    2    0    0  0.74886311639E+01 -0.31106901718E+02  0.29324125594E+02  0.47787271054E+02  0.20000000045E+02 0.  0.
         12    1    1    2    0    0 -0.74886311639E+01  0.31106901718E+02 -0.29324125594E+02  0.43400728946E+02  0.00000000000E+00 0. -1.
         11    1    3    3    0    0  0.12443896828E+00 -0.21663031847E+02  0.11165763141E+02  0.24371637217E+02  0.51100000000E-03 0. -1.
        -11    1    3    3    0    0  0.11071442456E+01 -0.62226719186E+01  0.36703416062E+01  0.73088180956E+01  0.51100000000E-03 0.  1.
         12    1    3    3    0    0  0.62570479501E+01 -0.32211979524E+01  0.14488020847E+02  0.16106815742E+02  0.00000000000E+00 0. -1.
</event>
<event>
 7    1  0.2706925E-010  0.4778728E+02  0.7816164E-02  0.1312668E+00
        -11   -1    0    0    0    0  0.00000000000E+00  0.00000000000E+00  0.45593999997E+02  0.45594000000E+02  0.51100000000E-03 0. -1.
         11   -1    0    0    0    0 -0.00000000000E+00 -0.00000000000E+00 -0.45593999997E+02  0.45594000000E+02  0.51100000000E-03 0.  1.
    9900012    2    1    2    0    0 -0.37654192972E+02  0.18220647110E+02 -0.11566876112E+02  0.47787275899E+02  0.20000022135E+02 0.  0.
         12    1    1    2    0    0  0.37654192972E+02 -0.18220647110E+02  0.11566876112E+02  0.43400724101E+02  0.00000000000E+00 0. -1.
         11    1    3    3    0    0 -0.10568147228E+01 -0.13689454779E+01  0.11493167730E+01  0.20764870300E+01  0.51100000000E-03 0. -1.
        -11    1    3    3    0    0 -0.35270691371E+02  0.21330994533E+02 -0.13518020627E+02  0.43379371589E+02  0.51100000000E-03 0.  1.
        -12    1    3    3    0    0 -0.13266868783E+01 -0.17414019446E+01  0.80182774236E+00  0.23314172802E+01  0.00000000000E+00 0.  1.
</event>
<event>
 7    1  0.2706925E-010  0.4778727E+02  0.7816164E-02  0.1312668E+00
        -11   -1    0    0    0    0  0.00000000000E+00  0.00000000000E+00  0.45593999997E+02  0.45594000000E+02  0.51100000000E-03 0.  1.
         11   -1    0    0    0    0 -0.00000000000E+00 -0.00000000000E+00 -0.45593999997E+02  0.45594000000E+02  0.51100000000E-03 0. -1.
    9900012    2    1    2    0    0 -0.64333380756E+01  0.11915319826E+02  0.41234220408E+02  0.47787267080E+02  0.19999981924E+02 0.  0.
         12    1    1    2    0    0  0.64333380756E+01 -0.11915319826E+02 -0.41234220408E+02  0.43400732920E+02  0.00000000000E+00 0. -1.
         11    1    3    3    0    0  0.32020774795E+01  0.13541266095E+01 -0.37461024627E+00  0.34967545177E+01  0.51100000000E-03 0. -1.
        -11    1    3    3    0    0 -0.77796023588E+01  0.71111420787E+01  0.23387150006E+02  0.25652472399E+02  0.51100000000E-03 0.  1.
         12    1    3    3    0    0 -0.18558131963E+01  0.34500511381E+01  0.18221680648E+02  0.18638040163E+02  0.00000000000E+00 0. -1.
</event>
<event>
 7    1  0.2706925E-010  0.4778727E+02  0.7816164E-02  0.1312668E+00
        -11   -1    0    0    0    0  0.00000000000E+00  0.00000000000E+00  0.45593999997E+02  0.45594000000E+02  0.51100000000E-03 0.  1.
         11   -1    0    0    0    0 -0.00000000000E+00 -0.00000000000E+00 -0.45593999997E+02  0.45594000000E+02  0.51100000000E-03 0. -1.
    9900012    2    1    2    0    0  0.16266050727E+02  0.13510410347E+02  0.37901292621E+02  0.47787267560E+02  0.19999984112E+02 0.  0.
         12    1    1    2    0    0 -0.16266050727E+02 -0.13510410347E+02 -0.37901292621E+02  0.43400732440E+02  0.00000000000E+00 0. -1.
         11    1    3    3    0    0  0.28359224386E+01  0.48805729270E+01  0.14481753694E+01  0.58274917705E+01  0.51100000000E-03 0. -1.
        -11    1    3    3    0    0  0.12898424533E+02  0.47209094103E+01  0.35256265266E+02  0.37837290890E+02  0.51100000000E-03 0.  1.
        -12    1    3    3    0    0  0.53170375583E+00  0.39089280102E+01  0.11968519851E+01  0.41224848995E+01  0.00000000000E+00 0.  1.
</event>
<event>
 7    1  0.2706925E-010  0.4778727E+02  0.7816164E-02  0.1312668E+00
        -11   -1    0    0    0    0  0.00000000000E+00  0.00000000000E+00  0.45593999997E+02  0.45594000000E+02  0.51100000000E-03 0. -1.
         11   -1    0    0    0    0 -0.00000000000E+00 -0.00000000000E+00 -0.45593999997E+02  0.45594000000E+02  0.51100000000E-03 0.  1.
    9900012    2    1    2    0    0 -0.31803530091E+02  0.26709121158E+02  0.12600868684E+02  0.47787267623E+02  0.19999984400E+02 0.  0.
         12    1    1    2    0    0  0.31803530091E+02 -0.26709121158E+02 -0.12600868684E+02  0.43400732377E+02  0.00000000000E+00 0. -1.
         11    1    3    3    0    0  0.55737001204E+00 -0.17039005561E+01  0.16880400729E+01  0.24624008578E+01  0.51100000000E-03 0. -1.
        -11    1    3    3    0    0 -0.13019184519E+02  0.14553910436E+02  0.10143543962E+01  0.19553628554E+02  0.51100000000E-03 0.  1.
         12    1    3    3    0    0 -0.19341715584E+02  0.13859111278E+02  0.98984742153E+01  0.25771238211E+02  0.00000000000E+00 0. -1.
</event>
<event>
 7    1  0.2706925E-010  0.4778727E+02  0.7816164E-02  0.1312668E+00
        -11   -1    0    0    0    0  0.00000000000E+00  0.00000000000E+00  0.45593999997E+02  0.45594000000E+02  0.51100000000E-03 0. -1.
         11   -1    0    0    0    0 -0.00000000000E+00 -0.00000000000E+00 -0.45593999997E+02  0.45594000000E+02  0.51100000000E-03 0.  1.
    9900012    2    1    2    0    0 -0.53170483889E+01 -0.20462913661E+02 -0.37902787708E+02  0.47787272412E+02  0.20000006237E+02 0.  0.
         12    1    1    2    0    0  0.53170483889E+01  0.20462913661E+02  0.37902787708E+02  0.43400727588E+02  0.00000000000E+00 0. -1.
         11    1    3    3    0    0 -0.85228887606E+01 -0.14192196246E+02 -0.29617042123E+02  0.33929739927E+02  0.51100000000E-03 0. -1.
        -11    1    3    3    0    0  0.33028457524E+01 -0.57226572755E+00 -0.73548870958E+01  0.80827373197E+01  0.51100000000E-03 0.  1.
         12    1    3    3    0    0 -0.97005380598E-01 -0.56984516875E+01 -0.93085848898E+00  0.57747951656E+01  0.00000000000E+00 0. -1.
</event>
<event>
 7    1  0.2706925E-010  0.4778728E+02  0.7816164E-02  0.1312668E+00
        -11   -1    0    0    0    0  0.00000000000E+00  0.00000000000E+00  0.45593999997E+02  0.45594000000E+02  0.51100000000E-03 0.  1.
         11   -1    0    0    0    0 -0.00000000000E+00 -0.00000000000E+00 -0.45593999997E+02  0.45594000000E+02  0.51100000000E-03 0. -1.
    9900012    2    1    2    0    0 -0.13984677955E+02 -0.20877737924E+01  0.41032822609E+02  0.47787279405E+02  0.20000038121E+02 0.  0.
         12    1    1    2    0    0  0.13984677955E+02  0.20877737924E+01 -0.41032822609E+02  0.43400720595E+02  0.00000000000E+00 0. -1.
         11    1    3    3    0    0 -0.73747625015E+01  0.17822907111E+01  0.20700403518E+02  0.22047004064E+02  0.51100000000E-03 0. -1.
        -11    1    3    3    0    0 -0.13928802534E+01 -0.84987233544E+01  0.13229630222E+02  0.15785801536E+02  0.51100000000E-03 0.  1.
        -12    1    3    3    0    0 -0.52170351999E+01  0.46286588509E+01  0.71027888688E+01  0.99544738058E+01  0.00000000000E+00 0.  1.
</event>
<event>
 7    1  0.2706925E-010  0.4778726E+02  0.7816164E-02  0.1312668E+00
        -11   -1    0    0    0    0  0.00000000000E+00  0.00000000000E+00  0.45593999997E+02  0.45594000000E+02  0.51100000000E-03 0.  1.
         11   -1    0    0    0    0 -0.00000000000E+00 -0.00000000000E+00 -0.45593999997E+02  0.45594000000E+02  0.51100000000E-03 0. -1.
    9900012    2    1    2    0    0  0.19447309236E+02 -0.38304445837E+02 -0.61803092203E+01  0.47787255427E+02  0.19999928794E+02 0.  0.
         12    1    1    2    0    0 -0.19447309236E+02  0.38304445837E+02  0.61803092203E+01  0.43400744573E+02  0.00000000000E+00 0. -1.
         11    1    3    3    0    0  0.29954221849E+01 -0.18600762908E+01  0.45810981165E+01  0.57809080677E+01  0.51100000000E-03 0. -1.
        -11    1    3    3    0    0  0.67672429614E+01 -0.19739944288E+02 -0.25458955183E+01  0.21022429975E+02  0.51100000000E-03 0.  1.
         12    1    3    3    0    0  0.96846440897E+01 -0.16704425259E+02 -0.82155118185E+01  0.20983917385E+02  0.00000000000E+00 0. -1.
</event>
<event>
 7    1  0.2706925E-010  0.4778727E+02  0.7816164E-02  0.1312668E+00
        -11   -1    0    0    0    0  0.00000000000E+00  0.00000000000E+00  0.45593999997E+02  0.45594000000E+02  0.51100000000E-03 0. -1.
         11   -1    0    0    0    0 -0.00000000000E+00 -0.00000000000E+00 -0.45593999997E+02  0.45594000000E+02  0.51100000000E-03 0.  1.
    9900012    2    1    2    0    0  0.27678415691E+02 -0.31663365223E+02 -0.10721922871E+02  0.47787273941E+02  0.20000013206E+02 0.  0.
         12    1    1    2    0    0 -0.27678415691E+02  0.31663365223E+02  0.10721922871E+02  0.43400726059E+02  0.00000000000E+00 0. -1.
         11    1    3    3    0    0  0.16934241816E+02 -0.13016893668E+02  0.14928642270E+01  0.21411135199E+02  0.51100000000E-03 0. -1.
        -11    1    3    3    0    0  0.12087185460E+00 -0.90310915920E+01 -0.42379009655E+01  0.99767244226E+01  0.51100000000E-03 0.  1.
         12    1    3    3    0    0  0.10623302021E+02 -0.96153799629E+01 -0.79768861328E+01  0.16399414320E+02  0.00000000000E+00 0. -1.
</event>
<event>
 7    1  0.2706925E-010  0.4778727E+02  0.7816164E-02  0.1312668E+00
        -11   -1    0    0    0    0  0.00000000000E+00  0.00000000000E+00  0.45593999997E+02  0.45594000000E+02  0.51100000000E-03 0.  1.
         11   -1    0    0    0    0 -0.00000000000E+00 -0.00000000000E+00 -0.45593999997E+02  0.45594000000E+02  0.51100000000E-03 0. -1.
    9900012    2    1    2    0    0 -0.27005186115E+02 -0.14764374499E+02  0.30599943346E+02  0.47787270003E+02  0.19999995252E+02 0.  0.
         12    1    1    2    0    0  0.27005186115E+02  0.14764374499E+02 -0.30599943346E+02  0.43400729997E+02  0.00000000000E+00 0. -1.
         11    1    3    3    0    0 -0.20904653848E+02 -0.35811574595E+01  0.12245241666E+02  0.24490307980E+02  0.51100000000E-03 0. -1.
        -11    1    3    3    0    0 -0.44965745774E+01 -0.86407927989E+01  0.82834088566E+01  0.12786608060E+02  0.51100000000E-03 0.  1.
         12    1    3    3    0    0 -0.16039576901E+01 -0.25424242405E+01  0.10071292823E+02  0.10510353963E+02  0.00000000000E+00 0. -1.
</event>
<event>
 7    1  0.2706925E-010  0.4778727E+02  0.7816164E-02  0.1312668E+00
        -11   -1    0    0    0    0  0.00000000000E+00  0.00000000000E+00  0.45593999997E+02  0.45594000000E+02  0.51100000000E-03 0. -1.
         11   -1    0    0    0    0 -0.00000000000E+00 -0.00000000000E+00 -0.45593999997E+02  0.45594000000E+02  0.51100000000E-03 0.  1.
    9900012    2    1    2    0    0  0.29426118208E+01  0.25785818281E+02 -0.34785854061E+02  0.47787273837E+02  0.20000012734E+02 0.  0.
         12    1    1    2    0    0 -0.29426118208E+01 -0.25785818281E+02  0.34785854061E+02  0.43400726163E+02  0.00000000000E+00 0. -1.
         11    1    3    3    0    0 -0.17050674090E+01  0.16359047319E+01 -0.70903086410E+01  0.74736815591E+01  0.51100000000E-03 0. -1.
        -11    1    3    3    0    0  0.65569599693E+01  0.12715375159E+02 -0.24360081726E+02  0.28250452588E+02  0.51100000000E-03 0.  1.
        -12    1    3    3    0    0 -0.19092807395E+01  0.11434538390E+02 -0.33354636932E+01  0.12063139690E+02  0.00000000000E+00 0.  1.
</event>
<event>
 7    1  0.2706925E-010  0.4778727E+02  0.7816164E-02  0.1312668E+00
        -11   -1    0    0    0    0  0.00000000000E+00  0.00000000000E+00  0.45593999997E+02  0.45594000000E+02  0.51100000000E-03 0.  1.
         11   -1    0    0    0    0 -0.00000000000E+00 -0.00000000000E+00 -0.45593999997E+02  0.45594000000E+02  0.51100000000E-03 0. -1.
    9900012    2    1    2    0    0 -0.22460986351E+02  0.36649305935E+02 -0.59963122925E+01  0.47787270807E+02  0.19999998917E+02 0.  0.
         12    1    1    2    0    0  0.22460986351E+02 -0.36649305935E+02  0.59963122925E+01  0.43400729193E+02  0.00000000000E+00 0. -1.
         11    1    3    3    0    0 -0.11322661618E+01  0.13941756723E+02  0.38915114220E+01  0.14518900392E+02  0.51100000000E-03 0. -1.
        -11    1    3    3    0    0 -0.97075174121E+01  0.14830718889E+02 -0.54169343111E+01  0.18534543282E+02  0.51100000000E-03 0.  1.
         12    1    3    3    0    0 -0.11621202777E+02  0.78768303228E+01 -0.44708894035E+01  0.14733827133E+02  0.00000000000E+00 0. -1.
</event>
<event>
 7    1  0.2706925E-010  0.4778728E+02  0.7816164E-02  0.1312668E+00
        -11   -1    0    0    0    0  0.00000000000E+00  0.00000000000E+00  0.45593999997E+02  0.45594000000E+02  0.51100000000E-03 0.  1.
         11   -1    0    0    0    0 -0.00000000000E+00 -0.00000000000E+00 -0.45593999997E+02  0.45594000000E+02  0.51100000000E-03 0. -1.
    9900012    2    1    2    0    0  0.35633700170E+02  0.15491931179E+02  0.19335516523E+02  0.47787277441E+02  0.20000029164E+02 0.  0.
         12    1    1    2    0    0 -0.35633700170E+02 -0.15491931179E+02 -0.19335516523E+02  0.43400722559E+02  0.00000000000E+00 0. -1.
         11    1    3    3    0    0  0.12410595682E+02 -0.20087833263E+01  0.11354271192E+02  0.16940412338E+02  0.51100000000E-03 0. -1.
        -11    1    3    3    0    0  0.71467638590E+01  0.87917262101E+01  0.47230129795E+01  0.12275077811E+02  0.51100000000E-03 0.  1.
         12    1    3    3    0    0  0.16076340628E+02  0.87089882951E+01  0.32582323519E+01  0.18571787291E+02  0.00000000000E+00 0. -1.
</event>
<event>
 7    1  0.2706925E-010  0.4778727E+02  0.7816164E-02  0.1312668E+00
        -11   -1    0    0    0    0  0.00000000000E+00  0.00000000000E+00  0.45593999997E+02  0.45594000000E+02  0.51100000000E-03 0.  1.
         11   -1    0    0    0    0 -0.00000000000E+00 -0.00000000000E+00 -0.45593999997E+02  0.45594000000E+02  0.51100000000E-03 0. -1.
    9900012    2    1    2    0    0  0.24155511978E+02 -0.12438271041E+02  0.33844111788E+02  0.47787271341E+02  0.20000001353E+02 0.  0.
         12    1    1    2    0    0 -0.24155511978E+02  0.12438271041E+02 -0.33844111788E+02  0.43400728659E+02  0.00000000000E+00 0. -1.
         11    1    3    3    0    0  0.16762515022E+02 -0.77940247034E-01  0.13603885988E+02  0.21588276883E+02  0.51100000000E-03 0. -1.
        -11    1    3    3    0    0  0.18980047703E+01 -0.93589979583E+01  0.16013272043E+02  0.18644520554E+02  0.51100000000E-03 0.  1.
        -12    1    3    3    0    0  0.54949921852E+01 -0.30013328358E+01  0.42269537566E+01  0.75544739041E+01  0.00000000000E+00 0.  1.
</event>
<event>
 7    1  0.2706925E-010  0.4778727E+02  0.7816164E-02  0.1312668E+00
        -11   -1    0    0    0    0  0.00000000000E+00  0.00000000000E+00  0.45593999997E+02  0.45594000000E+02  0.51100000000E-03 0. -1.
         11   -1    0    0    0    0 -0.00000000000E+00 -0.00000000000E+00 -0.45593999997E+02  0.45594000000E+02  0.51100000000E-03 0.  1.
    9900012    2    1    2    0    0  0.13832033193E+02 -0.39748442001E+02 -0.10599985368E+02  0.47787268744E+02  0.19999989512E+02 0.  0.
         12    1    1    2    0    0 -0.13832033193E+02  0.39748442001E+02  0.10599985368E+02  0.43400731256E+02  0.00000000000E+00 0. -1.
         11    1    3    3    0    0  0.34742312780E+00 -0.13256178624E+02  0.62483657336E+00  0.13275443328E+02  0.51100000000E-03 0. -1.
        -11    1    3    3    0    0  0.96989104822E+01 -0.54511036693E+01 -0.23920832522E+01  0.11380046498E+02  0.51100000000E-03 0.  1.
        -12    1    3    3    0    0  0.37856995831E+01 -0.21041159707E+02 -0.88327386893E+01  0.23131778918E+02  0.00000000000E+00 0.  1.
</event>
<event>
 7    1  0.2706925E-010  0.4778727E+02  0.7816164E-02  0.1312668E+00
        -11   -1    0    0    0    0  0.00000000000E+00  0.00000000000E+00  0.45593999997E+02  0.45594000000E+02  0.51100000000E-03 0.  1.
         11   -1    0    0    0    0 -0.00000000000E+00 -0.00000000000E+00 -0.45593999997E+02  0.45594000000E+02  0.51100000000E-03 0. -1.
    9900012    2    1    2    0    0 -0.38618699626E+02  0.28722426377E+01  0.19595140998E+02  0.47787270867E+02  0.19999999190E+02 0.  0.
         12    1    1    2    0    0  0.38618699626E+02 -0.28722426377E+01 -0.19595140998E+02  0.43400729133E+02  0.00000000000E+00 0. -1.
         11    1    3    3    0    0 -0.15892719226E+02  0.85655182216E+01  0.43707365134E+01  0.18575520578E+02  0.51100000000E-03 0. -1.
        -11    1    3    3    0    0 -0.59255339469E+01  0.17254494267E+01  0.16929307220E+01  0.63996205333E+01  0.51100000000E-03 0.  1.
         12    1    3    3    0    0 -0.16800446453E+02 -0.74187250106E+01  0.13531473762E+02  0.22812129756E+02  0.00000000000E+00 0. -1.
</event>
<event>
 7    1  0.2706925E-010  0.4778726E+02  0.7816164E-02  0.1312668E+00
        -11   -1    0    0    0    0  0.00000000000E+00  0.00000000000E+00  0.45593999997E+02  0.45594000000E+02  0.51100000000E-03 0.  1.
         11   -1    0    0    0    0 -0.00000000000E+00 -0.00000000000E+00 -0.45593999997E+02  0.45594000000E+02  0.51100000000E-03 0. -1.
    9900012    2    1    2    0    0  0.17122475027E+02 -0.32670366373E+01  0.39746337618E+02  0.47787262293E+02  0.19999960100E+02 0.  0.
         12    1    1    2    0    0 -0.17122475027E+02  0.32670366373E+01 -0.39746337618E+02  0.43400737707E+02  0.00000000000E+00 0. -1.
         11    1    3    3    0    0  0.15269078247E+01 -0.20830857973E+01 -0.78956291933E+00  0.27007598577E+01  0.51100000000E-03 0. -1.
        -11    1    3    3    0    0  0.94953926365E+01  0.14036016068E+01  0.35469411818E+02  0.36745227632E+02  0.51100000000E-03 0.  1.
         12    1    3    3    0    0  0.61001745655E+01 -0.25875524468E+01  0.50664887199E+01  0.83412748032E+01  0.00000000000E+00 0. -1.
</event>
<event>
 7    1  0.2706925E-010  0.4778727E+02  0.7816164E-02  0.1312668E+00
        -11   -1    0    0    0    0  0.00000000000E+00  0.00000000000E+00  0.45593999997E+02  0.45594000000E+02  0.51100000000E-03 0.  1.
         11   -1    0    0    0    0 -0.00000000000E+00 -0.00000000000E+00 -0.45593999997E+02  0.45594000000E+02  0.51100000000E-03 0. -1.
    9900012    2    1    2    0    0  0.37194045932E+02 -0.22156763688E+02 -0.30502044659E+01  0.47787274462E+02  0.20000015581E+02 0.  0.
         12    1    1    2    0    0 -0.37194045932E+02  0.22156763688E+02  0.30502044659E+01  0.43400725538E+02  0.00000000000E+00 0. -1.
         11    1    3    3    0    0  0.24579694947E+01 -0.14263068208E+01  0.24667872269E+01  0.37631110358E+01  0.51100000000E-03 0. -1.
        -11    1    3    3    0    0 -0.15654489375E+01 -0.59923787325E+00 -0.16211296712E+01  0.23319043884E+01  0.51100000000E-03 0.  1.
        -12    1    3    3    0    0  0.36301525375E+02 -0.20131218994E+02 -0.38958620217E+01  0.41692259038E+02  0.00000000000E+00 0.  1.
</event>
<event>
 7    1  0.2706925E-010  0.4778727E+02  0.7816164E-02  0.1312668E+00
        -11   -1    0    0    0    0  0.00000000000E+00  0.00000000000E+00  0.45593999997E+02  0.45594000000E+02  0.51100000000E-03 0.  1.
         11   -1    0    0    0    0 -0.00000000000E+00 -0.00000000000E+00 -0.45593999997E+02  0.45594000000E+02  0.51100000000E-03 0. -1.
    9900012    2    1    2    0    0  0.36266371956E+00  0.26543104488E+02  0.34335920954E+02  0.47787269723E+02  0.19999993973E+02 0.  0.
         12    1    1    2    0    0 -0.36266371956E+00 -0.26543104488E+02 -0.34335920954E+02  0.43400730277E+02  0.00000000000E+00 0. -1.
         11    1    3    3    0    0  0.29836438408E+01  0.21581041578E-01  0.11577507370E+02  0.11955805011E+02  0.51100000000E-03 0. -1.
        -11    1    3    3    0    0 -0.40285913151E+01  0.12080490232E+02  0.13806661686E+02  0.18782750049E+02  0.51100000000E-03 0.  1.
         12    1    3    3    0    0  0.14076111938E+01  0.14441033215E+02  0.89517518978E+01  0.17048714662E+02  0.00000000000E+00 0. -1.
</event>
<event>
 7    1  0.2706925E-010  0.4778726E+02  0.7816164E-02  0.1312668E+00
        -11   -1    0    0    0    0  0.00000000000E+00  0.00000000000E+00  0.45593999997E+02  0.45594000000E+02  0.51100000000E-03 0.  1.
         11   -1    0    0    0    0 -0.00000000000E+00 -0.00000000000E+00 -0.45593999997E+02  0.45594000000E+02  0.51100000000E-03 0. -1.
    9900012    2    1    2    0    0 -0.42969433879E+02  0.30387476047E+01  0.52932084809E+01  0.47787259328E+02  0.19999946580E+02 0.  0.
         12    1    1    2    0    0  0.42969433879E+02 -0.30387476047E+01 -0.52932084809E+01  0.43400740672E+02  0.00000000000E+00 0. -1.
         11    1    3    3    0    0 -0.13783857318E+02  0.35145586085E+01 -0.28552883014E+01  0.14508601460E+02  0.51100000000E-03 0. -1.
        -11    1    3    3    0    0 -0.15806935995E+02 -0.60027986818E+01  0.82258122904E+01  0.18803106277E+02  0.51100000000E-03 0.  1.
        -12    1    3    3    0    0 -0.13378640566E+02  0.55269876780E+01 -0.77315508034E-01  0.14475551592E+02  0.00000000000E+00 0.  1.
</event>
<event>
 7    1  0.2706925E-010  0.4778727E+02  0.7816164E-02  0.1312668E+00
        -11   -1    0    0    0    0  0.00000000000E+00  0.00000000000E+00  0.45593999997E+02  0.45594000000E+02  0.51100000000E-03 0. -1.
         11   -1    0    0    0    0 -0.00000000000E+00 -0.00000000000E+00 -0.45593999997E+02  0.45594000000E+02  0.51100000000E-03 0.  1.
    9900012    2    1    2    0    0 -0.34174010822E+02 -0.75573078580E+01  0.25664123533E+02  0.47787272420E+02  0.20000006274E+02 0.  0.
         12    1    1    2    0    0  0.34174010822E+02  0.75573078580E+01 -0.25664123533E+02  0.43400727580E+02  0.00000000000E+00 0. -1.
         11    1    3    3    0    0 -0.75010751709E+00  0.28691141416E+01 -0.60625026302E+00  0.30268823709E+01  0.51100000000E-03 0. -1.
        -11    1    3    3    0    0 -0.75220839245E+01 -0.31205321483E+00  0.18492684686E+01  0.77523491863E+01  0.51100000000E-03 0.  1.
         12    1    3    3    0    0 -0.25901819380E+02 -0.10114368785E+02  0.24421105327E+02  0.37008040863E+02  0.00000000000E+00 0. -1.
</event>
<event>
 7    1  0.2706925E-010  0.4778727E+02  0.7816164E-02  0.1312668E+00
        -11   -1    0    0    0    0  0.00000000000E+00  0.00000000000E+00  0.45593999997E+02  0.45594000000E+02  0.51100000000E-03 0. -1.
         11   -1    0    0    0    0 -0.00000000000E+00 -0.00000000000E+00 -0.45593999997E+02  0.45594000000E+02  0.51100000000E-03 0.  1.
    9900012    2    1    2    0    0 -0.41451342527E+02 -0.12414547504E+02 -0.33597934296E+01  0.47787274213E+02  0.20000014445E+02 0.  0.
         12    1    1    2    0    0  0.41451342527E+02  0.12414547504E+02  0.33597934296E+01  0.43400725787E+02  0.00000000000E+00 0. -1.
         11    1    3    3    0    0 -0.10213080491E+02 -0.54224014718E+01 -0.72355416683E+01  0.13640473391E+02  0.51100000000E-03 0. -1.
        -11    1    3    3    0    0 -0.27758604059E+02 -0.98172693134E+01  0.32987436559E+01  0.29627699642E+02  0.51100000000E-03 0.  1.
        -12    1    3    3    0    0 -0.34796579760E+01  0.28251232810E+01  0.57700458282E+00  0.45191011796E+01  0.00000000000E+00 0.  1.
</event>
<event>
 7    1  0.2706925E-010  0.4778727E+02  0.7816164E-02  0.1312668E+00
        -11   -1    0    0    0    0  0.00000000000E+00  0.00000000000E+00  0.45593999997E+02  0.45594000000E+02  0.51100000000E-03 0.  1.
         11   -1    0    0    0    0 -0.00000000000E+00 -0.00000000000E+00 -0.45593999997E+02  0.45594000000E+02  0.51100000000E-03 0. -1.
    9900012    2    1    2    0    0 -0.17844897903E+02 -0.25579606278E+02  0.30180566509E+02  0.47787271512E+02  0.20000002133E+02 0.  0.
         12    1    1    2    0    0  0.17844897903E+02  0.25579606278E+02 -0.30180566509E+02  0.43400728488E+02  0.00000000000E+00 0. -1.
         11    1    3    3    0    0 -0.43121297009E+01 -0.63662601311E+00  0.56862162941E+01  0.71646919852E+01  0.51100000000E-03 0. -1.
        -11    1    3    3    0    0 -0.55923257813E+01 -0.43095496518E+01 -0.70993630742E+00  0.70957970424E+01  0.51100000000E-03 0.  1.
        -12    1    3    3    0    0 -0.79404424210E+01 -0.20633430613E+02  0.25204286522E+02  0.33526782485E+02  0.00000000000E+00 0.  1.
</event>
<event>
 7    1  0.2706925E-010  0.4778727E+02  0.7816164E-02  0.1312668E+00
        -11   -1    0    0    0    0  0.00000000000E+00  0.00000000000E+00  0.45593999997E+02  0.45594000000E+02  0.51100000000E-03 0. -1.
         11   -1    0    0    0    0 -0.00000000000E+00 -0.00000000000E+00 -0.45593999997E+02  0.45594000000E+02  0.51100000000E-03 0.  1.
    9900012    2    1    2    0    0  0.18540415675E+02  0.36670689468E+02 -0.13969137002E+02  0.47787271112E+02  0.20000000307E+02 0.  0.
         12    1    1    2    0    0 -0.18540415675E+02 -0.36670689468E+02  0.13969137002E+02  0.43400728888E+02  0.00000000000E+00 0. -1.
         11    1    3    3    0    0  0.16494580422E+02  0.24214723064E+02 -0.15374206547E+02  0.33087614353E+02  0.51100000000E-03 0. -1.
        -11    1    3    3    0    0  0.23976517930E+01  0.12816313086E+02 -0.17648799690E+00  0.13039852895E+02  0.51100000000E-03 0.  1.
         12    1    3    3    0    0 -0.35181653962E+00 -0.36034668204E+00  0.15815575421E+01  0.16598038642E+01  0.00000000000E+00 0. -1.
</event>
<event>
 7    1  0.2706925E-010  0.4778727E+02  0.7816164E-02  0.1312668E+00
        -11   -1    0    0    0    0  0.00000000000E+00  0.00000000000E+00  0.45593999997E+02  0.45594000000E+02  0.51100000000E-03 0.  1.
         11   -1    0    0    0    0 -0.00000000000E+00 -0.00000000000E+00 -0.45593999997E+02  0.45594000000E+02  0.51100000000E-03 0. -1.
    9900012    2    1    2    0    0  0.94253974806E+01  0.12768506487E+02  0.40394933792E+02  0.47787267844E+02  0.19999985409E+02 0.  0.
         12    1    1    2    0    0 -0.94253974806E+01 -0.12768506487E+02 -0.40394933792E+02  0.43400732156E+02  0.00000000000E+00 0. -1.
         11    1    3    3    0    0  0.67282777213E+00  0.10347241747E+02  0.18459102168E+02  0.21172070331E+02  0.51100000000E-03 0. -1.
        -11    1    3    3    0    0  0.69070791003E+00 -0.21241572841E+01 -0.54902072630E+00  0.23001186065E+01  0.51100000000E-03 0.  1.
        -12    1    3    3    0    0  0.80618617984E+01  0.45454220242E+01  0.22484852350E+02  0.24315078907E+02  0.00000000000E+00 0.  1.
</event>
<event>
 7    1  0.2706925E-010  0.4778727E+02  0.7816164E-02  0.1312668E+00
        -11   -1    0    0    0    0  0.00000000000E+00  0.00000000000E+00  0.45593999997E+02  0.45594000000E+02  0.51100000000E-03 0.  1.
         11   -1    0    0    0    0 -0.00000000000E+00 -0.00000000000E+00 -0.45593999997E+02  0.45594000000E+02  0.51100000000E-03 0. -1.
    9900012    2    1    2    0    0 -0.10523370179E+02  0.59282196059E+01  0.41686189124E+02  0.47787268770E+02  0.19999989631E+02 0.  0.
         12    1    1    2    0    0  0.10523370179E+02 -0.59282196059E+01 -0.41686189124E+02  0.43400731230E+02  0.00000000000E+00 0. -1.
         11    1    3    3    0    0  0.30787994394E+01 -0.20120942873E+01  0.51982613615E+01  0.63678450713E+01  0.51100000000E-03 0. -1.
        -11    1    3    3    0    0 -0.12375623264E+02  0.97893204990E+01  0.35756023427E+02  0.39082989376E+02  0.51100000000E-03 0.  1.
        -12    1    3    3    0    0 -0.12265463545E+01 -0.18490066059E+01  0.73190433556E+00  0.23364343228E+01  0.00000000000E+00 0.  1.
</event>
<event>
 7    1  0.2706925E-010  0.4778727E+02  0.7816164E-02  0.1312668E+00
        -11   -1    0    0    0    0  0.00000000000E+00  0.00000000000E+00  0.45593999997E+02  0.45594000000E+02  0.51100000000E-03 0.  1.
         11   -1    0    0    0    0 -0.00000000000E+00 -0.00000000000E+00 -0.45593999997E+02  0.45594000000E+02  0.51100000000E-03 0. -1.
    9900012    2    1    2    0    0  0.40788726161E+02 -0.83349629516E-01  0.14828894159E+02  0.47787271538E+02  0.20000002252E+02 0.  0.
         12    1    1    2    0    0 -0.40788726161E+02  0.83349629516E-01 -0.14828894159E+02  0.43400728462E+02  0.00000000000E+00 0. -1.
         11    1    3    3    0    0  0.13594263036E+02  0.64253014793E+01  0.57250030671E+01  0.16089255637E+02  0.51100000000E-03 0. -1.
        -11    1    3    3    0    0  0.10746582368E+02  0.32616091612E+01  0.34926407529E+01  0.11761193247E+02  0.51100000000E-03 0.  1.
         12    1    3    3    0    0  0.16447880758E+02 -0.97702602700E+01  0.56112503386E+01  0.19936822654E+02  0.00000000000E+00 0. -1.
</event>
<event>
 7    1  0.2706925E-010  0.4778727E+02  0.7816164E-02  0.1312668E+00
        -11   -1    0    0    0    0  0.00000000000E+00  0.00000000000E+00  0.45593999997E+02  0.45594000000E+02  0.51100000000E-03 0. -1.
         11   -1    0    0    0    0 -0.00000000000E+00 -0.00000000000E+00 -0.45593999997E+02  0.45594000000E+02  0.51100000000E-03 0.  1.
    9900012    2    1    2    0    0 -0.26205898253E+02  0.67253280555E+01 -0.33935881612E+02  0.47787271879E+02  0.20000003803E+02 0.  0.
         12    1    1    2    0    0  0.26205898253E+02 -0.67253280555E+01  0.33935881612E+02  0.43400728121E+02  0.00000000000E+00 0. -1.
         11    1    3    3    0    0  0.14345758427E+01  0.44087578609E+01 -0.10163813502E+02  0.11171314108E+02  0.51100000000E-03 0. -1.
        -11    1    3    3    0    0 -0.15138190442E+02  0.24431905440E+01 -0.13648055457E+02  0.20528112624E+02  0.51100000000E-03 0.  1.
         12    1    3    3    0    0 -0.12502283654E+02 -0.12662034932E+00 -0.10124012653E+02  0.16087845147E+02  0.00000000000E+00 0. -1.
</event>
<event>
 7    1  0.2706925E-010  0.4778727E+02  0.7816164E-02  0.1312668E+00
        -11   -1    0    0    0    0  0.00000000000E+00  0.00000000000E+00  0.45593999997E+02  0.45594000000E+02  0.51100000000E-03 0. -1.
         11   -1    0    0    0    0 -0.00000000000E+00 -0.00000000000E+00 -0.45593999997E+02  0.45594000000E+02  0.51100000000E-03 0.  1.
    9900012    2    1    2    0    0 -0.43738355343E+01  0.35155818232E+02 -0.25071124275E+02  0.47787271144E+02  0.20000000452E+02 0.  0.
         12    1    1    2    0    0  0.43738355343E+01 -0.35155818232E+02  0.25071124275E+02  0.43400728856E+02  0.00000000000E+00 0. -1.
         11    1    3    3    0    0 -0.26151547054E+01  0.31441549674E+02 -0.12676365640E+02  0.34001475352E+02  0.51100000000E-03 0. -1.
        -11    1    3    3    0    0 -0.31990910926E+01  0.24223940775E+01 -0.72047985414E+01  0.82468963355E+01  0.51100000000E-03 0.  1.
         12    1    3    3    0    0  0.14404102636E+01  0.12918744801E+01 -0.51899600943E+01  0.55388994557E+01  0.00000000000E+00 0. -1.
</event>
<event>
 7    1  0.2706925E-010  0.4778727E+02  0.7816164E-02  0.1312668E+00
        -11   -1    0    0    0    0  0.00000000000E+00  0.00000000000E+00  0.45593999997E+02  0.45594000000E+02  0.51100000000E-03 0.  1.
         11   -1    0    0    0    0 -0.00000000000E+00 -0.00000000000E+00 -0.45593999997E+02  0.45594000000E+02  0.51100000000E-03 0. -1.
    9900012    2    1    2    0    0 -0.91570863658E+01  0.36277128567E+02  0.21994107761E+02  0.47787273463E+02  0.20000011026E+02 0.  0.
         12    1    1    2    0    0  0.91570863658E+01 -0.36277128567E+02 -0.21994107761E+02  0.43400726537E+02  0.00000000000E+00 0. -1.
         11    1    3    3    0    0 -0.78759625257E+01  0.66655507296E+01  0.30061730217E+01  0.10746973003E+02  0.51100000000E-03 0. -1.
        -11    1    3    3    0    0  0.28406429577E+01  0.23393845889E+02  0.17694300444E+02  0.29469128700E+02  0.51100000000E-03 0.  1.
        -12    1    3    3    0    0 -0.41217667978E+01  0.62177319486E+01  0.12936342952E+01  0.75711717593E+01  0.00000000000E+00 0.  1.
</event>
<event>
 7    1  0.2706925E-010  0.4778727E+02  0.7816164E-02  0.1312668E+00
        -11   -1    0    0    0    0  0.00000000000E+00  0.00000000000E+00  0.45593999997E+02  0.45594000000E+02  0.51100000000E-03 0.  1.
         11   -1    0    0    0    0 -0.00000000000E+00 -0.00000000000E+00 -0.45593999997E+02  0.45594000000E+02  0.51100000000E-03 0. -1.
    9900012    2    1    2    0    0  0.61295911413E+01 -0.42334921299E+02  0.73352423784E+01  0.47787271553E+02  0.20000002318E+02 0.  0.
         12    1    1    2    0    0 -0.61295911413E+01  0.42334921299E+02 -0.73352423784E+01  0.43400728447E+02  0.00000000000E+00 0. -1.
         11    1    3    3    0    0 -0.20886536277E+01 -0.65085485675E+01 -0.21457196967E+01  0.71643416802E+01  0.51100000000E-03 0. -1.
        -11    1    3    3    0    0  0.99719633649E+01 -0.36240657531E+02  0.83772226478E+01  0.38509780202E+02  0.51100000000E-03 0.  1.
        -12    1    3    3    0    0 -0.17537185960E+01  0.41428479920E+00  0.11037394273E+01  0.21131496710E+01  0.00000000000E+00 0.  1.
</event>
<event>
 7    1  0.2706925E-010  0.4778733E+02  0.7816164E-02  0.1312667E+00
        -11   -1    0    0    0    0  0.00000000000E+00  0.00000000000E+00  0.45593999997E+02  0.45594000000E+02  0.51100000000E-03 0. -1.
         11   -1    0    0    0    0 -0.00000000000E+00 -0.00000000000E+00 -0.45593999997E+02  0.45594000000E+02  0.51100000000E-03 0.  1.
    9900012    2    1    2    0    0 -0.78028112994E+01 -0.12467432296E+02 -0.40832549859E+02  0.47787333413E+02  0.20000284362E+02 0.  0.
         12    1    1    2    0    0  0.78028112994E+01  0.12467432296E+02  0.40832549859E+02  0.43400666587E+02  0.00000000000E+00 0. -1.
         11    1    3    3    0    0 -0.13854055691E+01 -0.10199848777E+02 -0.82050377198E+01  0.13163544656E+02  0.51100000000E-03 0. -1.
        -11    1    3    3    0    0 -0.37911980812E+01  0.32850080850E+01 -0.10147464686E+02  0.11319695262E+02  0.51100000000E-03 0.  1.
         12    1    3    3    0    0 -0.26262076492E+01 -0.55525916034E+01 -0.22480047453E+02  0.23304093495E+02  0.00000000000E+00 0. -1.
</event>
<event>
 7    1  0.2706925E-010  0.4778727E+02  0.7816164E-02  0.1312668E+00
        -11   -1    0    0    0    0  0.00000000000E+00  0.00000000000E+00  0.45593999997E+02  0.45594000000E+02  0.51100000000E-03 0.  1.
         11   -1    0    0    0    0 -0.00000000000E+00 -0.00000000000E+00 -0.45593999997E+02  0.45594000000E+02  0.51100000000E-03 0. -1.
    9900012    2    1    2    0    0 -0.38737832112E+02  0.12331949646E+02  0.15196269288E+02  0.47787271675E+02  0.20000002876E+02 0.  0.
         12    1    1    2    0    0  0.38737832112E+02 -0.12331949646E+02 -0.15196269288E+02  0.43400728325E+02  0.00000000000E+00 0. -1.
         11    1    3    3    0    0 -0.26724646311E+01  0.75854635314E+01 -0.14411056292E+00  0.80437610796E+01  0.51100000000E-03 0. -1.
        -11    1    3    3    0    0 -0.31463782959E+02  0.45078493899E+01  0.11695774683E+02  0.33868591496E+02  0.51100000000E-03 0.  1.
         12    1    3    3    0    0 -0.46015845226E+01  0.23863672509E+00  0.36446051676E+01  0.58749191001E+01  0.00000000000E+00 0. -1.
</event>
<event>
 7    1  0.2706925E-010  0.4778727E+02  0.7816164E-02  0.1312668E+00
        -11   -1    0    0    0    0  0.00000000000E+00  0.00000000000E+00  0.45593999997E+02  0.45594000000E+02  0.51100000000E-03 0. -1.
         11   -1    0    0    0    0 -0.00000000000E+00 -0.00000000000E+00 -0.45593999997E+02  0.45594000000E+02  0.51100000000E-03 0.  1.
    9900012    2    1    2    0    0  0.24529916325E+02 -0.19252411967E+02 -0.30186932851E+02  0.47787273319E+02  0.20000010371E+02 0.  0.
         12    1    1    2    0    0 -0.24529916325E+02  0.19252411967E+02  0.30186932851E+02  0.43400726681E+02  0.00000000000E+00 0. -1.
         11    1    3    3    0    0  0.21974091383E+02 -0.15676214762E+02 -0.26594453677E+02  0.37892866981E+02  0.51100000000E-03 0.  1.
        -11    1    3    3    0    0  0.52679984769E+01 -0.20652082508E+01 -0.37459533373E+01  0.67859457512E+01  0.51100000000E-03 0. -1.
         12    1    3    3    0    0 -0.27121735346E+01 -0.15109889540E+01  0.15347416366E+00  0.31084605868E+01  0.00000000000E+00 0. -1.
</event>
<event>
 7    1  0.2706925E-010  0.4778721E+02  0.7816164E-02  0.1312668E+00
        -11   -1    0    0    0    0  0.00000000000E+00  0.00000000000E+00  0.45593999997E+02  0.45594000000E+02  0.51100000000E-03 0.  1.
         11   -1    0    0    0    0 -0.00000000000E+00 -0.00000000000E+00 -0.45593999997E+02  0.45594000000E+02  0.51100000000E-03 0. -1.
    9900012    2    1    2    0    0 -0.16473735640E+02  0.18686392083E+02  0.35539598467E+02  0.47787213438E+02  0.19999737346E+02 0.  0.
         12    1    1    2    0    0  0.16473735640E+02 -0.18686392083E+02 -0.35539598467E+02  0.43400786562E+02  0.00000000000E+00 0. -1.
         11    1    3    3    0    0 -0.69592440734E+00  0.44903952617E+01  0.21134675900E+00  0.45489150465E+01  0.51100000000E-03 0. -1.
        -11    1    3    3    0    0 -0.17606934665E+02  0.11380833989E+02  0.33193515105E+02  0.39259864695E+02  0.51100000000E-03 0.  1.
        -12    1    3    3    0    0  0.18291234326E+01  0.28151628331E+01  0.21347366026E+01  0.39784336957E+01  0.00000000000E+00 0.  1.
</event>
<event>
 7    1  0.2706925E-010  0.4778726E+02  0.7816164E-02  0.1312668E+00
        -11   -1    0    0    0    0  0.00000000000E+00  0.00000000000E+00  0.45593999997E+02  0.45594000000E+02  0.51100000000E-03 0.  1.
         11   -1    0    0    0    0 -0.00000000000E+00 -0.00000000000E+00 -0.45593999997E+02  0.45594000000E+02  0.51100000000E-03 0. -1.
    9900012    2    1    2    0    0 -0.25329511782E+02  0.43114374036E+01  0.34977866594E+02  0.47787264855E+02  0.19999971782E+02 0.  0.
         12    1    1    2    0    0  0.25329511782E+02 -0.43114374036E+01 -0.34977866594E+02  0.43400735145E+02  0.00000000000E+00 0. -1.
         11    1    3    3    0    0 -0.43111696867E+01 -0.51825532482E+01  0.34829998168E+01  0.75879068407E+01  0.51100000000E-03 0. -1.
        -11    1    3    3    0    0 -0.17130193493E+02  0.30182796750E+01  0.20980946379E+02  0.27253507160E+02  0.51100000000E-03 0.  1.
         12    1    3    3    0    0 -0.38881486022E+01  0.64757109768E+01  0.10513920399E+02  0.12945850855E+02  0.00000000000E+00 0. -1.
</event>
<event>
 7    1  0.2706925E-010  0.4778726E+02  0.7816164E-02  0.1312668E+00
        -11   -1    0    0    0    0  0.00000000000E+00  0.00000000000E+00  0.45593999997E+02  0.45594000000E+02  0.51100000000E-03 0. -1.
         11   -1    0    0    0    0 -0.00000000000E+00 -0.00000000000E+00 -0.45593999997E+02  0.45594000000E+02  0.51100000000E-03 0.  1.
    9900012    2    1    2    0    0  0.31854479340E+01  0.35947848082E+01 -0.43134151716E+02  0.47787255760E+02  0.19999930310E+02 0.  0.
         12    1    1    2    0    0 -0.31854479340E+01 -0.35947848082E+01  0.43134151716E+02  0.43400744240E+02  0.00000000000E+00 0. -1.
         11    1    3    3    0    0 -0.67385506197E+01  0.53822171585E+01 -0.29955625079E+02  0.31172356345E+02  0.51100000000E-03 0. -1.
        -11    1    3    3    0    0  0.67426847729E+01 -0.16009713607E+01 -0.91571926423E+01  0.11483948998E+02  0.51100000000E-03 0.  1.
         12    1    3    3    0    0  0.31813137808E+01 -0.18646098965E+00 -0.40213339952E+01  0.51309504163E+01  0.00000000000E+00 0. -1.
</event>
<event>
 7    1  0.2706925E-010  0.4778727E+02  0.7816164E-02  0.1312668E+00
        -11   -1    0    0    0    0  0.00000000000E+00  0.00000000000E+00  0.45593999997E+02  0.45594000000E+02  0.51100000000E-03 0. -1.
         11   -1    0    0    0    0 -0.00000000000E+00 -0.00000000000E+00 -0.45593999997E+02  0.45594000000E+02  0.51100000000E-03 0.  1.
    9900012    2    1    2    0    0  0.38559275018E+02 -0.19047349375E+02  0.58313193405E+01  0.47787268516E+02  0.19999988472E+02 0.  0.
         12    1    1    2    0    0 -0.38559275018E+02  0.19047349375E+02 -0.58313193405E+01  0.43400731484E+02  0.00000000000E+00 0. -1.
         11    1    3    3    0    0  0.55091673994E+01 -0.51362512408E+01  0.86153717145E+01  0.11443628458E+02  0.51100000000E-03 0. -1.
        -11    1    3    3    0    0  0.18476390282E+02 -0.10381168010E+02 -0.70214939695E+00  0.21204684886E+02  0.51100000000E-03 0.  1.
         12    1    3    3    0    0  0.14573717336E+02 -0.35299301245E+01 -0.20819029770E+01  0.15138955172E+02  0.00000000000E+00 0. -1.
</event>
<event>
 7    1  0.2706925E-010  0.4778727E+02  0.7816164E-02  0.1312668E+00
        -11   -1    0    0    0    0  0.00000000000E+00  0.00000000000E+00  0.45593999997E+02  0.45594000000E+02  0.51100000000E-03 0.  1.
         11   -1    0    0    0    0 -0.00000000000E+00 -0.00000000000E+00 -0.45593999997E+02  0.45594000000E+02  0.51100000000E-03 0. -1.
    9900012    2    1    2    0    0  0.31583472818E+02  0.12088827736E+02  0.27202352525E+02  0.47787268507E+02  0.19999988431E+02 0.  0.
         12    1    1    2    0    0 -0.31583472818E+02 -0.12088827736E+02 -0.27202352525E+02  0.43400731493E+02  0.00000000000E+00 0. -1.
         11    1    3    3    0    0  0.33221061610E+01  0.10379455342E+02  0.80168440002E+01  0.13529200661E+02  0.51100000000E-03 0. -1.
        -11    1    3    3    0    0  0.17602905289E+02  0.22786579944E+00  0.12472443597E+02  0.21574893904E+02  0.51100000000E-03 0.  1.
         12    1    3    3    0    0  0.10658461367E+02  0.14815065941E+01  0.67130649277E+01  0.12683173941E+02  0.00000000000E+00 0. -1.
</event>
<event>
 7    1  0.2706925E-010  0.4778728E+02  0.7816164E-02  0.1312668E+00
        -11   -1    0    0    0    0  0.00000000000E+00  0.00000000000E+00  0.45593999997E+02  0.45594000000E+02  0.51100000000E-03 0.  1.
         11   -1    0    0    0    0 -0.00000000000E+00 -0.00000000000E+00 -0.45593999997E+02  0.45594000000E+02  0.51100000000E-03 0. -1.
    9900012    2    1    2    0    0  0.24313319565E+02  0.17220006107E+02  0.31558776229E+02  0.47787280240E+02  0.20000041927E+02 0.  0.
         12    1    1    2    0    0 -0.24313319565E+02 -0.17220006107E+02 -0.31558776229E+02  0.43400719760E+02  0.00000000000E+00 0. -1.
         11    1    3    3    0    0  0.25398552972E+01 -0.30233523010E+01  0.47367224643E+01  0.61666898764E+01  0.51100000000E-03 0. -1.
        -11    1    3    3    0    0  0.11653203905E+02  0.15764493959E+02  0.22228175564E+02  0.29637952361E+02  0.51100000000E-03 0.  1.
         12    1    3    3    0    0  0.10120260363E+02  0.44788644490E+01  0.45938782012E+01  0.11982638002E+02  0.00000000000E+00 0. -1.
</event>
<event>
 7    1  0.2706925E-010  0.4778727E+02  0.7816164E-02  0.1312668E+00
        -11   -1    0    0    0    0  0.00000000000E+00  0.00000000000E+00  0.45593999997E+02  0.45594000000E+02  0.51100000000E-03 0. -1.
         11   -1    0    0    0    0 -0.00000000000E+00 -0.00000000000E+00 -0.45593999997E+02  0.45594000000E+02  0.51100000000E-03 0.  1.
    9900012    2    1    2    0    0 -0.37232451727E+02  0.22180969273E+02 -0.23178969853E+01  0.47787268372E+02  0.19999987813E+02 0.  0.
         12    1    1    2    0    0  0.37232451727E+02 -0.22180969273E+02  0.23178969853E+01  0.43400731628E+02  0.00000000000E+00 0. -1.
         11    1    3    3    0    0 -0.88404461505E+01  0.99559746300E+01 -0.80604571519E+01  0.15564250343E+02  0.51100000000E-03 0. -1.
        -11    1    3    3    0    0 -0.25397259505E+02  0.90368651958E+01  0.66285362554E+01  0.27760101154E+02  0.51100000000E-03 0.  1.
        -12    1    3    3    0    0 -0.29947460708E+01  0.31881294468E+01 -0.88597608880E+00  0.44629168744E+01  0.00000000000E+00 0.  1.
</event>
<event>
 7    1  0.2706925E-010  0.4778727E+02  0.7816164E-02  0.1312668E+00
        -11   -1    0    0    0    0  0.00000000000E+00  0.00000000000E+00  0.45593999997E+02  0.45594000000E+02  0.51100000000E-03 0. -1.
         11   -1    0    0    0    0 -0.00000000000E+00 -0.00000000000E+00 -0.45593999997E+02  0.45594000000E+02  0.51100000000E-03 0.  1.
    9900012    2    1    2    0    0 -0.25079259452E+02 -0.14786154009E+02 -0.32187325792E+02  0.47787267901E+02  0.19999985669E+02 0.  0.
         12    1    1    2    0    0  0.25079259452E+02  0.14786154009E+02  0.32187325792E+02  0.43400732099E+02  0.00000000000E+00 0. -1.
         11    1    3    3    0    0 -0.11987535328E+01 -0.58525333169E+01 -0.14520044084E+01  0.61479649740E+01  0.51100000000E-03 0. -1.
        -11    1    3    3    0    0 -0.22275585375E+02 -0.11492085191E+02 -0.27142512683E+02  0.36945713160E+02  0.51100000000E-03 0.  1.
         12    1    3    3    0    0 -0.16049205439E+01  0.25584644994E+01 -0.35928087006E+01  0.46935897676E+01  0.00000000000E+00 0. -1.
</event>
<event>
 7    1  0.2706925E-010  0.4778728E+02  0.7816164E-02  0.1312668E+00
        -11   -1    0    0    0    0  0.00000000000E+00  0.00000000000E+00  0.45593999997E+02  0.45594000000E+02  0.51100000000E-03 0.  1.
         11   -1    0    0    0    0 -0.00000000000E+00 -0.00000000000E+00 -0.45593999997E+02  0.45594000000E+02  0.51100000000E-03 0. -1.
    9900012    2    1    2    0    0  0.45218789707E+01  0.42859622273E+02  0.51213106793E+01  0.47787280722E+02  0.20000044123E+02 0.  0.
         12    1    1    2    0    0 -0.45218789707E+01 -0.42859622273E+02 -0.51213106793E+01  0.43400719278E+02  0.00000000000E+00 0. -1.
         11    1    3    3    0    0  0.47719945677E+01  0.67549273389E+01  0.42845323861E+01  0.93144078468E+01  0.51100000000E-03 0. -1.
        -11    1    3    3    0    0  0.12465200162E+01  0.17437572102E+02 -0.60802403500E+01  0.18509242446E+02  0.51100000000E-03 0.  1.
        -12    1    3    3    0    0 -0.14966356132E+01  0.18667122832E+02  0.69170186432E+01  0.19963630429E+02  0.00000000000E+00 0.  1.
</event>
<event>
 7    1  0.2706925E-010  0.4778727E+02  0.7816164E-02  0.1312668E+00
        -11   -1    0    0    0    0  0.00000000000E+00  0.00000000000E+00  0.45593999997E+02  0.45594000000E+02  0.51100000000E-03 0. -1.
         11   -1    0    0    0    0 -0.00000000000E+00 -0.00000000000E+00 -0.45593999997E+02  0.45594000000E+02  0.51100000000E-03 0.  1.
    9900012    2    1    2    0    0  0.43367144897E+02 -0.15271312437E+01 -0.76280107189E+00  0.47787271298E+02  0.20000001156E+02 0.  0.
         12    1    1    2    0    0 -0.43367144897E+02  0.15271312437E+01  0.76280107189E+00  0.43400728702E+02  0.00000000000E+00 0. -1.
         11    1    3    3    0    0  0.87447464266E+00  0.11806813069E+01  0.37661003984E+01  0.40425520060E+01  0.51100000000E-03 0. -1.
        -11    1    3    3    0    0  0.25880627829E+02 -0.18816250985E+01 -0.71283618222E+01  0.26910238801E+02  0.51100000000E-03 0.  1.
         12    1    3    3    0    0  0.16612042426E+02 -0.82618745217E+00  0.25994603518E+01  0.16834480491E+02  0.00000000000E+00 0. -1.
</event>
<event>
 7    1  0.2706925E-010  0.4778728E+02  0.7816164E-02  0.1312668E+00
        -11   -1    0    0    0    0  0.00000000000E+00  0.00000000000E+00  0.45593999997E+02  0.45594000000E+02  0.51100000000E-03 0.  1.
         11   -1    0    0    0    0 -0.00000000000E+00 -0.00000000000E+00 -0.45593999997E+02  0.45594000000E+02  0.51100000000E-03 0. -1.
    9900012    2    1    2    0    0  0.14949178297E+02 -0.22255102051E+02  0.34129971322E+02  0.47787280634E+02  0.20000043723E+02 0.  0.
         12    1    1    2    0    0 -0.14949178297E+02  0.22255102051E+02 -0.34129971322E+02  0.43400719366E+02  0.00000000000E+00 0. -1.
         11    1    3    3    0    0  0.20345533350E+01 -0.85849633480E+01  0.84833391246E+00  0.88634459240E+01  0.51100000000E-03 0. -1.
        -11    1    3    3    0    0  0.13412556685E+02 -0.10708901355E+02  0.27718952628E+02  0.32602416784E+02  0.51100000000E-03 0.  1.
         12    1    3    3    0    0 -0.49793172270E+00 -0.29612373480E+01  0.55626847809E+01  0.63214179266E+01  0.00000000000E+00 0. -1.
</event>
<event>
 7    1  0.2706925E-010  0.4778727E+02  0.7816164E-02  0.1312668E+00
        -11   -1    0    0    0    0  0.00000000000E+00  0.00000000000E+00  0.45593999997E+02  0.45594000000E+02  0.51100000000E-03 0. -1.
         11   -1    0    0    0    0 -0.00000000000E+00 -0.00000000000E+00 -0.45593999997E+02  0.45594000000E+02  0.51100000000E-03 0.  1.
    9900012    2    1    2    0    0  0.31456267820E+01  0.25321660050E+02 -0.35107576501E+02  0.47787270014E+02  0.19999995302E+02 0.  0.
         12    1    1    2    0    0 -0.31456267820E+01 -0.25321660050E+02  0.35107576501E+02  0.43400729986E+02  0.00000000000E+00 0. -1.
         11    1    3    3    0    0  0.20686415173E+01  0.60049732285E+01 -0.16228999434E+01  0.65553631241E+01  0.51100000000E-03 0. -1.
        -11    1    3    3    0    0  0.68651854240E+01  0.99792075984E+01 -0.23256086540E+02  0.26221382813E+02  0.51100000000E-03 0.  1.
        -12    1    3    3    0    0 -0.57882001593E+01  0.93374792229E+01 -0.10228590018E+02  0.15010524077E+02  0.00000000000E+00 0.  1.
</event>
<event>
 7    1  0.2706925E-010  0.4778728E+02  0.7816164E-02  0.1312668E+00
        -11   -1    0    0    0    0  0.00000000000E+00  0.00000000000E+00  0.45593999997E+02  0.45594000000E+02  0.51100000000E-03 0. -1.
         11   -1    0    0    0    0 -0.00000000000E+00 -0.00000000000E+00 -0.45593999997E+02  0.45594000000E+02  0.51100000000E-03 0.  1.
    9900012    2    1    2    0    0 -0.64923435704E+01 -0.16546328905E+01 -0.42880468497E+02  0.47787275195E+02  0.20000018925E+02 0.  0.
         12    1    1    2    0    0  0.64923435704E+01  0.16546328905E+01  0.42880468497E+02  0.43400724805E+02  0.00000000000E+00 0. -1.
         11    1    3    3    0    0 -0.33034404545E+01  0.90005693215E+01 -0.23822502158E+02  0.25679458255E+02  0.51100000000E-03 0. -1.
        -11    1    3    3    0    0 -0.13522086702E+01 -0.67304765244E+01 -0.11308859883E+02  0.13229440451E+02  0.51100000000E-03 0.  1.
         12    1    3    3    0    0 -0.18366944457E+01 -0.39247256877E+01 -0.77491064562E+01  0.88783764889E+01  0.00000000000E+00 0. -1.
</event>
<event>
 7    1  0.2706925E-010  0.4778727E+02  0.7816164E-02  0.1312668E+00
        -11   -1    0    0    0    0  0.00000000000E+00  0.00000000000E+00  0.45593999997E+02  0.45594000000E+02  0.51100000000E-03 0.  1.
         11   -1    0    0    0    0 -0.00000000000E+00 -0.00000000000E+00 -0.45593999997E+02  0.45594000000E+02  0.51100000000E-03 0. -1.
    9900012    2    1    2    0    0 -0.14049474655E+02 -0.10315750253E+01  0.41050837802E+02  0.47787272248E+02  0.20000005489E+02 0.  0.
         12    1    1    2    0    0  0.14049474655E+02  0.10315750253E+01 -0.41050837802E+02  0.43400727752E+02  0.00000000000E+00 0. -1.
         11    1    3    3    0    0 -0.12183768755E+02  0.31081202167E+00  0.32623127802E+02  0.34825411599E+02  0.51100000000E-03 0. -1.
        -11    1    3    3    0    0 -0.24614834204E+01 -0.16561098964E+01  0.10432962483E+02  0.10846580431E+02  0.51100000000E-03 0.  1.
         12    1    3    3    0    0  0.59577752043E+00  0.31372284942E+00 -0.20052524829E+01  0.21152802179E+01  0.00000000000E+00 0. -1.
</event>
<event>
 7    1  0.2706925E-010  0.4778727E+02  0.7816164E-02  0.1312668E+00
        -11   -1    0    0    0    0  0.00000000000E+00  0.00000000000E+00  0.45593999997E+02  0.45594000000E+02  0.51100000000E-03 0.  1.
         11   -1    0    0    0    0 -0.00000000000E+00 -0.00000000000E+00 -0.45593999997E+02  0.45594000000E+02  0.51100000000E-03 0. -1.
    9900012    2    1    2    0    0 -0.46832859859E+01 -0.23721240239E+02  0.36041541086E+02  0.47787273164E+02  0.20000009662E+02 0.  0.
         12    1    1    2    0    0  0.46832859859E+01  0.23721240239E+02 -0.36041541086E+02  0.43400726836E+02  0.00000000000E+00 0. -1.
         11    1    3    3    0    0 -0.88701359987E+01 -0.56257061983E+01  0.14295133804E+02  0.17739186385E+02  0.51100000000E-03 0. -1.
        -11    1    3    3    0    0  0.67620464348E+01 -0.10149538676E+02  0.14849887289E+02  0.19216075564E+02  0.51100000000E-03 0.  1.
         12    1    3    3    0    0 -0.25751964219E+01 -0.79459953645E+01  0.68965199927E+01  0.10832011215E+02  0.00000000000E+00 0. -1.
</event>
<event>
 7    1  0.2706925E-010  0.4778728E+02  0.7816164E-02  0.1312668E+00
        -11   -1    0    0    0    0  0.00000000000E+00  0.00000000000E+00  0.45593999997E+02  0.45594000000E+02  0.51100000000E-03 0.  1.
         11   -1    0    0    0    0 -0.00000000000E+00 -0.00000000000E+00 -0.45593999997E+02  0.45594000000E+02  0.51100000000E-03 0. -1.
    9900012    2    1    2    0    0 -0.39171241858E+02  0.86626355243E+01  0.16558833218E+02  0.47787281107E+02  0.20000045877E+02 0.  0.
         12    1    1    2    0    0  0.39171241858E+02 -0.86626355243E+01 -0.16558833218E+02  0.43400718893E+02  0.00000000000E+00 0. -1.
         11    1    3    3    0    0 -0.27164068223E+02  0.77929790913E+01  0.15193158737E+02  0.32085030750E+02  0.51100000000E-03 0. -1.
        -11    1    3    3    0    0 -0.78987487652E+01  0.32768575443E+01  0.48229833300E+01  0.98177999513E+01  0.51100000000E-03 0.  1.
         12    1    3    3    0    0 -0.41084248696E+01 -0.24072011114E+01 -0.34573088486E+01  0.58844504055E+01  0.00000000000E+00 0. -1.
</event>
<event>
 7    1  0.2706925E-010  0.4778727E+02  0.7816164E-02  0.1312668E+00
        -11   -1    0    0    0    0  0.00000000000E+00  0.00000000000E+00  0.45593999997E+02  0.45594000000E+02  0.51100000000E-03 0.  1.
         11   -1    0    0    0    0 -0.00000000000E+00 -0.00000000000E+00 -0.45593999997E+02  0.45594000000E+02  0.51100000000E-03 0. -1.
    9900012    2    1    2    0    0 -0.32930197025E+02  0.17973648744E+02  0.21821395464E+02  0.47787271604E+02  0.20000002553E+02 0.  0.
         12    1    1    2    0    0  0.32930197025E+02 -0.17973648744E+02 -0.21821395464E+02  0.43400728396E+02  0.00000000000E+00 0. -1.
         11    1    3    3    0    0 -0.96336239207E+01  0.58508989531E+01  0.14298784008E+02  0.18207002849E+02  0.51100000000E-03 0. -1.
        -11    1    3    3    0    0 -0.13534730640E+02  0.34147283462E+01  0.86966112361E+01  0.16446286828E+02  0.51100000000E-03 0.  1.
        -12    1    3    3    0    0 -0.97618424646E+01  0.87080214443E+01 -0.11739997794E+01  0.13133981927E+02  0.00000000000E+00 0.  1.
</event>
<event>
 7    1  0.2706925E-010  0.4778727E+02  0.7816164E-02  0.1312668E+00
        -11   -1    0    0    0    0  0.00000000000E+00  0.00000000000E+00  0.45593999997E+02  0.45594000000E+02  0.51100000000E-03 0.  1.
         11   -1    0    0    0    0 -0.00000000000E+00 -0.00000000000E+00 -0.45593999997E+02  0.45594000000E+02  0.51100000000E-03 0. -1.
    9900012    2    1    2    0    0 -0.19487818787E+02 -0.15545199870E+02  0.35527383737E+02  0.47787270568E+02  0.19999997827E+02 0.  0.
         12    1    1    2    0    0  0.19487818787E+02  0.15545199870E+02 -0.35527383737E+02  0.43400729432E+02  0.00000000000E+00 0. -1.
         11    1    3    3    0    0  0.17531921964E+01 -0.55154338720E+01  0.15599670064E+01  0.59939295121E+01  0.51100000000E-03 0. -1.
        -11    1    3    3    0    0 -0.12775094367E+02 -0.71915818757E+01  0.15820910739E+02  0.21569031105E+02  0.51100000000E-03 0.  1.
         12    1    3    3    0    0 -0.84659166167E+01 -0.28381841221E+01  0.18146505991E+02  0.20224309950E+02  0.00000000000E+00 0. -1.
</event>
<event>
 7    1  0.2706925E-010  0.4778728E+02  0.7816164E-02  0.1312668E+00
        -11   -1    0    0    0    0  0.00000000000E+00  0.00000000000E+00  0.45593999997E+02  0.45594000000E+02  0.51100000000E-03 0.  1.
         11   -1    0    0    0    0 -0.00000000000E+00 -0.00000000000E+00 -0.45593999997E+02  0.45594000000E+02  0.51100000000E-03 0. -1.
    9900012    2    1    2    0    0 -0.14987511070E+02 -0.28907231936E+02  0.28694412018E+02  0.47787276189E+02  0.20000023457E+02 0.  0.
         12    1    1    2    0    0  0.14987511070E+02  0.28907231936E+02 -0.28694412018E+02  0.43400723811E+02  0.00000000000E+00 0. -1.
         11    1    3    3    0    0 -0.10457219510E+02 -0.44483918209E+01  0.25686583482E+01  0.11650735413E+02  0.51100000000E-03 0. -1.
        -11    1    3    3    0    0 -0.17161720439E+01 -0.13593606995E+02  0.15382233860E+02  0.20599624181E+02  0.51100000000E-03 0.  1.
         12    1    3    3    0    0 -0.28141195152E+01 -0.10865233120E+02  0.10743519809E+02  0.15536916595E+02  0.00000000000E+00 0. -1.
</event>
<event>
 7    1  0.2706925E-010  0.4778727E+02  0.7816164E-02  0.1312668E+00
        -11   -1    0    0    0    0  0.00000000000E+00  0.00000000000E+00  0.45593999997E+02  0.45594000000E+02  0.51100000000E-03 0.  1.
         11   -1    0    0    0    0 -0.00000000000E+00 -0.00000000000E+00 -0.45593999997E+02  0.45594000000E+02  0.51100000000E-03 0. -1.
    9900012    2    1    2    0    0 -0.22268879112E+02 -0.17306630648E+02  0.32987894721E+02  0.47787266834E+02  0.19999980802E+02 0.  0.
         12    1    1    2    0    0  0.22268879112E+02  0.17306630648E+02 -0.32987894721E+02  0.43400733166E+02  0.00000000000E+00 0. -1.
         11    1    3    3    0    0  0.28495938977E+01 -0.31344077017E+01  0.52724841044E+01  0.67634152552E+01  0.51100000000E-03 0. -1.
        -11    1    3    3    0    0 -0.98771995605E+01 -0.12552179706E+01  0.12079526918E+02  0.15654060627E+02  0.51100000000E-03 0.  1.
         12    1    3    3    0    0 -0.15241273449E+02 -0.12917004975E+02  0.15635883699E+02  0.25369790951E+02  0.00000000000E+00 0. -1.
</event>
<event>
 7    1  0.2706925E-010  0.4778727E+02  0.7816164E-02  0.1312668E+00
        -11   -1    0    0    0    0  0.00000000000E+00  0.00000000000E+00  0.45593999997E+02  0.45594000000E+02  0.51100000000E-03 0.  1.
         11   -1    0    0    0    0 -0.00000000000E+00 -0.00000000000E+00 -0.45593999997E+02  0.45594000000E+02  0.51100000000E-03 0. -1.
    9900012    2    1    2    0    0  0.20481937065E+02 -0.32246362478E+02  0.20598193082E+02  0.47787271927E+02  0.20000004025E+02 0.  0.
         12    1    1    2    0    0 -0.20481937065E+02  0.32246362478E+02 -0.20598193082E+02  0.43400728073E+02  0.00000000000E+00 0. -1.
         11    1    3    3    0    0  0.14535533811E+01 -0.11396960819E+02  0.38570146590E+01  0.12119409873E+02  0.51100000000E-03 0. -1.
        -11    1    3    3    0    0  0.27200492176E+01  0.19588991883E+01  0.93187217933E+00  0.34791291720E+01  0.51100000000E-03 0.  1.
        -12    1    3    3    0    0  0.16308334466E+02 -0.22808300848E+02  0.15809306244E+02  0.32188732882E+02  0.00000000000E+00 0.  1.
</event>
<event>
 7    1  0.2706925E-010  0.4778726E+02  0.7816164E-02  0.1312668E+00
        -11   -1    0    0    0    0  0.00000000000E+00  0.00000000000E+00  0.45593999997E+02  0.45594000000E+02  0.51100000000E-03 0.  1.
         11   -1    0    0    0    0 -0.00000000000E+00 -0.00000000000E+00 -0.45593999997E+02  0.45594000000E+02  0.51100000000E-03 0. -1.
    9900012    2    1    2    0    0 -0.36914094070E+02 -0.60686787677E+01  0.22003295141E+02  0.47787260374E+02  0.19999951351E+02 0.  0.
         12    1    1    2    0    0  0.36914094070E+02  0.60686787677E+01 -0.22003295141E+02  0.43400739626E+02  0.00000000000E+00 0. -1.
         11    1    3    3    0    0 -0.72669332040E+01  0.44180299598E+01  0.69451025147E+01  0.10980061754E+02  0.51100000000E-03 0. -1.
        -11    1    3    3    0    0 -0.12912448828E+02 -0.85830353385E+01  0.12188013313E+02  0.19721751929E+02  0.51100000000E-03 0.  1.
         12    1    3    3    0    0 -0.16734712038E+02 -0.19036733889E+01  0.28701793128E+01  0.17085446692E+02  0.00000000000E+00 0. -1.
</event>
<event>
 7    1  0.2706925E-010  0.4778726E+02  0.7816164E-02  0.1312668E+00
        -11   -1    0    0    0    0  0.00000000000E+00  0.00000000000E+00  0.45593999997E+02  0.45594000000E+02  0.51100000000E-03 0. -1.
         11   -1    0    0    0    0 -0.00000000000E+00 -0.00000000000E+00 -0.45593999997E+02  0.45594000000E+02  0.51100000000E-03 0.  1.
    9900012    2    1    2    0    0 -0.40307354324E+02 -0.10815336499E+00  0.16091293445E+02  0.47787259978E+02  0.19999949543E+02 0.  0.
         12    1    1    2    0    0  0.40307354324E+02  0.10815336499E+00 -0.16091293445E+02  0.43400740022E+02  0.00000000000E+00 0. -1.
         11    1    3    3    0    0 -0.10491526035E+02 -0.27913979573E+01  0.11522520237E+02  0.15831376882E+02  0.51100000000E-03 0. -1.
        -11    1    3    3    0    0 -0.23719216261E+02  0.55458078767E+01  0.59623615909E+01  0.25078017486E+02  0.51100000000E-03 0.  1.
        -12    1    3    3    0    0 -0.60966120272E+01 -0.28625632843E+01 -0.13935883823E+01  0.68778656098E+01  0.00000000000E+00 0.  1.
</event>
<event>
 7    1  0.2706925E-010  0.4778727E+02  0.7816164E-02  0.1312668E+00
        -11   -1    0    0    0    0  0.00000000000E+00  0.00000000000E+00  0.45593999997E+02  0.45594000000E+02  0.51100000000E-03 0. -1.
         11   -1    0    0    0    0 -0.00000000000E+00 -0.00000000000E+00 -0.45593999997E+02  0.45594000000E+02  0.51100000000E-03 0.  1.
    9900012    2    1    2    0    0 -0.20998958403E+02 -0.20733620044E+02 -0.31824268476E+02  0.47787270534E+02  0.19999997673E+02 0.  0.
         12    1    1    2    0    0  0.20998958403E+02  0.20733620044E+02  0.31824268476E+02  0.43400729466E+02  0.00000000000E+00 0. -1.
         11    1    3    3    0    0 -0.11704057926E+02 -0.11526005661E+02 -0.25574609974E+02  0.30395632153E+02  0.51100000000E-03 0. -1.
        -11    1    3    3    0    0 -0.84409581421E+01 -0.16282556760E+01 -0.30742704306E+01  0.91297387611E+01  0.51100000000E-03 0.  1.
         12    1    3    3    0    0 -0.85394233489E+00 -0.75793587068E+01 -0.31753880717E+01  0.82618996195E+01  0.00000000000E+00 0. -1.
</event>
<event>
 7    1  0.2706925E-010  0.4778727E+02  0.7816164E-02  0.1312668E+00
        -11   -1    0    0    0    0  0.00000000000E+00  0.00000000000E+00  0.45593999997E+02  0.45594000000E+02  0.51100000000E-03 0. -1.
         11   -1    0    0    0    0 -0.00000000000E+00 -0.00000000000E+00 -0.45593999997E+02  0.45594000000E+02  0.51100000000E-03 0.  1.
    9900012    2    1    2    0    0 -0.16701214059E+02  0.36248610246E+02 -0.17050827814E+02  0.47787273912E+02  0.20000013077E+02 0.  0.
         12    1    1    2    0    0  0.16701214059E+02 -0.36248610246E+02  0.17050827814E+02  0.43400726088E+02  0.00000000000E+00 0. -1.
         11    1    3    3    0    0  0.19794322158E+00  0.19447606169E+02 -0.10846755152E+02  0.22268827199E+02  0.51100000000E-03 0.  1.
        -11    1    3    3    0    0 -0.10656429009E+02  0.58890403339E+01 -0.27740281849E+01  0.12487413980E+02  0.51100000000E-03 0. -1.
         12    1    3    3    0    0 -0.62427282716E+01  0.10911963743E+02 -0.34300444775E+01  0.13031032734E+02  0.00000000000E+00 0. -1.
</event>
<event>
 7    1  0.2706925E-010  0.4778727E+02  0.7816164E-02  0.1312668E+00
        -11   -1    0    0    0    0  0.00000000000E+00  0.00000000000E+00  0.45593999997E+02  0.45594000000E+02  0.51100000000E-03 0.  1.
         11   -1    0    0    0    0 -0.00000000000E+00 -0.00000000000E+00 -0.45593999997E+02  0.45594000000E+02  0.51100000000E-03 0. -1.
    9900012    2    1    2    0    0  0.14476222616E+01  0.42720892496E+01  0.43165687845E+02  0.47787274616E+02  0.20000016284E+02 0.  0.
         12    1    1    2    0    0 -0.14476222616E+01 -0.42720892496E+01 -0.43165687845E+02  0.43400725384E+02  0.00000000000E+00 0. -1.
         11    1    3    3    0    0 -0.75650563365E+00 -0.69107051753E+01  0.21593695227E+02  0.22685189455E+02  0.51100000000E-03 0.  1.
        -11    1    3    3    0    0  0.59324231433E+00  0.69117081031E+01  0.18048032160E+02  0.19335333213E+02  0.51100000000E-03 0. -1.
         12    1    3    3    0    0  0.16108855809E+01  0.42710863217E+01  0.35239604580E+01  0.57667519482E+01  0.00000000000E+00 0. -1.
</event>
<event>
 7    1  0.2706925E-010  0.4778727E+02  0.7816164E-02  0.1312668E+00
        -11   -1    0    0    0    0  0.00000000000E+00  0.00000000000E+00  0.45593999997E+02  0.45594000000E+02  0.51100000000E-03 0. -1.
         11   -1    0    0    0    0 -0.00000000000E+00 -0.00000000000E+00 -0.45593999997E+02  0.45594000000E+02  0.51100000000E-03 0.  1.
    9900012    2    1    2    0    0 -0.15047447177E+02  0.72736897213E+01 -0.40053600785E+02  0.47787272304E+02  0.20000005743E+02 0.  0.
         12    1    1    2    0    0  0.15047447177E+02 -0.72736897213E+01  0.40053600785E+02  0.43400727696E+02  0.00000000000E+00 0. -1.
         11    1    3    3    0    0 -0.48051301733E+00 -0.33261386966E+01 -0.51829287215E+01  0.61771224516E+01  0.51100000000E-03 0. -1.
        -11    1    3    3    0    0 -0.13383825085E+02  0.13516812505E+02 -0.26133389767E+02  0.32323134984E+02  0.51100000000E-03 0.  1.
        -12    1    3    3    0    0 -0.11831090756E+01 -0.29169840874E+01 -0.87372822958E+01  0.92870148685E+01  0.00000000000E+00 0.  1.
</event>
<event>
 7    1  0.2706925E-010  0.4778727E+02  0.7816164E-02  0.1312668E+00
        -11   -1    0    0    0    0  0.00000000000E+00  0.00000000000E+00  0.45593999997E+02  0.45594000000E+02  0.51100000000E-03 0.  1.
         11   -1    0    0    0    0 -0.00000000000E+00 -0.00000000000E+00 -0.45593999997E+02  0.45594000000E+02  0.51100000000E-03 0. -1.
    9900012    2    1    2    0    0  0.13864676759E+02  0.38030414410E+02  0.15655084270E+02  0.47787270221E+02  0.19999996245E+02 0.  0.
         12    1    1    2    0    0 -0.13864676759E+02 -0.38030414410E+02 -0.15655084270E+02  0.43400729779E+02  0.00000000000E+00 0. -1.
         11    1    3    3    0    0  0.90419691240E+01  0.73275454505E+01 -0.14320133447E+01  0.11726073104E+02  0.51100000000E-03 0. -1.
        -11    1    3    3    0    0  0.62710476026E+01  0.21421084538E+02  0.12860401655E+02  0.25760023910E+02  0.51100000000E-03 0.  1.
         12    1    3    3    0    0 -0.14483399671E+01  0.92817844213E+01  0.42266959596E+01  0.10301173207E+02  0.00000000000E+00 0. -1.
</event>
<event>
 7    1  0.2706925E-010  0.4778727E+02  0.7816164E-02  0.1312668E+00
        -11   -1    0    0    0    0  0.00000000000E+00  0.00000000000E+00  0.45593999997E+02  0.45594000000E+02  0.51100000000E-03 0.  1.
         11   -1    0    0    0    0 -0.00000000000E+00 -0.00000000000E+00 -0.45593999997E+02  0.45594000000E+02  0.51100000000E-03 0. -1.
    9900012    2    1    2    0    0 -0.43216238546E+01  0.16371157953E+02  0.39961636935E+02  0.47787266458E+02  0.19999979087E+02 0.  0.
         12    1    1    2    0    0  0.43216238546E+01 -0.16371157953E+02 -0.39961636935E+02  0.43400733542E+02  0.00000000000E+00 0. -1.
         11    1    3    3    0    0 -0.32441320807E+01  0.16808459508E+01  0.18103791465E+02  0.18468808888E+02  0.51100000000E-03 0. -1.
        -11    1    3    3    0    0 -0.15322543784E+00  0.48986559131E+01  0.18162211236E+02  0.18811863944E+02  0.51100000000E-03 0.  1.
         12    1    3    3    0    0 -0.92426633604E+00  0.97916560891E+01  0.36956342341E+01  0.10506593626E+02  0.00000000000E+00 0. -1.
</event>
<event>
 7    1  0.2706925E-010  0.4778728E+02  0.7816164E-02  0.1312668E+00
        -11   -1    0    0    0    0  0.00000000000E+00  0.00000000000E+00  0.45593999997E+02  0.45594000000E+02  0.51100000000E-03 0. -1.
         11   -1    0    0    0    0 -0.00000000000E+00 -0.00000000000E+00 -0.45593999997E+02  0.45594000000E+02  0.51100000000E-03 0.  1.
    9900012    2    1    2    0    0  0.27947086169E+02  0.19984490755E+02 -0.26517983019E+02  0.47787275128E+02  0.20000018618E+02 0.  0.
         12    1    1    2    0    0 -0.27947086169E+02 -0.19984490755E+02  0.26517983019E+02  0.43400724872E+02  0.00000000000E+00 0. -1.
         11    1    3    3    0    0  0.19580003343E+02  0.13154781545E+02 -0.20357377931E+02  0.31158428152E+02  0.51100000000E-03 0.  1.
        -11    1    3    3    0    0 -0.25039802725E+01  0.16470506055E+01  0.20995138546E+00  0.30044588111E+01  0.51100000000E-03 0. -1.
         12    1    3    3    0    0  0.10871063098E+02  0.51826586041E+01 -0.63705564733E+01  0.13624388165E+02  0.00000000000E+00 0. -1.
</event>
<event>
 7    1  0.2706925E-010  0.4778727E+02  0.7816164E-02  0.1312668E+00
        -11   -1    0    0    0    0  0.00000000000E+00  0.00000000000E+00  0.45593999997E+02  0.45594000000E+02  0.51100000000E-03 0.  1.
         11   -1    0    0    0    0 -0.00000000000E+00 -0.00000000000E+00 -0.45593999997E+02  0.45594000000E+02  0.51100000000E-03 0. -1.
    9900012    2    1    2    0    0 -0.13949435790E+02  0.13978299061E+01  0.41074109176E+02  0.47787272679E+02  0.20000007455E+02 0.  0.
         12    1    1    2    0    0  0.13949435790E+02 -0.13978299061E+01 -0.41074109176E+02  0.43400727321E+02  0.00000000000E+00 0. -1.
         11    1    3    3    0    0 -0.11063985375E+02 -0.51889130053E+01  0.14852536066E+02  0.19233679274E+02  0.51100000000E-03 0.  1.
        -11    1    3    3    0    0 -0.17979553655E+00  0.71099282707E+01  0.23945528359E+02  0.24979426237E+02  0.51100000000E-03 0. -1.
         12    1    3    3    0    0 -0.27056548783E+01 -0.52318535926E+00  0.22760447510E+01  0.35741671686E+01  0.00000000000E+00 0. -1.
</event>
<event>
 7    1  0.2770838E-010  0.4778727E+02  0.7816164E-02  0.1312668E+00
        -11   -1    0    0    0    0  0.00000000000E+00  0.00000000000E+00  0.45593999997E+02  0.45594000000E+02  0.51100000000E-03 0.  1.
         11   -1    0    0    0    0 -0.00000000000E+00 -0.00000000000E+00 -0.45593999997E+02  0.45594000000E+02  0.51100000000E-03 0. -1.
    9900012    2    1    2    0    0 -0.20191368696E+02 -0.38076418953E+02 -0.51105998944E+01  0.47787270958E+02  0.19999999606E+02 0.  0.
         12    1    1    2    0    0  0.20191368696E+02  0.38076418953E+02  0.51105998944E+01  0.43400729042E+02  0.00000000000E+00 0. -1.
         11    1    3    3    0    0 -0.41288961829E+01 -0.54234493789E+00 -0.33760390045E+01  0.53609291492E+01  0.51100000000E-03 0. -1.
        -11    1    3    3    0    0 -0.39659370958E+01 -0.17956095605E+02  0.37522131152E+01  0.18767768380E+02  0.51100000000E-03 0.  1.
        -12    1    3    3    0    0 -0.12096535418E+02 -0.19577978409E+02 -0.54867740050E+01  0.23658573429E+02  0.00000000000E+00 0.  1.
</event>
<event>
 7    1  0.2706925E-010  0.4778727E+02  0.7816164E-02  0.1312668E+00
        -11   -1    0    0    0    0  0.00000000000E+00  0.00000000000E+00  0.45593999997E+02  0.45594000000E+02  0.51100000000E-03 0.  1.
         11   -1    0    0    0    0 -0.00000000000E+00 -0.00000000000E+00 -0.45593999997E+02  0.45594000000E+02  0.51100000000E-03 0. -1.
    9900012    2    1    2    0    0 -0.74490614561E+01 -0.39006089446E+02  0.17511703605E+02  0.47787270817E+02  0.19999998962E+02 0.  0.
         12    1    1    2    0    0  0.74490614561E+01  0.39006089446E+02 -0.17511703605E+02  0.43400729183E+02  0.00000000000E+00 0. -1.
         11    1    3    3    0    0 -0.51692726507E+01 -0.60183316169E+01 -0.40144352307E+00  0.79437303801E+01  0.51100000000E-03 0. -1.
        -11    1    3    3    0    0  0.46928100523E+01 -0.92983761068E+01  0.83985722249E+01  0.13379771302E+02  0.51100000000E-03 0.  1.
        -12    1    3    3    0    0 -0.69725988576E+01 -0.23689381723E+02  0.95145749035E+01  0.26463769135E+02  0.00000000000E+00 0.  1.
</event>
<event>
 7    1  0.2706925E-010  0.4778726E+02  0.7816164E-02  0.1312668E+00
        -11   -1    0    0    0    0  0.00000000000E+00  0.00000000000E+00  0.45593999997E+02  0.45594000000E+02  0.51100000000E-03 0.  1.
         11   -1    0    0    0    0 -0.00000000000E+00 -0.00000000000E+00 -0.45593999997E+02  0.45594000000E+02  0.51100000000E-03 0. -1.
    9900012    2    1    2    0    0  0.25047820184E+02 -0.10551779187E+01  0.35427632716E+02  0.47787264335E+02  0.19999969408E+02 0.  0.
         12    1    1    2    0    0 -0.25047820184E+02  0.10551779187E+01 -0.35427632716E+02  0.43400735665E+02  0.00000000000E+00 0. -1.
         11    1    3    3    0    0  0.18428857892E+01  0.66496452030E+01  0.67007362465E+01  0.96184133756E+01  0.51100000000E-03 0. -1.
        -11    1    3    3    0    0  0.65661541912E+01 -0.44872537293E+01  0.68539751908E+01  0.10498895326E+02  0.51100000000E-03 0.  1.
         12    1    3    3    0    0  0.16638780204E+02 -0.32175693924E+01  0.21872921279E+02  0.27669955633E+02  0.00000000000E+00 0. -1.
</event>
<event>
 7    1  0.2706925E-010  0.4778727E+02  0.7816164E-02  0.1312668E+00
        -11   -1    0    0    0    0  0.00000000000E+00  0.00000000000E+00  0.45593999997E+02  0.45594000000E+02  0.51100000000E-03 0.  1.
         11   -1    0    0    0    0 -0.00000000000E+00 -0.00000000000E+00 -0.45593999997E+02  0.45594000000E+02  0.51100000000E-03 0. -1.
    9900012    2    1    2    0    0  0.57629440290E+00  0.25206240071E+02  0.35326148714E+02  0.47787269168E+02  0.19999991447E+02 0.  0.
         12    1    1    2    0    0 -0.57629440290E+00 -0.25206240071E+02 -0.35326148714E+02  0.43400730832E+02  0.00000000000E+00 0. -1.
         11    1    3    3    0    0 -0.40402954754E+00  0.11219679734E+02  0.24745451654E+01  0.11496426716E+02  0.51100000000E-03 0. -1.
        -11    1    3    3    0    0  0.36641812891E+01  0.67743685551E+01  0.15431970559E+02  0.17247144965E+02  0.51100000000E-03 0.  1.
         12    1    3    3    0    0 -0.26838573386E+01  0.72121917827E+01  0.17419632989E+02  0.19043697488E+02  0.00000000000E+00 0. -1.
</event>
<event>
 7    1  0.2706925E-010  0.4778727E+02  0.7816164E-02  0.1312668E+00
        -11   -1    0    0    0    0  0.00000000000E+00  0.00000000000E+00  0.45593999997E+02  0.45594000000E+02  0.51100000000E-03 0.  1.
         11   -1    0    0    0    0 -0.00000000000E+00 -0.00000000000E+00 -0.45593999997E+02  0.45594000000E+02  0.51100000000E-03 0. -1.
    9900012    2    1    2    0    0  0.78483757349E+01  0.14891138088E+02  0.40003503699E+02  0.47787270704E+02  0.19999998447E+02 0.  0.
         12    1    1    2    0    0 -0.78483757349E+01 -0.14891138088E+02 -0.40003503699E+02  0.43400729296E+02  0.00000000000E+00 0. -1.
         11    1    3    3    0    0  0.37908031920E+01 -0.13954008911E+01  0.55747970638E+01  0.68844531410E+01  0.51100000000E-03 0. -1.
        -11    1    3    3    0    0  0.70597940173E+01  0.17479573315E+02  0.29585561067E+02  0.35081071802E+02  0.51100000000E-03 0.  1.
        -12    1    3    3    0    0 -0.30022214744E+01 -0.11930343361E+01  0.48431455680E+01  0.58217457607E+01  0.00000000000E+00 0.  1.
</event>
<event>
 7    1  0.2706925E-010  0.4778727E+02  0.7816164E-02  0.1312668E+00
        -11   -1    0    0    0    0  0.00000000000E+00  0.00000000000E+00  0.45593999997E+02  0.45594000000E+02  0.51100000000E-03 0.  1.
         11   -1    0    0    0    0 -0.00000000000E+00 -0.00000000000E+00 -0.45593999997E+02  0.45594000000E+02  0.51100000000E-03 0. -1.
    9900012    2    1    2    0    0 -0.36397872174E+02 -0.23596703026E+02  0.14191074680E+01  0.47787270070E+02  0.19999995557E+02 0.  0.
         12    1    1    2    0    0  0.36397872174E+02  0.23596703026E+02 -0.14191074680E+01  0.43400729930E+02  0.00000000000E+00 0. -1.
         11    1    3    3    0    0 -0.93798652224E+01 -0.10293365116E+02 -0.68387413957E+01  0.15514626040E+02  0.51100000000E-03 0. -1.
        -11    1    3    3    0    0 -0.21326882699E+02 -0.13017593328E+02  0.89324682717E+01  0.26534555798E+02  0.51100000000E-03 0.  1.
        -12    1    3    3    0    0 -0.56911242525E+01 -0.28574458172E+00 -0.67461940799E+00  0.57380882330E+01  0.00000000000E+00 0.  1.
</event>
<event>
 7    1  0.2706925E-010  0.4778727E+02  0.7816164E-02  0.1312668E+00
        -11   -1    0    0    0    0  0.00000000000E+00  0.00000000000E+00  0.45593999997E+02  0.45594000000E+02  0.51100000000E-03 0. -1.
         11   -1    0    0    0    0 -0.00000000000E+00 -0.00000000000E+00 -0.45593999997E+02  0.45594000000E+02  0.51100000000E-03 0.  1.
    9900012    2    1    2    0    0 -0.38220369421E+02  0.15462824562E+02 -0.13554622594E+02  0.47787269870E+02  0.19999994645E+02 0.  0.
         12    1    1    2    0    0  0.38220369421E+02 -0.15462824562E+02  0.13554622594E+02  0.43400730130E+02  0.00000000000E+00 0. -1.
         11    1    3    3    0    0 -0.14685413092E+01  0.51382300862E+00 -0.74878069873E+01  0.76477370118E+01  0.51100000000E-03 0. -1.
        -11    1    3    3    0    0 -0.35345473779E+02  0.14460967551E+02 -0.58768696096E+01  0.38638836627E+02  0.51100000000E-03 0.  1.
         12    1    3    3    0    0 -0.14063543331E+01  0.48803400262E+00 -0.18994599727E+00  0.15006962317E+01  0.00000000000E+00 0. -1.
</event>
<event>
 7    1  0.2706925E-010  0.4778727E+02  0.7816164E-02  0.1312668E+00
        -11   -1    0    0    0    0  0.00000000000E+00  0.00000000000E+00  0.45593999997E+02  0.45594000000E+02  0.51100000000E-03 0. -1.
         11   -1    0    0    0    0 -0.00000000000E+00 -0.00000000000E+00 -0.45593999997E+02  0.45594000000E+02  0.51100000000E-03 0.  1.
    9900012    2    1    2    0    0  0.40953963855E+01 -0.34073662191E+02 -0.26567583754E+02  0.47787271513E+02  0.20000002136E+02 0.  0.
         12    1    1    2    0    0 -0.40953963855E+01  0.34073662191E+02  0.26567583754E+02  0.43400728487E+02  0.00000000000E+00 0. -1.
         11    1    3    3    0    0 -0.22884958824E+01 -0.16408299484E+02 -0.10199402743E+02  0.19455007631E+02  0.51100000000E-03 0. -1.
        -11    1    3    3    0    0  0.50083748043E+01 -0.96213770518E+01 -0.16979774231E+02  0.20148633893E+02  0.51100000000E-03 0.  1.
        -12    1    3    3    0    0  0.13755174636E+01 -0.80439856560E+01  0.61159322035E+00  0.81836299888E+01  0.00000000000E+00 0.  1.
</event>
<event>
 7    1  0.2706925E-010  0.4778726E+02  0.7816164E-02  0.1312668E+00
        -11   -1    0    0    0    0  0.00000000000E+00  0.00000000000E+00  0.45593999997E+02  0.45594000000E+02  0.51100000000E-03 0.  1.
         11   -1    0    0    0    0 -0.00000000000E+00 -0.00000000000E+00 -0.45593999997E+02  0.45594000000E+02  0.51100000000E-03 0. -1.
    9900012    2    1    2    0    0 -0.17298499769E+02  0.36676753575E+02 -0.15466156989E+02  0.47787258542E+02  0.19999942996E+02 0.  0.
         12    1    1    2    0    0  0.17298499769E+02 -0.36676753575E+02  0.15466156989E+02  0.43400741458E+02  0.00000000000E+00 0. -1.
         11    1    3    3    0    0 -0.49635417176E+01  0.38284433357E+01 -0.86233721219E+01  0.10660969551E+02  0.51100000000E-03 0. -1.
        -11    1    3    3    0    0 -0.11183705060E+02  0.26875675343E+02 -0.16971935932E+01  0.29159177807E+02  0.51100000000E-03 0.  1.
        -12    1    3    3    0    0 -0.11512529915E+01  0.59726348965E+01 -0.51455912742E+01  0.79671111840E+01  0.00000000000E+00 0.  1.
</event>
<event>
 7    1  0.2706925E-010  0.4778727E+02  0.7816164E-02  0.1312668E+00
        -11   -1    0    0    0    0  0.00000000000E+00  0.00000000000E+00  0.45593999997E+02  0.45594000000E+02  0.51100000000E-03 0.  1.
         11   -1    0    0    0    0 -0.00000000000E+00 -0.00000000000E+00 -0.45593999997E+02  0.45594000000E+02  0.51100000000E-03 0. -1.
    9900012    2    1    2    0    0  0.43367596414E+02 -0.96682265146E+00  0.13929093983E+01  0.47787270036E+02  0.19999995403E+02 0.  0.
         12    1    1    2    0    0 -0.43367596414E+02  0.96682265146E+00 -0.13929093983E+01  0.43400729964E+02  0.00000000000E+00 0. -1.
         11    1    3    3    0    0  0.72451582082E+01  0.44442318271E+01 -0.19241569948E+01  0.87146941654E+01  0.51100000000E-03 0. -1.
        -11    1    3    3    0    0  0.35970613405E+02 -0.71770204802E+01  0.17739531938E+01  0.36722493950E+02  0.51100000000E-03 0.  1.
        -12    1    3    3    0    0  0.15182480105E+00  0.17659660016E+01  0.15431131993E+01  0.23500819209E+01  0.00000000000E+00 0.  1.
</event>
<event>
 7    1  0.2706925E-010  0.4778728E+02  0.7816164E-02  0.1312668E+00
        -11   -1    0    0    0    0  0.00000000000E+00  0.00000000000E+00  0.45593999997E+02  0.45594000000E+02  0.51100000000E-03 0.  1.
         11   -1    0    0    0    0 -0.00000000000E+00 -0.00000000000E+00 -0.45593999997E+02  0.45594000000E+02  0.51100000000E-03 0. -1.
    9900012    2    1    2    0    0  0.77426666813E+01 -0.14661054191E+02  0.40108943270E+02  0.47787277338E+02  0.20000028695E+02 0.  0.
         12    1    1    2    0    0 -0.77426666813E+01  0.14661054191E+02 -0.40108943270E+02  0.43400722662E+02  0.00000000000E+00 0. -1.
         11    1    3    3    0    0 -0.28463683173E+01 -0.21983796915E+01  0.20853557024E+02  0.21161415990E+02  0.51100000000E-03 0. -1.
        -11    1    3    3    0    0  0.73294574558E+01 -0.10887776458E+02  0.94485413666E+01  0.16172184671E+02  0.51100000000E-03 0.  1.
        -12    1    3    3    0    0  0.32595775428E+01 -0.15748980408E+01  0.98068448794E+01  0.10453676678E+02  0.00000000000E+00 0.  1.
</event>
